
     Program PWSCF v.7.0 starts on 10Apr2022 at 13:40:53 

     This program is part of the open-source Quantum ESPRESSO suite
     for quantum simulation of materials; please cite
         "P. Giannozzi et al., J. Phys.:Condens. Matter 21 395502 (2009);
         "P. Giannozzi et al., J. Phys.:Condens. Matter 29 465901 (2017);
         "P. Giannozzi et al., J. Chem. Phys. 152 154105 (2020);
          URL http://www.quantum-espresso.org", 
     in publications or presentations arising from this work. More details at
     http://www.quantum-espresso.org/quote

     Parallel version (MPI), running on     1 processors

     MPI processes distributed on     1 nodes
     90958 MiB available memory on the printing compute node when the environment starts
 
     Waiting for input...
     Reading input from standard input
Warning: card &CELL ignored
Warning: card  CELL_DYNAMICS = 'BFGS', ignored
Warning: card  PRESS=0.1D0, ignored
Warning: card / ignored

     Current dimensions of program PWSCF are:
     Max number of different atomic species (ntypx) = 10
     Max number of k-points (npk) =  40000
     Max angular momentum in pseudopotentials (lmaxx) =  4
     Message from routine setup:
     using ibrav=0 with symmetry is DISCOURAGED, use correct ibrav instead

     Subspace diagonalization in iterative solution of the eigenvalue problem:
     a serial algorithm will be used

 
     G-vector sticks info
     --------------------
     sticks:   dense  smooth     PW     G-vecs:    dense   smooth      PW
     Sum        1685    1685    489                54933    54933    8483
 
     Using Slab Decomposition
 


     bravais-lattice index     =            0
     lattice parameter (alat)  =       7.2864  a.u.
     unit-cell volume          =     406.4772 (a.u.)^3
     number of atoms/cell      =            5
     number of atomic types    =            3
     number of electrons       =        44.00
     number of Kohn-Sham states=           22
     kinetic-energy cutoff     =     100.0000  Ry
     charge density cutoff     =     400.0000  Ry
     scf convergence threshold =      1.0E-08
     mixing beta               =       0.7000
     number of iterations used =            8  plain     mixing
     Exchange-correlation= SLA  PZ   NOGX NOGC
                           (   1   1   0   0   0   0   0)

     celldm(1)=   7.286431  celldm(2)=   0.000000  celldm(3)=   0.000000
     celldm(4)=   0.000000  celldm(5)=   0.000000  celldm(6)=   0.000000

     crystal axes: (cart. coord. in units of alat)
               a(1) = (   1.000000   0.000000   0.000000 )  
               a(2) = (   0.000000   1.000000   0.000000 )  
               a(3) = (   0.000000   0.000000   1.050731 )  

     reciprocal axes: (cart. coord. in units 2 pi/alat)
               b(1) = (  1.000000  0.000000  0.000000 )  
               b(2) = (  0.000000  1.000000  0.000000 )  
               b(3) = (  0.000000  0.000000  0.951718 )  


     PseudoPot. # 1 for Pb read from file:
     ./Pb_LDA.UPF
     MD5 check sum: 062a37469794d955244864f8fe2e5624
     Pseudo is Ultrasoft + core correction, Zval = 14.0
     Generated by new atomic code, or converted to UPF format
     Using radial grid of  899 points,  6 beta functions with: 
                l(1) =   0
                l(2) =   0
                l(3) =   1
                l(4) =   1
                l(5) =   2
                l(6) =   2
     Q(r) pseudized with  6 coefficients,  rinner =    1.000   1.000   1.000
                                                       1.000   1.000

     PseudoPot. # 2 for Ti read from file:
     ./Ti_LDA.UPF
     MD5 check sum: 0d9f225c038fe889ca2a701dcc8d72cb
     Pseudo is Ultrasoft + core correction, Zval = 12.0
     Generated by new atomic code, or converted to UPF format
     Using radial grid of  851 points,  6 beta functions with: 
                l(1) =   0
                l(2) =   0
                l(3) =   1
                l(4) =   1
                l(5) =   2
                l(6) =   2
     Q(r) pseudized with  6 coefficients,  rinner =    1.000   1.000   1.000
                                                       1.000   1.000

     PseudoPot. # 3 for O  read from file:
     ./O_LDA.UPF
     MD5 check sum: 194b818514d2a7dbb603bb78519a4f40
     Pseudo is Ultrasoft + core correction, Zval =  6.0
     Generated by new atomic code, or converted to UPF format
     Using radial grid of  737 points,  5 beta functions with: 
                l(1) =   0
                l(2) =   0
                l(3) =   1
                l(4) =   1
                l(5) =   2
     Q(r) pseudized with  8 coefficients,  rinner =    0.900   0.900   0.900
                                                       0.900   0.900

     atomic species   valence    mass     pseudopotential
        Pb            14.00   207.20000     Pb( 1.00)
        Ti            12.00    47.88000     Ti( 1.00)
        O              6.00    16.00000     O ( 1.00)

      8 Sym. Ops. (no inversion) found



   Cartesian axes

     site n.     atom                  positions (alat units)
         1           Pb  tau(   1) = (   0.0000000   0.0000000   1.0561849  )
         2           Ti  tau(   2) = (   0.5000000   0.5000000   0.5668825  )
         3           O   tau(   3) = (   0.5000000   0.5000000   0.1045254  )
         4           O   tau(   4) = (   0.5000000   0.0000000   0.6425761  )
         5           O   tau(   5) = (   0.0000000   0.5000000   0.6425761  )

     number of k points=    60
                       cart. coord. in units 2pi/alat
        k(    1) = (   0.0000000   0.0000000   0.0000000), wk =   0.0052083
        k(    2) = (   0.0000000   0.0000000   0.1586197), wk =   0.0104167
        k(    3) = (   0.0000000   0.0000000   0.3172394), wk =   0.0104167
        k(    4) = (   0.0000000   0.0000000  -0.4758591), wk =   0.0052083
        k(    5) = (   0.0000000   0.1250000   0.0000000), wk =   0.0208333
        k(    6) = (   0.0000000   0.1250000   0.1586197), wk =   0.0416667
        k(    7) = (   0.0000000   0.1250000   0.3172394), wk =   0.0416667
        k(    8) = (   0.0000000   0.1250000  -0.4758591), wk =   0.0208333
        k(    9) = (   0.0000000   0.2500000   0.0000000), wk =   0.0208333
        k(   10) = (   0.0000000   0.2500000   0.1586197), wk =   0.0416667
        k(   11) = (   0.0000000   0.2500000   0.3172394), wk =   0.0416667
        k(   12) = (   0.0000000   0.2500000  -0.4758591), wk =   0.0208333
        k(   13) = (   0.0000000   0.3750000   0.0000000), wk =   0.0208333
        k(   14) = (   0.0000000   0.3750000   0.1586197), wk =   0.0416667
        k(   15) = (   0.0000000   0.3750000   0.3172394), wk =   0.0416667
        k(   16) = (   0.0000000   0.3750000  -0.4758591), wk =   0.0208333
        k(   17) = (   0.0000000  -0.5000000   0.0000000), wk =   0.0104167
        k(   18) = (   0.0000000  -0.5000000   0.1586197), wk =   0.0208333
        k(   19) = (   0.0000000  -0.5000000   0.3172394), wk =   0.0208333
        k(   20) = (   0.0000000  -0.5000000  -0.4758591), wk =   0.0104167
        k(   21) = (   0.1250000   0.1250000   0.0000000), wk =   0.0208333
        k(   22) = (   0.1250000   0.1250000   0.1586197), wk =   0.0416667
        k(   23) = (   0.1250000   0.1250000   0.3172394), wk =   0.0416667
        k(   24) = (   0.1250000   0.1250000  -0.4758591), wk =   0.0208333
        k(   25) = (   0.1250000   0.2500000   0.0000000), wk =   0.0416667
        k(   26) = (   0.1250000   0.2500000   0.1586197), wk =   0.0833333
        k(   27) = (   0.1250000   0.2500000   0.3172394), wk =   0.0833333
        k(   28) = (   0.1250000   0.2500000  -0.4758591), wk =   0.0416667
        k(   29) = (   0.1250000   0.3750000   0.0000000), wk =   0.0416667
        k(   30) = (   0.1250000   0.3750000   0.1586197), wk =   0.0833333
        k(   31) = (   0.1250000   0.3750000   0.3172394), wk =   0.0833333
        k(   32) = (   0.1250000   0.3750000  -0.4758591), wk =   0.0416667
        k(   33) = (   0.1250000  -0.5000000   0.0000000), wk =   0.0208333
        k(   34) = (   0.1250000  -0.5000000   0.1586197), wk =   0.0416667
        k(   35) = (   0.1250000  -0.5000000   0.3172394), wk =   0.0416667
        k(   36) = (   0.1250000  -0.5000000  -0.4758591), wk =   0.0208333
        k(   37) = (   0.2500000   0.2500000   0.0000000), wk =   0.0208333
        k(   38) = (   0.2500000   0.2500000   0.1586197), wk =   0.0416667
        k(   39) = (   0.2500000   0.2500000   0.3172394), wk =   0.0416667
        k(   40) = (   0.2500000   0.2500000  -0.4758591), wk =   0.0208333
        k(   41) = (   0.2500000   0.3750000   0.0000000), wk =   0.0416667
        k(   42) = (   0.2500000   0.3750000   0.1586197), wk =   0.0833333
        k(   43) = (   0.2500000   0.3750000   0.3172394), wk =   0.0833333
        k(   44) = (   0.2500000   0.3750000  -0.4758591), wk =   0.0416667
        k(   45) = (   0.2500000  -0.5000000   0.0000000), wk =   0.0208333
        k(   46) = (   0.2500000  -0.5000000   0.1586197), wk =   0.0416667
        k(   47) = (   0.2500000  -0.5000000   0.3172394), wk =   0.0416667
        k(   48) = (   0.2500000  -0.5000000  -0.4758591), wk =   0.0208333
        k(   49) = (   0.3750000   0.3750000   0.0000000), wk =   0.0208333
        k(   50) = (   0.3750000   0.3750000   0.1586197), wk =   0.0416667
        k(   51) = (   0.3750000   0.3750000   0.3172394), wk =   0.0416667
        k(   52) = (   0.3750000   0.3750000  -0.4758591), wk =   0.0208333
        k(   53) = (   0.3750000  -0.5000000   0.0000000), wk =   0.0208333
        k(   54) = (   0.3750000  -0.5000000   0.1586197), wk =   0.0416667
        k(   55) = (   0.3750000  -0.5000000   0.3172394), wk =   0.0416667
        k(   56) = (   0.3750000  -0.5000000  -0.4758591), wk =   0.0208333
        k(   57) = (  -0.5000000  -0.5000000   0.0000000), wk =   0.0052083
        k(   58) = (  -0.5000000  -0.5000000   0.1586197), wk =   0.0104167
        k(   59) = (  -0.5000000  -0.5000000   0.3172394), wk =   0.0104167
        k(   60) = (  -0.5000000  -0.5000000  -0.4758591), wk =   0.0052083

     Dense  grid:    54933 G-vectors     FFT dimensions: (  48,  48,  50)

     Estimated max dynamical RAM per process >     355.81 MB

     Check: negative core charge=   -0.000003

     Initial potential from superposition of free atoms

     starting charge      42.9982, renormalised to      44.0000

     negative rho (up, down):  1.705E-02 0.000E+00
     Starting wfcs are   31 randomized atomic wfcs

     total cpu time spent up to now is       21.6 secs

     Self-consistent Calculation

     iteration #  1     ecut=   100.00 Ry     beta= 0.70
     CG style diagonalization
     ethr =  1.00E-02,  avg # of iterations =  2.1

     negative rho (up, down):  1.433E-02 0.000E+00

     total cpu time spent up to now is       63.1 secs

     total energy              =    -380.06219246 Ry
     estimated scf accuracy    <       1.02495201 Ry

     iteration #  2     ecut=   100.00 Ry     beta= 0.70
     CG style diagonalization
     ethr =  2.33E-03,  avg # of iterations =  4.8

     negative rho (up, down):  1.504E-02 0.000E+00

     total cpu time spent up to now is      140.1 secs

     total energy              =    -379.76729835 Ry
     estimated scf accuracy    <       3.87632161 Ry

     iteration #  3     ecut=   100.00 Ry     beta= 0.70
     CG style diagonalization
     ethr =  2.33E-03,  avg # of iterations =  4.4

     negative rho (up, down):  1.563E-02 0.000E+00

     total cpu time spent up to now is      210.9 secs

     total energy              =    -380.54787544 Ry
     estimated scf accuracy    <       0.25311389 Ry

     iteration #  4     ecut=   100.00 Ry     beta= 0.70
     CG style diagonalization
     ethr =  5.75E-04,  avg # of iterations =  3.4

     negative rho (up, down):  1.567E-02 0.000E+00

     total cpu time spent up to now is      265.2 secs

     total energy              =    -380.56071196 Ry
     estimated scf accuracy    <       0.05319987 Ry

     iteration #  5     ecut=   100.00 Ry     beta= 0.70
     CG style diagonalization
     ethr =  1.21E-04,  avg # of iterations =  3.8

     negative rho (up, down):  1.566E-02 0.000E+00

     total cpu time spent up to now is      326.0 secs

     total energy              =    -380.57567774 Ry
     estimated scf accuracy    <       0.00497240 Ry

     iteration #  6     ecut=   100.00 Ry     beta= 0.70
     CG style diagonalization
     ethr =  1.13E-05,  avg # of iterations =  4.1

     negative rho (up, down):  1.565E-02 0.000E+00

     total cpu time spent up to now is      392.6 secs

     total energy              =    -380.57763643 Ry
     estimated scf accuracy    <       0.00763239 Ry

     iteration #  7     ecut=   100.00 Ry     beta= 0.70
     CG style diagonalization
     ethr =  1.13E-05,  avg # of iterations =  3.2

     negative rho (up, down):  1.566E-02 0.000E+00

     total cpu time spent up to now is      443.0 secs

     total energy              =    -380.57707119 Ry
     estimated scf accuracy    <       0.00291074 Ry

     iteration #  8     ecut=   100.00 Ry     beta= 0.70
     CG style diagonalization
     ethr =  6.62E-06,  avg # of iterations =  3.6

     negative rho (up, down):  1.569E-02 0.000E+00

     total cpu time spent up to now is      499.8 secs

     total energy              =    -380.57764504 Ry
     estimated scf accuracy    <       0.00001191 Ry

     iteration #  9     ecut=   100.00 Ry     beta= 0.70
     CG style diagonalization
     c_bands:  1 eigenvalues not converged
     ethr =  2.71E-08,  avg # of iterations =  7.5

     negative rho (up, down):  1.572E-02 0.000E+00

     total cpu time spent up to now is      618.3 secs

     total energy              =    -380.57770482 Ry
     estimated scf accuracy    <       0.00001137 Ry

     iteration # 10     ecut=   100.00 Ry     beta= 0.70
     CG style diagonalization
     ethr =  2.58E-08,  avg # of iterations =  3.4

     negative rho (up, down):  1.580E-02 0.000E+00

     total cpu time spent up to now is      670.5 secs

     total energy              =    -380.57770319 Ry
     estimated scf accuracy    <       0.00000674 Ry

     iteration # 11     ecut=   100.00 Ry     beta= 0.70
     CG style diagonalization
     ethr =  1.53E-08,  avg # of iterations =  4.0

     negative rho (up, down):  1.580E-02 0.000E+00

     total cpu time spent up to now is      733.3 secs

     total energy              =    -380.57770476 Ry
     estimated scf accuracy    <       0.00000031 Ry

     iteration # 12     ecut=   100.00 Ry     beta= 0.70
     CG style diagonalization
     ethr =  7.11E-10,  avg # of iterations =  8.9

     negative rho (up, down):  1.581E-02 0.000E+00

     total cpu time spent up to now is      874.9 secs

     total energy              =    -380.57770622 Ry
     estimated scf accuracy    <       0.00000003 Ry

     iteration # 13     ecut=   100.00 Ry     beta= 0.70
     CG style diagonalization
     ethr =  7.82E-11,  avg # of iterations =  8.1

     negative rho (up, down):  1.581E-02 0.000E+00

     total cpu time spent up to now is     1004.1 secs

     End of self-consistent calculation

          k = 0.0000 0.0000 0.0000 (  6893 PWs)   bands (ev):

   -45.1690 -21.8498 -21.7663 -21.7663  -7.1654  -6.0127  -5.7578  -4.4140
    -4.4140  -4.3744  -4.2569  -4.1428   4.8409   6.7347   6.7347   7.1089
     8.7104   8.7104   8.9508   9.2864   9.4412   9.4412

          k = 0.0000 0.0000 0.1586 (  6889 PWs)   bands (ev):

   -45.1688 -21.8616 -21.7658 -21.7658  -7.0633  -5.9825  -5.7224  -4.4229
    -4.4229  -4.3736  -4.2506  -4.1807   4.3415   6.7643   6.7643   7.4258
     8.5677   8.5677   8.9087   9.1182   9.5100   9.5100

          k = 0.0000 0.0000 0.3172 (  6872 PWs)   bands (ev):

   -45.1684 -21.8850 -21.7649 -21.7649  -6.8470  -5.9178  -5.6554  -4.4406
    -4.4406  -4.3721  -4.2605  -4.2392   3.6850   6.8092   6.8092   6.9812
     8.3695   8.3695   8.8274   9.6008   9.6008   9.8986

          k = 0.0000 0.0000-0.4759 (  6872 PWs)   bands (ev):

   -45.1683 -21.8966 -21.7644 -21.7644  -6.7313  -5.8831  -5.6250  -4.4494
    -4.4494  -4.3714  -4.3029  -4.2341   3.4357   6.6060   6.8230   6.8230
     8.3004   8.3004   8.7881   9.6362   9.6362  10.6532

          k = 0.0000 0.1250 0.0000 (  6885 PWs)   bands (ev):

   -45.1687 -21.8494 -21.7783 -21.7658  -7.0814  -5.9927  -5.7395  -4.4290
    -4.4130  -4.3831  -4.2587  -4.1349   4.5311   6.7749   6.7979   7.1873
     8.6289   8.7251   8.9674   9.1951   9.2089   9.5383

          k = 0.0000 0.1250 0.1586 (  6874 PWs)   bands (ev):

   -45.1686 -21.8611 -21.7778 -21.7653  -6.9831  -5.9672  -5.7032  -4.4328
    -4.4221  -4.3825  -4.2537  -4.1622   4.1468   6.6958   6.8309   7.4663
     8.3826   8.5654   8.9715   9.0401   9.2970   9.6294

          k = 0.0000 0.1250 0.3172 (  6880 PWs)   bands (ev):

   -45.1682 -21.8844 -21.7768 -21.7644  -6.7781  -5.9131  -5.6311  -4.4402
    -4.4384  -4.3814  -4.2498  -4.2157   3.5777   6.5492   6.8810   7.1904
     8.1104   8.3641   9.0472   9.0659   9.3972  10.1611

          k = 0.0000 0.1250-0.4759 (  6884 PWs)   bands (ev):

   -45.1680 -21.8959 -21.7763 -21.7639  -6.6708  -5.8838  -5.5958  -4.4491
    -4.4410  -4.3808  -4.2567  -4.2359   3.3501   6.3584   6.8961   6.9952
     8.0620   8.2981   9.0530   9.1305   9.4341  10.6339

          k = 0.0000 0.2500 0.0000 (  6859 PWs)   bands (ev):

   -45.1682 -21.8482 -21.8069 -21.7646  -6.8679  -5.9439  -5.6998  -4.4583
    -4.4108  -4.4039  -4.2603  -4.1282   3.9997   6.7517   6.9713   7.0010
     8.6332   8.6486   8.8469   8.8730   9.2236   9.7266

          k = 0.0000 0.2500 0.1586 (  6858 PWs)   bands (ev):

   -45.1680 -21.8598 -21.8064 -21.7641  -6.7840  -5.9267  -5.6591  -4.4490
    -4.4203  -4.4038  -4.2551  -4.1334   3.7570   6.5839   7.0143   7.1705
     8.3006   8.4691   8.6668   8.9585   9.1635   9.9626

          k = 0.0000 0.2500 0.3172 (  6880 PWs)   bands (ev):

   -45.1677 -21.8828 -21.8052 -21.7631  -6.6224  -5.8839  -5.5675  -4.4392
    -4.4256  -4.4036  -4.2650  -4.1314   3.3405   6.3120   7.0772   7.1065
     7.8656   8.2551   8.2921   9.0499   9.4718  10.2438

          k = 0.0000 0.2500-0.4759 (  6876 PWs)   bands (ev):

   -45.1675 -21.8942 -21.8046 -21.7627  -6.5472  -5.8553  -5.5160  -4.4486
    -4.4131  -4.4035  -4.2755  -4.1274   3.1585   6.0988   6.9908   7.0935
     7.7231   8.2400   8.2461   9.0808   9.5642  10.3694

          k = 0.0000 0.3750 0.0000 (  6839 PWs)   bands (ev):

   -45.1676 -21.8471 -21.8353 -21.7634  -6.6354  -5.8851  -5.6790  -4.4824
    -4.4248  -4.4084  -4.2476  -4.1454   3.6264   6.2768   7.1729   7.2095
     8.1580   8.2144   8.7694   8.8661   9.3014  10.4979

          k = 0.0000 0.3750 0.1586 (  6844 PWs)   bands (ev):

   -45.1674 -21.8583 -21.8348 -21.7629  -6.5799  -5.8619  -5.6333  -4.4651
    -4.4251  -4.4183  -4.2309  -4.1347   3.4545   6.2477   7.1024   7.2728
     7.7902   8.1276   8.7705   8.8791   9.1458  10.4737

          k = 0.0000 0.3750 0.3172 (  6885 PWs)   bands (ev):

   -45.1671 -21.8811 -21.8335 -21.7619  -6.4972  -5.7986  -5.5111  -4.4382
    -4.4258  -4.4256  -4.2549  -4.0682   3.1401   6.1037   6.7859   7.3563
     7.5201   8.0346   8.0513   8.8966   9.6966  10.2251

          k = 0.0000 0.3750-0.4759 (  6864 PWs)   bands (ev):

   -45.1669 -21.8924 -21.8329 -21.7614  -6.4706  -5.7576  -5.4340  -4.4480
    -4.4259  -4.4018  -4.2802  -4.0299   2.9954   5.9233   6.6358   7.3641
     7.5354   7.7769   8.0377   8.9034   9.9228  10.0559

          k = 0.0000-0.5000 0.0000 (  6852 PWs)   bands (ev):

   -45.1674 -21.8475 -21.8461 -21.7629  -6.5322  -5.8483  -5.6866  -4.4917
    -4.4333  -4.4075  -4.2272  -4.1698   3.5042   6.0480   7.3627   7.3710
     7.8328   7.9735   8.7228   8.8894   9.3181  11.0153

          k = 0.0000-0.5000 0.1586 (  6844 PWs)   bands (ev):

   -45.1672 -21.8575 -21.8467 -21.7624  -6.4965  -5.8109  -5.6419  -4.4737
    -4.4337  -4.4176  -4.1903  -4.1653   3.3520   6.0403   7.2905   7.4137
     7.4730   7.8710   8.8383   8.8859   9.1040  10.7512

          k = 0.0000-0.5000 0.3172 (  6860 PWs)   bands (ev):

   -45.1669 -21.8803 -21.8453 -21.7614  -6.4590  -5.7323  -5.4992  -4.4377
    -4.4347  -4.4340  -4.2382  -4.0491   3.0702   5.9664   6.6948   7.2879
     7.6817   7.6890   8.1158   8.8807   9.6973  10.2522

          k = 0.0000-0.5000-0.4759 (  6884 PWs)   bands (ev):

   -45.1667 -21.8916 -21.8446 -21.7609  -6.4541  -5.6908  -5.4038  -4.4477
    -4.4351  -4.4098  -4.2684  -3.9947   2.9390   5.8360   6.4508   7.3316
     7.5938   7.8041   7.8243   8.8787   9.7930  10.1582

          k = 0.1250 0.1250 0.0000 (  6869 PWs)   bands (ev):

   -45.1685 -21.8489 -21.7779 -21.7776  -6.9981  -5.9723  -5.7287  -4.4312
    -4.4249  -4.3903  -4.2490  -4.1275   4.2962   6.7374   6.8800   7.2542
     8.3540   8.6521   8.9466   9.0351   9.4252   9.6232

          k = 0.1250 0.1250 0.1586 (  6868 PWs)   bands (ev):

   -45.1683 -21.8605 -21.7774 -21.7771  -6.9029  -5.9520  -5.6924  -4.4358
    -4.4274  -4.3898  -4.2436  -4.1462   4.0006   6.6811   6.7371   7.5056
     8.2441   8.4438   8.8351   9.1076   9.4375   9.6394

          k = 0.1250 0.1250 0.3172 (  6877 PWs)   bands (ev):

   -45.1680 -21.8837 -21.7763 -21.7761  -6.7071  -5.9100  -5.6174  -4.4554
    -4.4126  -4.3893  -4.2390  -4.1872   3.5125   6.5540   6.5952   7.2677
     8.1334   8.1712   8.8023   9.1672   9.4638  10.1461

          k = 0.1250 0.1250-0.4759 (  6890 PWs)   bands (ev):

   -45.1678 -21.8953 -21.7758 -21.7757  -6.6064  -5.8883  -5.5780  -4.4639
    -4.3993  -4.3905  -4.2410  -4.2098   3.3059   6.3769   6.4861   7.1644
     8.1082   8.1435   8.7943   9.1744   9.4801  10.5038

          k = 0.1250 0.2500 0.0000 (  6867 PWs)   bands (ev):

   -45.1679 -21.8477 -21.8063 -21.7765  -6.7871  -5.9232  -5.7075  -4.4594
    -4.4212  -4.3947  -4.2360  -4.1212   3.8466   6.6836   7.0387   7.0572
     8.1371   8.3299   8.8783   9.1070   9.3465   9.9281

          k = 0.1250 0.2500 0.1586 (  6872 PWs)   bands (ev):

   -45.1678 -21.8592 -21.8058 -21.7760  -6.7040  -5.9130  -5.6694  -4.4501
    -4.4276  -4.3906  -4.2281  -4.1200   3.6800   6.5558   6.7097   7.2854
     7.9455   8.2879   8.8474   9.1201   9.2811   9.9742

          k = 0.1250 0.2500 0.3172 (  6879 PWs)   bands (ev):

   -45.1674 -21.8822 -21.8047 -21.7749  -6.5455  -5.8881  -5.5801  -4.4505
    -4.4153  -4.3750  -4.2296  -4.1132   3.3511   6.2648   6.6144   7.0589
     7.6005   8.0641   8.8147   9.1553   9.5194  10.0926

          k = 0.1250 0.2500-0.4759 (  6858 PWs)   bands (ev):

   -45.1673 -21.8936 -21.8041 -21.7744  -6.4727  -5.8720  -5.5271  -4.4550
    -4.4061  -4.3564  -4.2407  -4.1089   3.1940   6.0780   6.5376   6.9052
     7.5546   8.0221   8.7529   9.1977   9.6142  10.1239

          k = 0.1250 0.3750 0.0000 (  6851 PWs)   bands (ev):

   -45.1674 -21.8465 -21.8346 -21.7752  -6.5583  -5.8663  -5.7049  -4.4766
    -4.4133  -4.3899  -4.2240  -4.1384   3.5056   6.2823   7.0434   7.3241
     7.7205   8.2844   8.5447   9.0800   9.4017  10.4715

          k = 0.1250 0.3750 0.1586 (  6859 PWs)   bands (ev):

   -45.1672 -21.8578 -21.8342 -21.7747  -6.5003  -5.8534  -5.6644  -4.4613
    -4.4188  -4.3822  -4.2058  -4.1209   3.4102   6.2476   6.6706   7.1975
     7.6658   8.3162   8.5732   9.1138   9.2782  10.3276

          k = 0.1250 0.3750 0.3172 (  6874 PWs)   bands (ev):

   -45.1669 -21.8805 -21.8329 -21.7737  -6.4161  -5.8136  -5.5508  -4.4466
    -4.4094  -4.3618  -4.2148  -4.0527   3.1991   6.0754   6.4795   6.8301
     7.1303   8.1781   8.7807   8.9315   9.6564   9.9916

          k = 0.1250 0.3750-0.4759 (  6852 PWs)   bands (ev):

   -45.1667 -21.8918 -21.8323 -21.7732  -6.3907  -5.7871  -5.4762  -4.4482
    -4.3960  -4.3414  -4.2343  -4.0145   3.0879   5.8875   6.4804   6.7236
     6.8638   8.1253   8.8615   8.8770   9.5760  10.0367

          k = 0.1250-0.5000 0.0000 (  6862 PWs)   bands (ev):

   -45.1672 -21.8468 -21.8455 -21.7747  -6.4568  -5.8301  -5.7208  -4.4800
    -4.4100  -4.3855  -4.2076  -4.1633   3.3896   6.0592   7.1340   7.5178
     7.5628   7.9628   8.5766   9.0532   9.4199  10.7873

          k = 0.1250-0.5000 0.1586 (  6864 PWs)   bands (ev):

   -45.1670 -21.8570 -21.8461 -21.7742  -6.4172  -5.8042  -5.6832  -4.4630
    -4.4146  -4.3787  -4.1730  -4.1484   3.3150   6.0483   6.6655   7.1610
     7.7005   8.1537   8.5441   9.1410   9.2544  10.4694

          k = 0.1250-0.5000 0.3172 (  6862 PWs)   bands (ev):

   -45.1667 -21.8797 -21.8447 -21.7731  -6.3780  -5.7519  -5.5505  -4.4457
    -4.3978  -4.3665  -4.2009  -4.0339   3.1438   5.9588   6.4510   6.5699
     7.1600   8.3122   8.5669   8.9669   9.5715  10.0151

          k = 0.1250-0.5000-0.4759 (  6864 PWs)   bands (ev):

   -45.1665 -21.8910 -21.8440 -21.7726  -6.3744  -5.7256  -5.4594  -4.4466
    -4.3719  -4.3593  -4.2225  -3.9795   3.0503   5.8131   6.3843   6.4590
     6.8885   8.2410   8.6877   8.9079   9.3400  10.1635

          k = 0.2500 0.2500 0.0000 (  6846 PWs)   bands (ev):

   -45.1674 -21.8465 -21.8051 -21.8047  -6.5860  -5.8738  -5.7276  -4.4585
    -4.4245  -4.3699  -4.1918  -4.1147   3.5104   6.6331   6.8804   7.2260
     7.6793   7.9094   8.7614   9.1655   9.5319  10.1488

          k = 0.2500 0.2500 0.1586 (  6880 PWs)   bands (ev):

   -45.1672 -21.8579 -21.8046 -21.8042  -6.5071  -5.8792  -5.6954  -4.4425
    -4.4286  -4.3568  -4.1776  -4.0974   3.4761   6.4303   6.5042   7.0038
     7.6763   7.9249   9.0045   9.1540   9.5625   9.9623

          k = 0.2500 0.2500 0.3172 (  6859 PWs)   bands (ev):

   -45.1669 -21.8807 -21.8034 -21.8032  -6.3654  -5.8903  -5.6064  -4.4318
    -4.4102  -4.3191  -4.1570  -4.0673   3.3539   6.0466   6.1940   6.7357
     7.3795   7.5332   9.1961   9.4735   9.6728   9.7007

          k = 0.2500 0.2500-0.4759 (  6884 PWs)   bands (ev):

   -45.1667 -21.8920 -21.8028 -21.8027  -6.3056  -5.8960  -5.5460  -4.4313
    -4.3965  -4.2874  -4.1554  -4.0541   3.2696   5.8739   6.1500   6.4641
     7.2391   7.5055   9.1558   9.5228   9.5668   9.7976

          k = 0.2500 0.3750 0.0000 (  6849 PWs)   bands (ev):

   -45.1668 -21.8453 -21.8330 -21.8035  -6.3755  -5.8220  -5.7531  -4.4565
    -4.4083  -4.3266  -4.1611  -4.1302   3.2186   6.2997   6.8019   7.3032
     7.4759   7.9575   8.3219   9.2028   9.6586  10.2273

          k = 0.2500 0.3750 0.1586 (  6853 PWs)   bands (ev):

   -45.1667 -21.8565 -21.8326 -21.8030  -6.3082  -5.8339  -5.7294  -4.4376
    -4.4067  -4.3030  -4.1415  -4.0947   3.2666   6.2184   6.3856   6.6788
     7.4135   8.0306   8.7921   9.2039   9.6814   9.8936

          k = 0.2500 0.3750 0.3172 (  6857 PWs)   bands (ev):

   -45.1663 -21.8791 -21.8315 -21.8019  -6.2175  -5.8487  -5.6355  -4.4139
    -4.3849  -4.2568  -4.1109  -4.0162   3.3267   5.8511   5.9227   6.3934
     6.9639   7.5254   8.9274   9.5123   9.6084   9.8630

          k = 0.2500 0.3750-0.4759 (  6868 PWs)   bands (ev):

   -45.1662 -21.8904 -21.8309 -21.8014  -6.1959  -5.8532  -5.5620  -4.4096
    -4.3653  -4.2286  -4.1002  -3.9762   3.3307   5.6882   5.7905   6.2520
     6.6920   7.4349   8.6007   9.5655   9.6557  10.0585

          k = 0.2500-0.5000 0.0000 (  6878 PWs)   bands (ev):

   -45.1666 -21.8451 -21.8443 -21.8029  -6.2855  -5.7883  -5.7765  -4.4538
    -4.4000  -4.2927  -4.1574  -4.1461   3.1106   6.0795   6.8939   7.0879
     7.7320   7.9581   8.0518   9.2520   9.6530  10.2348

          k = 0.2500-0.5000 0.1586 (  6864 PWs)   bands (ev):

   -45.1664 -21.8557 -21.8445 -21.8024  -6.2282  -5.7912  -5.7631  -4.4342
    -4.3966  -4.2627  -4.1391  -4.0999   3.1833   6.0647   6.3074   6.6147
     7.3751   8.1596   8.6018   9.2476   9.6637   9.8360

          k = 0.2500-0.5000 0.3172 (  6850 PWs)   bands (ev):

   -45.1661 -21.8783 -21.8432 -21.8014  -6.1780  -5.7982  -5.6566  -4.4090
    -4.3701  -4.2181  -4.1053  -3.9941   3.3102   5.7324   5.8970   6.1505
     6.9035   7.6022   8.6320   9.5363   9.5892   9.9298

          k = 0.2500-0.5000-0.4759 (  6856 PWs)   bands (ev):

   -45.1660 -21.8896 -21.8426 -21.8009  -6.1793  -5.8021  -5.5703  -4.4037
    -4.3470  -4.1962  -4.0896  -3.9402   3.3544   5.6144   5.6727   6.0533
     6.6096   7.4998   8.2124   9.6084   9.6406  10.1797

          k = 0.3750 0.3750 0.0000 (  6882 PWs)   bands (ev):

   -45.1663 -21.8441 -21.8317 -21.8313  -6.2126  -5.7756  -5.7721  -4.4411
    -4.3772  -4.2626  -4.1434  -4.0966   2.9436   6.2022   6.4562   7.3421
     7.5722   7.6844   8.1769   8.9837   9.7786  10.0638

          k = 0.3750 0.3750 0.1586 (  6861 PWs)   bands (ev):

   -45.1661 -21.8551 -21.8311 -21.8311  -6.1276  -5.8086  -5.7779  -4.4191
    -4.3717  -4.2195  -4.0915  -4.0718   3.0831   6.1418   6.2577   6.4153
     6.9524   8.0214   8.8802   9.0414   9.3525  10.0636

          k = 0.3750 0.3750 0.3172 (  6834 PWs)   bands (ev):

   -45.1658 -21.8776 -21.8301 -21.8301  -6.0237  -5.8695  -5.7128  -4.3749
    -4.3635  -4.1433  -4.0091  -3.9888   3.4064   5.5713   5.6963   6.1251
     6.7591   7.1005   8.1222   9.7855   9.8289  10.0668

          k = 0.3750 0.3750-0.4759 (  6868 PWs)   bands (ev):

   -45.1656 -21.8888 -21.8296 -21.8295  -6.0133  -5.8979  -5.6338  -4.3601
    -4.3529  -4.1065  -3.9731  -3.9383   3.5935   5.3444   5.4429   6.0021
     6.7158   6.7383   7.6138  10.0143  10.0398  10.1144

          k = 0.3750-0.5000 0.0000 (  6864 PWs)   bands (ev):

   -45.1661 -21.8435 -21.8431 -21.8308  -6.1599  -5.7686  -5.7502  -4.4354
    -4.3576  -4.2173  -4.1693  -4.0727   2.8342   6.0203   6.4576   7.2603
     7.5876   7.8901   7.9627   8.9362   9.5340  10.1938

          k = 0.3750-0.5000 0.1586 (  6848 PWs)   bands (ev):

   -45.1659 -21.8543 -21.8429 -21.8305  -6.0658  -5.7980  -5.7827  -4.4132
    -4.3521  -4.1578  -4.1157  -4.0457   2.9998   6.0021   6.2997   6.3353
     6.8133   8.1023   8.7014   9.0921   9.0955  10.1841

          k = 0.3750-0.5000 0.3172 (  6852 PWs)   bands (ev):

   -45.1656 -21.8768 -21.8418 -21.8295  -5.9681  -5.8427  -5.7517  -4.3698
    -4.3434  -4.0728  -4.0082  -3.9582   3.4157   5.5151   5.6758   5.9459
     6.6033   7.1358   7.6730   9.8297   9.8720  10.1746

          k = 0.3750-0.5000-0.4759 (  6856 PWs)   bands (ev):

   -45.1654 -21.8881 -21.8412 -21.8290  -5.9805  -5.8706  -5.6613  -4.3520
    -4.3360  -4.0399  -3.9548  -3.9028   3.6978   5.2236   5.4016   5.8569
     6.5312   6.8045   7.0616  10.0681  10.1590  10.1986

          k =-0.5000-0.5000 0.0000 (  6848 PWs)   bands (ev):

   -45.1658 -21.8428 -21.8428 -21.8421  -6.1335  -5.7356  -5.7356  -4.4291
    -4.3261  -4.1846  -4.1846  -4.0438   2.7215   5.9082   6.3875   7.4008
     7.4008   7.9605   7.9605   8.7993   9.2327  10.3505

          k =-0.5000-0.5000 0.1586 (  6852 PWs)   bands (ev):

   -45.1657 -21.8535 -21.8423 -21.8423  -6.0266  -5.7804  -5.7804  -4.4069
    -4.3251  -4.1098  -4.1098  -4.0277   2.9124   5.8905   6.3908   6.4450
     6.4450   8.1270   8.5105   8.9832   8.9832  10.3416

          k =-0.5000-0.5000 0.3172 (  6840 PWs)   bands (ev):

   -45.1653 -21.8761 -21.8412 -21.8412  -5.8607  -5.8607  -5.8074  -4.3624
    -4.3229  -3.9880  -3.9676  -3.9676   3.4219   5.6139   5.6139   5.8227
     6.3975   7.0770   7.1624   9.8962   9.8962  10.3240

          k =-0.5000-0.5000-0.4759 (  6848 PWs)   bands (ev):

   -45.1652 -21.8874 -21.8406 -21.8406  -5.8971  -5.8971  -5.6955  -4.3402
    -4.3218  -3.9631  -3.8991  -3.8991   3.8154   5.3126   5.3126   5.7451
     6.4008   6.4173   6.6679  10.2038  10.2038  10.3152

     highest occupied level (ev):    11.0153

!    total energy              =    -380.57770635 Ry
     estimated scf accuracy    <          5.3E-09 Ry

     The total energy is the sum of the following terms:
     one-electron contribution =     -79.71273933 Ry
     hartree contribution      =      69.93392140 Ry
     xc contribution           =    -102.67739034 Ry
     ewald contribution        =    -268.12149809 Ry

     convergence has been achieved in  13 iterations

     negative rho (up, down):  1.581E-02 0.000E+00

     Forces acting on atoms (cartesian axes, Ry/au):

     atom    1 type  1   force =     0.00000000    0.00000000    0.00009564
     atom    2 type  2   force =     0.00000000    0.00000000    0.00036278
     atom    3 type  3   force =     0.00000000    0.00000000   -0.00021745
     atom    4 type  3   force =     0.00000000    0.00000000   -0.00012048
     atom    5 type  3   force =     0.00000000    0.00000000   -0.00012048

     Total force =     0.000466     Total SCF correction =     0.000139
     SCF correction compared to forces is large: reduce conv_thr to get better values


     Computing stress (Cartesian axis) and pressure


     negative rho (up, down):  1.581E-02 0.000E+00
          total   stress  (Ry/bohr**3)                   (kbar)     P=        1.42
   0.00001208   0.00000000   0.00000000            1.78        0.00        0.00
   0.00000000   0.00001208   0.00000000            0.00        1.78        0.00
   0.00000000   0.00000000   0.00000488            0.00        0.00        0.72


     Writing all to output data dir ./pto_ener.save/
 
     init_run     :     19.01s CPU     19.78s WALL (       1 calls)
     electrons    :    950.75s CPU    982.53s WALL (       1 calls)
     forces       :      3.50s CPU      3.67s WALL (       1 calls)
     stress       :     23.85s CPU     24.14s WALL (       1 calls)

     Called by init_run:
     wfcinit      :     14.59s CPU     15.03s WALL (       1 calls)
     potinit      :      0.10s CPU      0.13s WALL (       1 calls)
     hinit0       :      3.58s CPU      3.68s WALL (       1 calls)

     Called by electrons:
     c_bands      :    871.33s CPU    899.93s WALL (      13 calls)
     sum_band     :     71.35s CPU     73.38s WALL (      13 calls)
     v_of_rho     :      0.39s CPU      0.44s WALL (      14 calls)
     newd         :      7.99s CPU      9.11s WALL (      14 calls)
     mix_rho      :      0.22s CPU      0.25s WALL (      13 calls)

     Called by c_bands:
     init_us_2    :     21.68s CPU     21.83s WALL (    1740 calls)
     init_us_2:cp :     21.62s CPU     21.79s WALL (    1740 calls)
     ccgdiagg     :    760.88s CPU    786.18s WALL (     780 calls)
     wfcrot       :    111.34s CPU    113.34s WALL (     780 calls)

     Called by *cgdiagg:
     h_psi        :    592.53s CPU    608.13s WALL (   66059 calls)
     s_psi        :    143.63s CPU    151.18s WALL (  131338 calls)

     Called by h_psi:
     h_psi:calbec :     74.87s CPU     77.30s WALL (   66059 calls)
     vloc_psi     :    437.21s CPU    447.62s WALL (   66059 calls)
     add_vuspsi   :     74.26s CPU     77.76s WALL (   66059 calls)
     hs_1psi      :    567.34s CPU    583.74s WALL (   65279 calls)
     s_1psi       :    144.31s CPU    149.50s WALL (   65279 calls)

     General routines
     calbec       :    145.50s CPU    153.03s WALL (  132418 calls)
     fft          :      0.14s CPU      0.17s WALL (      64 calls)
     ffts         :      0.03s CPU      0.03s WALL (      13 calls)
     fftw         :    399.32s CPU    407.35s WALL (  183118 calls)
 
     Parallel routines
 
     PWSCF        :  16m38.68s CPU  17m14.52s WALL

 
   This run was terminated on:  13:58: 7  10Apr2022            

=------------------------------------------------------------------------------=
   JOB DONE.
=------------------------------------------------------------------------------=
