
     Program PWSCF v.7.0 starts on 10Apr2022 at 13:41: 5 

     This program is part of the open-source Quantum ESPRESSO suite
     for quantum simulation of materials; please cite
         "P. Giannozzi et al., J. Phys.:Condens. Matter 21 395502 (2009);
         "P. Giannozzi et al., J. Phys.:Condens. Matter 29 465901 (2017);
         "P. Giannozzi et al., J. Chem. Phys. 152 154105 (2020);
          URL http://www.quantum-espresso.org", 
     in publications or presentations arising from this work. More details at
     http://www.quantum-espresso.org/quote

     Parallel version (MPI), running on     1 processors

     MPI processes distributed on     1 nodes
     90968 MiB available memory on the printing compute node when the environment starts
 
     Waiting for input...
     Reading input from standard input
Warning: card &CELL ignored
Warning: card  CELL_DYNAMICS = 'BFGS', ignored
Warning: card  PRESS=0.1D0, ignored
Warning: card / ignored

     Current dimensions of program PWSCF are:
     Max number of different atomic species (ntypx) = 10
     Max number of k-points (npk) =  40000
     Max angular momentum in pseudopotentials (lmaxx) =  4
     Message from routine setup:
     using ibrav=0 with symmetry is DISCOURAGED, use correct ibrav instead

     Subspace diagonalization in iterative solution of the eigenvalue problem:
     a serial algorithm will be used

 
     G-vector sticks info
     --------------------
     sticks:   dense  smooth     PW     G-vecs:    dense   smooth      PW
     Sum        1685    1685    489                54933    54933    8379
 
     Using Slab Decomposition
 


     bravais-lattice index     =            0
     lattice parameter (alat)  =       7.2864  a.u.
     unit-cell volume          =     406.4772 (a.u.)^3
     number of atoms/cell      =            5
     number of atomic types    =            3
     number of electrons       =        44.00
     number of Kohn-Sham states=           22
     kinetic-energy cutoff     =     100.0000  Ry
     charge density cutoff     =     400.0000  Ry
     scf convergence threshold =      1.0E-08
     mixing beta               =       0.7000
     number of iterations used =            8  plain     mixing
     Exchange-correlation= SLA  PZ   NOGX NOGC
                           (   1   1   0   0   0   0   0)

     celldm(1)=   7.286431  celldm(2)=   0.000000  celldm(3)=   0.000000
     celldm(4)=   0.000000  celldm(5)=   0.000000  celldm(6)=   0.000000

     crystal axes: (cart. coord. in units of alat)
               a(1) = (   1.000000   0.000000   0.000000 )  
               a(2) = (   0.000000   1.000000   0.000000 )  
               a(3) = (   0.000000   0.000000   1.050731 )  

     reciprocal axes: (cart. coord. in units 2 pi/alat)
               b(1) = (  1.000000  0.000000  0.000000 )  
               b(2) = (  0.000000  1.000000  0.000000 )  
               b(3) = (  0.000000  0.000000  0.951718 )  


     PseudoPot. # 1 for Pb read from file:
     ./Pb_LDA.UPF
     MD5 check sum: 062a37469794d955244864f8fe2e5624
     Pseudo is Ultrasoft + core correction, Zval = 14.0
     Generated by new atomic code, or converted to UPF format
     Using radial grid of  899 points,  6 beta functions with: 
                l(1) =   0
                l(2) =   0
                l(3) =   1
                l(4) =   1
                l(5) =   2
                l(6) =   2
     Q(r) pseudized with  6 coefficients,  rinner =    1.000   1.000   1.000
                                                       1.000   1.000

     PseudoPot. # 2 for Ti read from file:
     ./Ti_LDA.UPF
     MD5 check sum: 0d9f225c038fe889ca2a701dcc8d72cb
     Pseudo is Ultrasoft + core correction, Zval = 12.0
     Generated by new atomic code, or converted to UPF format
     Using radial grid of  851 points,  6 beta functions with: 
                l(1) =   0
                l(2) =   0
                l(3) =   1
                l(4) =   1
                l(5) =   2
                l(6) =   2
     Q(r) pseudized with  6 coefficients,  rinner =    1.000   1.000   1.000
                                                       1.000   1.000

     PseudoPot. # 3 for O  read from file:
     ./O_LDA.UPF
     MD5 check sum: 194b818514d2a7dbb603bb78519a4f40
     Pseudo is Ultrasoft + core correction, Zval =  6.0
     Generated by new atomic code, or converted to UPF format
     Using radial grid of  737 points,  5 beta functions with: 
                l(1) =   0
                l(2) =   0
                l(3) =   1
                l(4) =   1
                l(5) =   2
     Q(r) pseudized with  8 coefficients,  rinner =    0.900   0.900   0.900
                                                       0.900   0.900

     atomic species   valence    mass     pseudopotential
        Pb            14.00   207.20000     Pb( 1.00)
        Ti            12.00    47.88000     Ti( 1.00)
        O              6.00    16.00000     O ( 1.00)

      8 Sym. Ops. (no inversion) found



   Cartesian axes

     site n.     atom                  positions (alat units)
         1           Pb  tau(   1) = (   0.0000000   0.0000000   1.0561849  )
         2           Ti  tau(   2) = (   0.5000000   0.5000000   0.5668825  )
         3           O   tau(   3) = (   0.5000000   0.5000000   0.1045254  )
         4           O   tau(   4) = (   0.5000000   0.0000000   0.6425761  )
         5           O   tau(   5) = (   0.0000000   0.5000000   0.6425761  )

     number of k points=    63
                       cart. coord. in units 2pi/alat
        k(    1) = (   0.0000000   0.0000000   0.0000000), wk =   0.0040000
        k(    2) = (   0.0000000   0.0000000   0.1903436), wk =   0.0080000
        k(    3) = (   0.0000000   0.0000000   0.3806873), wk =   0.0080000
        k(    4) = (   0.0000000   0.1000000   0.0000000), wk =   0.0160000
        k(    5) = (   0.0000000   0.1000000   0.1903436), wk =   0.0320000
        k(    6) = (   0.0000000   0.1000000   0.3806873), wk =   0.0320000
        k(    7) = (   0.0000000   0.2000000   0.0000000), wk =   0.0160000
        k(    8) = (   0.0000000   0.2000000   0.1903436), wk =   0.0320000
        k(    9) = (   0.0000000   0.2000000   0.3806873), wk =   0.0320000
        k(   10) = (   0.0000000   0.3000000   0.0000000), wk =   0.0160000
        k(   11) = (   0.0000000   0.3000000   0.1903436), wk =   0.0320000
        k(   12) = (   0.0000000   0.3000000   0.3806873), wk =   0.0320000
        k(   13) = (   0.0000000   0.4000000   0.0000000), wk =   0.0160000
        k(   14) = (   0.0000000   0.4000000   0.1903436), wk =   0.0320000
        k(   15) = (   0.0000000   0.4000000   0.3806873), wk =   0.0320000
        k(   16) = (   0.0000000  -0.5000000   0.0000000), wk =   0.0080000
        k(   17) = (   0.0000000  -0.5000000   0.1903436), wk =   0.0160000
        k(   18) = (   0.0000000  -0.5000000   0.3806873), wk =   0.0160000
        k(   19) = (   0.1000000   0.1000000   0.0000000), wk =   0.0160000
        k(   20) = (   0.1000000   0.1000000   0.1903436), wk =   0.0320000
        k(   21) = (   0.1000000   0.1000000   0.3806873), wk =   0.0320000
        k(   22) = (   0.1000000   0.2000000   0.0000000), wk =   0.0320000
        k(   23) = (   0.1000000   0.2000000   0.1903436), wk =   0.0640000
        k(   24) = (   0.1000000   0.2000000   0.3806873), wk =   0.0640000
        k(   25) = (   0.1000000   0.3000000   0.0000000), wk =   0.0320000
        k(   26) = (   0.1000000   0.3000000   0.1903436), wk =   0.0640000
        k(   27) = (   0.1000000   0.3000000   0.3806873), wk =   0.0640000
        k(   28) = (   0.1000000   0.4000000   0.0000000), wk =   0.0320000
        k(   29) = (   0.1000000   0.4000000   0.1903436), wk =   0.0640000
        k(   30) = (   0.1000000   0.4000000   0.3806873), wk =   0.0640000
        k(   31) = (   0.1000000  -0.5000000   0.0000000), wk =   0.0160000
        k(   32) = (   0.1000000  -0.5000000   0.1903436), wk =   0.0320000
        k(   33) = (   0.1000000  -0.5000000   0.3806873), wk =   0.0320000
        k(   34) = (   0.2000000   0.2000000   0.0000000), wk =   0.0160000
        k(   35) = (   0.2000000   0.2000000   0.1903436), wk =   0.0320000
        k(   36) = (   0.2000000   0.2000000   0.3806873), wk =   0.0320000
        k(   37) = (   0.2000000   0.3000000   0.0000000), wk =   0.0320000
        k(   38) = (   0.2000000   0.3000000   0.1903436), wk =   0.0640000
        k(   39) = (   0.2000000   0.3000000   0.3806873), wk =   0.0640000
        k(   40) = (   0.2000000   0.4000000   0.0000000), wk =   0.0320000
        k(   41) = (   0.2000000   0.4000000   0.1903436), wk =   0.0640000
        k(   42) = (   0.2000000   0.4000000   0.3806873), wk =   0.0640000
        k(   43) = (   0.2000000  -0.5000000   0.0000000), wk =   0.0160000
        k(   44) = (   0.2000000  -0.5000000   0.1903436), wk =   0.0320000
        k(   45) = (   0.2000000  -0.5000000   0.3806873), wk =   0.0320000
        k(   46) = (   0.3000000   0.3000000   0.0000000), wk =   0.0160000
        k(   47) = (   0.3000000   0.3000000   0.1903436), wk =   0.0320000
        k(   48) = (   0.3000000   0.3000000   0.3806873), wk =   0.0320000
        k(   49) = (   0.3000000   0.4000000   0.0000000), wk =   0.0320000
        k(   50) = (   0.3000000   0.4000000   0.1903436), wk =   0.0640000
        k(   51) = (   0.3000000   0.4000000   0.3806873), wk =   0.0640000
        k(   52) = (   0.3000000  -0.5000000   0.0000000), wk =   0.0160000
        k(   53) = (   0.3000000  -0.5000000   0.1903436), wk =   0.0320000
        k(   54) = (   0.3000000  -0.5000000   0.3806873), wk =   0.0320000
        k(   55) = (   0.4000000   0.4000000   0.0000000), wk =   0.0160000
        k(   56) = (   0.4000000   0.4000000   0.1903436), wk =   0.0320000
        k(   57) = (   0.4000000   0.4000000   0.3806873), wk =   0.0320000
        k(   58) = (   0.4000000  -0.5000000   0.0000000), wk =   0.0160000
        k(   59) = (   0.4000000  -0.5000000   0.1903436), wk =   0.0320000
        k(   60) = (   0.4000000  -0.5000000   0.3806873), wk =   0.0320000
        k(   61) = (  -0.5000000  -0.5000000   0.0000000), wk =   0.0040000
        k(   62) = (  -0.5000000  -0.5000000   0.1903436), wk =   0.0080000
        k(   63) = (  -0.5000000  -0.5000000   0.3806873), wk =   0.0080000

     Dense  grid:    54933 G-vectors     FFT dimensions: (  48,  48,  50)

     Estimated max dynamical RAM per process >     362.72 MB

     Check: negative core charge=   -0.000003

     Initial potential from superposition of free atoms

     starting charge      42.9982, renormalised to      44.0000

     negative rho (up, down):  1.705E-02 0.000E+00
     Starting wfcs are   31 randomized atomic wfcs

     total cpu time spent up to now is       22.2 secs

     Self-consistent Calculation

     iteration #  1     ecut=   100.00 Ry     beta= 0.70
     CG style diagonalization
     ethr =  1.00E-02,  avg # of iterations =  2.1

     negative rho (up, down):  1.433E-02 0.000E+00

     total cpu time spent up to now is       64.8 secs

     total energy              =    -380.06069256 Ry
     estimated scf accuracy    <       1.02663846 Ry

     iteration #  2     ecut=   100.00 Ry     beta= 0.70
     CG style diagonalization
     ethr =  2.33E-03,  avg # of iterations =  4.8

     negative rho (up, down):  1.504E-02 0.000E+00

     total cpu time spent up to now is      145.3 secs

     total energy              =    -379.76592636 Ry
     estimated scf accuracy    <       3.88429571 Ry

     iteration #  3     ecut=   100.00 Ry     beta= 0.70
     CG style diagonalization
     ethr =  2.33E-03,  avg # of iterations =  4.4

     negative rho (up, down):  1.563E-02 0.000E+00

     total cpu time spent up to now is      218.5 secs

     total energy              =    -380.54753170 Ry
     estimated scf accuracy    <       0.25049544 Ry

     iteration #  4     ecut=   100.00 Ry     beta= 0.70
     CG style diagonalization
     ethr =  5.69E-04,  avg # of iterations =  3.4

     negative rho (up, down):  1.566E-02 0.000E+00

     total cpu time spent up to now is      274.7 secs

     total energy              =    -380.56072085 Ry
     estimated scf accuracy    <       0.05207641 Ry

     iteration #  5     ecut=   100.00 Ry     beta= 0.70
     CG style diagonalization
     ethr =  1.18E-04,  avg # of iterations =  3.8

     negative rho (up, down):  1.566E-02 0.000E+00

     total cpu time spent up to now is      337.1 secs

     total energy              =    -380.57603207 Ry
     estimated scf accuracy    <       0.00486526 Ry

     iteration #  6     ecut=   100.00 Ry     beta= 0.70
     CG style diagonalization
     ethr =  1.11E-05,  avg # of iterations =  4.0

     negative rho (up, down):  1.565E-02 0.000E+00

     total cpu time spent up to now is      403.9 secs

     total energy              =    -380.57760490 Ry
     estimated scf accuracy    <       0.00714115 Ry

     iteration #  7     ecut=   100.00 Ry     beta= 0.70
     CG style diagonalization
     ethr =  1.11E-05,  avg # of iterations =  3.2

     negative rho (up, down):  1.566E-02 0.000E+00

     total cpu time spent up to now is      455.8 secs

     total energy              =    -380.57707212 Ry
     estimated scf accuracy    <       0.00276983 Ry

     iteration #  8     ecut=   100.00 Ry     beta= 0.70
     CG style diagonalization
     ethr =  6.30E-06,  avg # of iterations =  3.6

     negative rho (up, down):  1.569E-02 0.000E+00

     total cpu time spent up to now is      514.7 secs

     total energy              =    -380.57762874 Ry
     estimated scf accuracy    <       0.00001338 Ry

     iteration #  9     ecut=   100.00 Ry     beta= 0.70
     CG style diagonalization
     c_bands:  1 eigenvalues not converged
     c_bands:  1 eigenvalues not converged
     c_bands:  1 eigenvalues not converged
     ethr =  3.04E-08,  avg # of iterations =  7.3

     negative rho (up, down):  1.572E-02 0.000E+00

     total cpu time spent up to now is      634.1 secs

     total energy              =    -380.57768764 Ry
     estimated scf accuracy    <       0.00001258 Ry

     iteration # 10     ecut=   100.00 Ry     beta= 0.70
     CG style diagonalization
     ethr =  2.86E-08,  avg # of iterations =  3.4

     negative rho (up, down):  1.580E-02 0.000E+00

     total cpu time spent up to now is      688.5 secs

     total energy              =    -380.57768581 Ry
     estimated scf accuracy    <       0.00000826 Ry

     iteration # 11     ecut=   100.00 Ry     beta= 0.70
     CG style diagonalization
     ethr =  1.88E-08,  avg # of iterations =  3.9

     negative rho (up, down):  1.580E-02 0.000E+00

     total cpu time spent up to now is      752.1 secs

     total energy              =    -380.57768766 Ry
     estimated scf accuracy    <       0.00000030 Ry

     iteration # 12     ecut=   100.00 Ry     beta= 0.70
     CG style diagonalization
     c_bands:  1 eigenvalues not converged
     ethr =  6.88E-10,  avg # of iterations =  9.4

     negative rho (up, down):  1.580E-02 0.000E+00

     total cpu time spent up to now is      905.4 secs

     total energy              =    -380.57768927 Ry
     estimated scf accuracy    <       0.00000008 Ry

     iteration # 13     ecut=   100.00 Ry     beta= 0.70
     CG style diagonalization
     ethr =  1.74E-10,  avg # of iterations =  6.2

     negative rho (up, down):  1.581E-02 0.000E+00

     total cpu time spent up to now is     1006.7 secs

     total energy              =    -380.57768937 Ry
     estimated scf accuracy    <       0.00000002 Ry

     iteration # 14     ecut=   100.00 Ry     beta= 0.70
     CG style diagonalization
     ethr =  3.59E-11,  avg # of iterations =  6.6

     negative rho (up, down):  1.581E-02 0.000E+00

     total cpu time spent up to now is     1114.7 secs

     End of self-consistent calculation

          k = 0.0000 0.0000 0.0000 (  6893 PWs)   bands (ev):

   -45.1693 -21.8503 -21.7667 -21.7667  -7.1655  -6.0130  -5.7577  -4.4138
    -4.4138  -4.3743  -4.2567  -4.1428   4.8409   6.7345   6.7345   7.1088
     8.7104   8.7104   8.9505   9.2866   9.4409   9.4409

          k = 0.0000 0.0000 0.1903 (  6876 PWs)   bands (ev):

   -45.1691 -21.8665 -21.7660 -21.7660  -7.0235  -5.9708  -5.7090  -4.4261
    -4.4261  -4.3733  -4.2482  -4.1955   4.1923   6.7743   6.7743   7.4188
     8.5224   8.5224   8.8925   9.1733   9.5304   9.5304

          k = 0.0000 0.0000 0.3807 (  6856 PWs)   bands (ev):

   -45.1687 -21.8926 -21.7650 -21.7650  -6.7764  -5.8968  -5.6362  -4.4459
    -4.4459  -4.3716  -4.2865  -4.2358   3.5265   6.7520   6.8184   6.8184
     8.3247   8.3247   8.8027   9.6229   9.6229  10.3262

          k = 0.0000 0.1000 0.0000 (  6875 PWs)   bands (ev):

   -45.1692 -21.8499 -21.7745 -21.7663  -7.1110  -5.9999  -5.7457  -4.4239
    -4.4132  -4.3800  -4.2579  -4.1373   4.6298   6.7610   6.7753   7.1835
     8.6291   8.7204   8.9707   9.2170   9.2855   9.5209

          k = 0.0000 0.1000 0.1903 (  6874 PWs)   bands (ev):

   -45.1690 -21.8661 -21.7738 -21.7657  -6.9725  -5.9621  -5.6962  -4.4316
    -4.4257  -4.3791  -4.2507  -4.1801   4.0796   6.7037   6.8180   7.4802
     8.3446   8.5207   8.9960   9.0453   9.3888   9.6421

          k = 0.0000 0.1000 0.3807 (  6874 PWs)   bands (ev):

   -45.1686 -21.8922 -21.7727 -21.7646  -6.7344  -5.8963  -5.6188  -4.4457
    -4.4425  -4.3777  -4.2568  -4.2385   3.4656   6.5088   6.8653   7.0200
     8.1530   8.3231   8.9780   9.2583   9.4863  10.4177

          k = 0.0000 0.2000 0.0000 (  6857 PWs)   bands (ev):

   -45.1688 -21.8491 -21.7948 -21.7655  -6.9634  -5.9658  -5.7159  -4.4463
    -4.4116  -4.3948  -4.2603  -4.1289   4.2061   6.8141   6.8908   7.0692
     8.6947   8.7280   8.9178   8.9493   9.1721   9.5931

          k = 0.0000 0.2000 0.1903 (  6881 PWs)   bands (ev):

   -45.1686 -21.8652 -21.7940 -21.7648  -6.8371  -5.9379  -5.6623  -4.4406
    -4.4245  -4.3943  -4.2556  -4.1481   3.8151   6.6019   6.9421   7.3352
     8.2624   8.4861   8.6659   9.0995   9.1737   9.8775

          k = 0.0000 0.2000 0.3807 (  6884 PWs)   bands (ev):

   -45.1682 -21.8910 -21.7928 -21.7637  -6.6315  -5.8853  -5.5686  -4.4452
    -4.4273  -4.3936  -4.2632  -4.1714   3.3136   6.2785   6.9973   7.1012
     7.8588   8.2995   8.5739   9.2007   9.3423  10.3984

          k = 0.0000 0.3000 0.0000 (  6861 PWs)   bands (ev):

   -45.1683 -21.8481 -21.8197 -21.7644  -6.7692  -5.9209  -5.6868  -4.4691
    -4.4132  -4.4094  -4.2576  -4.1317   3.8218   6.5670   7.0436   7.0624
     8.4639   8.4766   8.8299   8.8420   9.2693   9.9921

          k = 0.0000 0.3000 0.1903 (  6864 PWs)   bands (ev):

   -45.1681 -21.8639 -21.8189 -21.7637  -6.6681  -5.8966  -5.6257  -4.4496
    -4.4231  -4.4130  -4.2495  -4.1254   3.5406   6.4393   7.0846   7.1282
     8.0193   8.3156   8.5363   8.9138   9.2623  10.1917

          k = 0.0000 0.3000 0.3807 (  6890 PWs)   bands (ev):

   -45.1677 -21.8895 -21.8176 -21.7626  -6.5276  -5.8367  -5.5035  -4.4445
    -4.4132  -4.4111  -4.2752  -4.0898   3.1447   6.1099   6.9022   7.1921
     7.7278   7.9652   8.1914   8.9731   9.7017  10.2240

          k = 0.0000 0.4000 0.0000 (  6829 PWs)   bands (ev):

   -45.1679 -21.8473 -21.8397 -21.7636  -6.6002  -5.8741  -5.6797  -4.4855
    -4.4277  -4.4079  -4.2425  -4.1515   3.5819   6.1981   7.2223   7.2569
     8.0614   8.1384   8.7532   8.8738   9.3076  10.6591

          k = 0.0000 0.4000 0.1903 (  6850 PWs)   bands (ev):

   -45.1677 -21.8628 -21.8390 -21.7629  -6.5346  -5.8359  -5.6129  -4.4607
    -4.4282  -4.4217  -4.2228  -4.1280   3.3570   6.1669   7.0838   7.3511
     7.5926   8.0273   8.6345   8.8819   9.2519  10.5122

          k = 0.0000 0.4000 0.3807 (  6874 PWs)   bands (ev):

   -45.1673 -21.8882 -21.8375 -21.7617  -6.4703  -5.7532  -5.4558  -4.4440
    -4.4289  -4.4135  -4.2658  -4.0338   3.0276   5.9709   6.6282   7.4243
     7.4497   7.8904   7.9700   8.8906   9.8464  10.1170

          k = 0.0000-0.5000 0.0000 (  6852 PWs)   bands (ev):

   -45.1678 -21.8478 -21.8465 -21.7632  -6.5323  -5.8485  -5.6865  -4.4915
    -4.4332  -4.4073  -4.2271  -4.1697   3.5042   6.0477   7.3626   7.3709
     7.8328   7.9733   8.7227   8.8894   9.3181  11.0153

          k = 0.0000-0.5000 0.1903 (  6848 PWs)   bands (ev):

   -45.1675 -21.8623 -21.8468 -21.7625  -6.4862  -5.7965  -5.6199  -4.4665
    -4.4339  -4.4213  -4.1986  -4.1423   3.2960   6.0342   7.2626   7.2786
     7.5128   7.8331   8.6806   8.8846   9.2325  10.6517

          k = 0.0000-0.5000 0.3807 (  6878 PWs)   bands (ev):

   -45.1672 -21.8877 -21.8452 -21.7614  -6.4553  -5.7071  -5.4418  -4.4438
    -4.4349  -4.4196  -4.2560  -4.0151   2.9884   5.8985   6.5296   7.3116
     7.6268   7.7594   7.9316   8.8793   9.7995  10.1543

          k = 0.1000 0.1000 0.0000 (  6869 PWs)   bands (ev):

   -45.1690 -21.8496 -21.7742 -21.7740  -7.0568  -5.9866  -5.7369  -4.4246
    -4.4218  -4.3859  -4.2536  -4.1321   4.4574   6.7399   6.8331   7.2469
     8.4520   8.7795   8.9380   9.0149   9.4475   9.5462

          k = 0.1000 0.1000 0.1903 (  6872 PWs)   bands (ev):

   -45.1688 -21.8658 -21.7735 -21.7734  -6.9213  -5.9535  -5.6870  -4.4365
    -4.4246  -4.3853  -4.2466  -4.1667   3.9885   6.7009   6.7409   7.5253
     8.2973   8.4082   8.8988   9.0763   9.4620   9.6396

          k = 0.1000 0.1000 0.3807 (  6872 PWs)   bands (ev):

   -45.1684 -21.8917 -21.7724 -21.7723  -6.6910  -5.8969  -5.6062  -4.4589
    -4.4182  -4.3844  -4.2414  -4.2273   3.4232   6.5128   6.6133   7.1794
     8.1776   8.2023   8.9705   9.0799   9.5007  10.4010

          k = 0.1000 0.2000 0.0000 (  6868 PWs)   bands (ev):

   -45.1687 -21.8488 -21.7944 -21.7732  -6.9101  -5.9522  -5.7156  -4.4472
    -4.4201  -4.3949  -4.2466  -4.1240   4.0875   6.7462   6.9503   7.1356
     8.3758   8.4708   8.9670   9.0496   9.3291   9.7188

          k = 0.1000 0.2000 0.1903 (  6872 PWs)   bands (ev):

   -45.1684 -21.8648 -21.7937 -21.7725  -6.7855  -5.9300  -5.6632  -4.4434
    -4.4262  -4.3932  -4.2399  -4.1373   3.7638   6.5816   6.7597   7.3925
     8.1270   8.2749   8.8153   9.1573   9.2718   9.8733

          k = 0.1000 0.2000 0.3807 (  6877 PWs)   bands (ev):

   -45.1680 -21.8906 -21.7925 -21.7714  -6.5845  -5.8898  -5.5687  -4.4571
    -4.4044  -4.3875  -4.2454  -4.1576   3.3117   6.2762   6.6464   7.1163
     7.9435   8.0537   8.7050   9.2342   9.4262  10.2948

          k = 0.1000 0.3000 0.0000 (  6864 PWs)   bands (ev):

   -45.1682 -21.8478 -21.8193 -21.7721  -6.7175  -5.9077  -5.6971  -4.4692
    -4.4157  -4.3996  -4.2405  -4.1269   3.7331   6.5531   7.0083   7.1304
     8.0761   8.4473   8.7203   9.0295   9.3544  10.0939

          k = 0.1000 0.3000 0.1903 (  6864 PWs)   bands (ev):

   -45.1679 -21.8636 -21.8185 -21.7714  -6.6160  -5.8910  -5.6393  -4.4526
    -4.4246  -4.3935  -4.2295  -4.1158   3.5177   6.4259   6.7346   7.2291
     7.7816   8.2817   8.7788   8.9634   9.3107  10.1502

          k = 0.1000 0.3000 0.3807 (  6875 PWs)   bands (ev):

   -45.1676 -21.8891 -21.8172 -21.7703  -6.4764  -5.8478  -5.5199  -4.4507
    -4.4122  -4.3696  -4.2482  -4.0790   3.1795   6.0848   6.7098   6.8995
     7.3782   8.0567   8.7323   8.9558   9.7058  10.0685

          k = 0.1000 0.4000 0.0000 (  6849 PWs)   bands (ev):

   -45.1678 -21.8470 -21.8392 -21.7713  -6.5502  -5.8621  -5.6987  -4.4810
    -4.4112  -4.4009  -4.2283  -4.1467   3.5049   6.2033   7.0987   7.3578
     7.7690   8.1956   8.6443   8.9722   9.3959  10.6083

          k = 0.1000 0.4000 0.1903 (  6859 PWs)   bands (ev):

   -45.1675 -21.8625 -21.8386 -21.7706  -6.4823  -5.8338  -5.6370  -4.4592
    -4.4196  -4.3938  -4.2061  -4.1182   3.3472   6.1676   6.7178   7.1738
     7.6186   8.2275   8.5992   8.9936   9.3129  10.3740

          k = 0.1000 0.4000 0.3807 (  6864 PWs)   bands (ev):

   -45.1672 -21.8878 -21.8372 -21.7694  -6.4179  -5.7698  -5.4862  -4.4490
    -4.4062  -4.3708  -4.2381  -4.0239   3.0840   5.9531   6.5474   6.7839
     7.0873   8.1785   8.6230   8.8260   9.6924  10.0343

          k = 0.1000-0.5000 0.0000 (  6860 PWs)   bands (ev):

   -45.1676 -21.8474 -21.8461 -21.7709  -6.4830  -5.8366  -5.7095  -4.4839
    -4.4094  -4.4014  -4.2147  -4.1653   3.4296   6.0551   7.1725   7.5286
     7.6233   7.9639   8.6700   8.9458   9.4082  10.8668

          k = 0.1000-0.5000 0.1903 (  6846 PWs)   bands (ev):

   -45.1674 -21.8619 -21.8464 -21.7702  -6.4339  -5.7951  -5.6489  -4.4607
    -4.4171  -4.3958  -4.1845  -4.1318   3.2896   6.0384   6.7263   7.1186
     7.6568   8.1112   8.5843   9.0154   9.2986  10.4559

          k = 0.1000-0.5000 0.3807 (  6862 PWs)   bands (ev):

   -45.1670 -21.8873 -21.8448 -21.7691  -6.4030  -5.7260  -5.4777  -4.4486
    -4.3913  -4.3868  -4.2290  -4.0053   3.0518   5.8883   6.4806   6.6430
     7.1129   8.3052   8.4464   8.8446   9.5797  10.0970

          k = 0.2000 0.2000 0.0000 (  6867 PWs)   bands (ev):

   -45.1683 -21.8479 -21.7937 -21.7932  -6.7667  -5.9171  -5.7163  -4.4533
    -4.4292  -4.3884  -4.2207  -4.1162   3.8067   6.6941   7.0610   7.1040
     8.0277   8.0721   8.9748   9.1432   9.3973   9.9575

          k = 0.2000 0.2000 0.1903 (  6870 PWs)   bands (ev):

   -45.1680 -21.8639 -21.7929 -21.7925  -6.6489  -5.9088  -5.6660  -4.4401
    -4.4360  -4.3794  -4.2089  -4.1131   3.6215   6.4826   6.5698   7.2631
     7.9046   7.9832   8.9457   9.2182   9.4681   9.8838

          k = 0.2000 0.2000 0.3807 (  6865 PWs)   bands (ev):

   -45.1677 -21.8895 -21.7916 -21.7914  -6.4664  -5.8958  -5.5649  -4.4508
    -4.4087  -4.3450  -4.2060  -4.1145   3.2981   6.1648   6.3609   6.8570
     7.6608   7.8135   8.9365   9.3575   9.6031   9.9962

          k = 0.2000 0.3000 0.0000 (  6859 PWs)   bands (ev):

   -45.1678 -21.8469 -21.8182 -21.7922  -6.5807  -5.8734  -5.7228  -4.4628
    -4.4213  -4.3719  -4.1997  -4.1189   3.5092   6.5416   6.9259   7.2417
     7.6406   8.0712   8.6622   9.2166   9.4674  10.2010

          k = 0.2000 0.3000 0.1903 (  6871 PWs)   bands (ev):

   -45.1676 -21.8627 -21.8175 -21.7915  -6.4786  -5.8763  -5.6738  -4.4432
    -4.4243  -4.3542  -4.1812  -4.0940   3.4407   6.3529   6.4234   6.9828
     7.5732   7.9964   8.9426   9.2277   9.5103   9.9823

          k = 0.2000 0.3000 0.3807 (  6866 PWs)   bands (ev):

   -45.1672 -21.8881 -21.8162 -21.7904  -6.3433  -5.8745  -5.5580  -4.4362
    -4.3990  -4.3088  -4.1730  -4.0501   3.2673   5.9588   6.2147   6.6260
     7.0776   7.7506   9.1178   9.4098   9.5590   9.8333

          k = 0.2000 0.4000 0.0000 (  6860 PWs)   bands (ev):

   -45.1674 -21.8461 -21.8381 -21.7913  -6.4212  -5.8316  -5.7401  -4.4650
    -4.4113  -4.3455  -4.1861  -4.1383   3.3033   6.2175   6.9655   7.3335
     7.4700   8.1632   8.2728   9.2990   9.4600  10.4005

          k = 0.2000 0.4000 0.1903 (  6850 PWs)   bands (ev):

   -45.1672 -21.8615 -21.8375 -21.7906  -6.3446  -5.8292  -5.6938  -4.4423
    -4.4100  -4.3219  -4.1611  -4.0937   3.3009   6.1549   6.3243   6.7662
     7.4566   8.1126   8.7446   9.2495   9.5417   9.9836

          k = 0.2000 0.4000 0.3807 (  6852 PWs)   bands (ev):

   -45.1668 -21.8868 -21.8362 -21.7894  -6.2789  -5.8120  -5.5569  -4.4284
    -4.3757  -4.2821  -4.1541  -3.9972   3.2373   5.8655   6.0039   6.4103
     6.7726   7.8117   8.9603   9.3300   9.3876  10.0098

          k = 0.2000-0.5000 0.0000 (  6876 PWs)   bands (ev):

   -45.1672 -21.8462 -21.8453 -21.7909  -6.3576  -5.8064  -5.7575  -4.4644
    -4.4075  -4.3297  -4.1753  -4.1582   3.2326   6.0727   7.0746   7.1462
     7.6631   7.9613   8.2642   9.3599   9.4187  10.4752

          k = 0.2000-0.5000 0.1903 (  6864 PWs)   bands (ev):

   -45.1670 -21.8610 -21.8453 -21.7902  -6.2964  -5.7929  -5.7158  -4.4407
    -4.4046  -4.3049  -4.1510  -4.1013   3.2509   6.0491   6.2723   6.7148
     7.4494   8.1846   8.6326   9.2640   9.5431   9.9534

          k = 0.2000-0.5000 0.3807 (  6858 PWs)   bands (ev):

   -45.1666 -21.8863 -21.8438 -21.7891  -6.2645  -5.7732  -5.5601  -4.4258
    -4.3641  -4.2714  -4.1478  -3.9781   3.2268   5.8353   5.9250   6.2350
     6.7757   7.8633   8.7835   9.3344   9.3370  10.0762

          k = 0.3000 0.3000 0.0000 (  6872 PWs)   bands (ev):

   -45.1673 -21.8458 -21.8170 -21.8169  -6.4096  -5.8310  -5.7511  -4.4540
    -4.4114  -4.3351  -4.1558  -4.1204   3.2511   6.5579   6.6031   7.4010
     7.4618   7.7647   8.5053   9.1187   9.7348  10.1486

          k = 0.3000 0.3000 0.1903 (  6859 PWs)   bands (ev):

   -45.1671 -21.8614 -21.8164 -21.8161  -6.3083  -5.8547  -5.7152  -4.4270
    -4.4101  -4.3039  -4.1280  -4.0769   3.3169   6.2424   6.2430   6.6526
     7.3262   7.8047   9.0561   9.2567   9.7343   9.7556

          k = 0.3000 0.3000 0.3807 (  6870 PWs)   bands (ev):

   -45.1667 -21.8867 -21.8151 -21.8150  -6.1901  -5.8916  -5.5993  -4.4050
    -4.3837  -4.2426  -4.0873  -4.0106   3.3648   5.7432   5.8307   6.3677
     7.0171   7.1875   8.8146   9.6556   9.7072   9.8985

          k = 0.3000 0.4000 0.0000 (  6876 PWs)   bands (ev):

   -45.1669 -21.8450 -21.8367 -21.8159  -6.2725  -5.7955  -5.7692  -4.4476
    -4.3938  -4.2889  -4.1410  -4.1241   3.0586   6.2219   6.6310   7.2512
     7.6039   7.7936   8.2010   9.1027   9.8382  10.0514

          k = 0.3000 0.4000 0.1903 (  6849 PWs)   bands (ev):

   -45.1667 -21.8604 -21.8362 -21.8152  -6.1761  -5.8239  -5.7524  -4.4187
    -4.3876  -4.2428  -4.1026  -4.0685   3.2018   6.0827   6.2066   6.3771
     7.1166   7.8773   8.9085   9.2832   9.4962   9.9008

          k = 0.3000 0.4000 0.3807 (  6849 PWs)   bands (ev):

   -45.1663 -21.8855 -21.8349 -21.8141  -6.1047  -5.8602  -5.6324  -4.3874
    -4.3612  -4.1751  -4.0452  -3.9653   3.4304   5.5443   5.6590   6.1398
     6.7416   7.1595   8.2238   9.7609   9.8541  10.0316

          k = 0.3000-0.5000 0.0000 (  6866 PWs)   bands (ev):

   -45.1668 -21.8448 -21.8442 -21.8155  -6.2217  -5.7839  -5.7714  -4.4447
    -4.3861  -4.2591  -4.1597  -4.1143   2.9892   6.0751   6.6713   7.1390
     7.7997   7.8399   7.9658   9.1202   9.7885  10.0556

          k = 0.3000-0.5000 0.1903 (  6856 PWs)   bands (ev):

   -45.1665 -21.8598 -21.8439 -21.8148  -6.1296  -5.7932  -5.7806  -4.4156
    -4.3784  -4.2034  -4.1152  -4.0589   3.1562   6.0520   6.1019   6.3227
     7.0734   7.9418   8.7874   9.3155   9.3807   9.9431

          k = 0.3000-0.5000 0.3807 (  6848 PWs)   bands (ev):

   -45.1662 -21.8851 -21.8426 -21.8137  -6.0895  -5.8274  -5.6469  -4.3835
    -4.3500  -4.1393  -4.0429  -3.9433   3.4521   5.4484   5.6540   5.9949
     6.6776   7.2173   7.9373   9.7865   9.8761  10.0918

          k = 0.4000 0.4000 0.0000 (  6882 PWs)   bands (ev):

   -45.1665 -21.8441 -21.8359 -21.8353  -6.1758  -5.7674  -5.7619  -4.4369
    -4.3634  -4.2382  -4.1539  -4.0788   2.8666   6.0984   6.4309   7.3448
     7.5169   7.7696   8.0977   8.9329   9.6153  10.1590

          k = 0.4000 0.4000 0.1903 (  6845 PWs)   bands (ev):

   -45.1663 -21.8593 -21.8351 -21.8351  -6.0519  -5.8125  -5.7887  -4.4062
    -4.3560  -4.1688  -4.0735  -4.0439   3.0916   6.0174   6.1503   6.2332
     6.7413   7.8704   8.6823   9.2259   9.2776  10.1546

          k = 0.4000 0.4000 0.3807 (  6854 PWs)   bands (ev):

   -45.1659 -21.8844 -21.8340 -21.8339  -5.9703  -5.8861  -5.6889  -4.3564
    -4.3484  -4.0777  -3.9614  -3.9455   3.5680   5.3603   5.4926   5.9674
     6.6266   6.8327   7.4876   9.9949  10.0329  10.1503

          k = 0.4000-0.5000 0.0000 (  6862 PWs)   bands (ev):

   -45.1664 -21.8436 -21.8433 -21.8352  -6.1486  -5.7595  -5.7453  -4.4331
    -4.3479  -4.2062  -4.1734  -4.0623   2.7949   5.9887   6.4236   7.3032
     7.5230   7.9138   7.9618   8.8886   9.4357  10.2485

          k = 0.4000-0.5000 0.1903 (  6852 PWs)   bands (ev):

   -45.1662 -21.8587 -21.8428 -21.8347  -6.0137  -5.8048  -5.7955  -4.4023
    -4.3417  -4.1200  -4.0903  -4.0270   3.0439   5.9561   6.1654   6.1925
     6.6262   7.9004   8.4772   9.2041   9.2475  10.2381

          k = 0.4000-0.5000 0.3807 (  6846 PWs)   bands (ev):

   -45.1658 -21.8839 -21.8415 -21.8336  -5.9432  -5.8685  -5.7117  -4.3535
    -4.3346  -4.0279  -3.9577  -3.9215   3.6077   5.3353   5.4700   5.8660
     6.5143   6.8646   7.1176  10.0262  10.0832  10.2244

          k =-0.5000-0.5000 0.0000 (  6848 PWs)   bands (ev):

   -45.1662 -21.8431 -21.8431 -21.8425  -6.1333  -5.7358  -5.7358  -4.4290
    -4.3261  -4.1845  -4.1845  -4.0437   2.7215   5.9080   6.3872   7.4009
     7.4009   7.9602   7.9602   8.7996   9.2327  10.3502

          k =-0.5000-0.5000 0.1903 (  6864 PWs)   bands (ev):

   -45.1660 -21.8582 -21.8424 -21.8424  -5.9851  -5.7968  -5.7968  -4.3983
    -4.3246  -4.0819  -4.0819  -4.0209   2.9939   5.8817   6.2447   6.2447
     6.3918   7.9014   8.2503   9.2050   9.2050  10.3380

          k =-0.5000-0.5000 0.3807 (  6876 PWs)   bands (ev):

   -45.1656 -21.8835 -21.8412 -21.8412  -5.8836  -5.8836  -5.7382  -4.3485
    -4.3222  -3.9730  -3.9251  -3.9251   3.6451   5.4224   5.4224   5.7809
     6.3992   6.7178   6.8139  10.0945  10.0945  10.3183

     highest occupied level (ev):    11.0153

!    total energy              =    -380.57768939 Ry
     estimated scf accuracy    <          6.6E-09 Ry

     The total energy is the sum of the following terms:
     one-electron contribution =     -79.71244173 Ry
     hartree contribution      =      69.93367222 Ry
     xc contribution           =    -102.67742179 Ry
     ewald contribution        =    -268.12149809 Ry

     convergence has been achieved in  14 iterations

     negative rho (up, down):  1.581E-02 0.000E+00

     Forces acting on atoms (cartesian axes, Ry/au):

     atom    1 type  1   force =     0.00000000    0.00000000    0.00011732
     atom    2 type  2   force =     0.00000000    0.00000000    0.00030950
     atom    3 type  3   force =     0.00000000    0.00000000   -0.00017348
     atom    4 type  3   force =     0.00000000    0.00000000   -0.00012667
     atom    5 type  3   force =     0.00000000    0.00000000   -0.00012667

     Total force =     0.000414     Total SCF correction =     0.000165
     SCF correction compared to forces is large: reduce conv_thr to get better values


     Computing stress (Cartesian axis) and pressure


     negative rho (up, down):  1.581E-02 0.000E+00
          total   stress  (Ry/bohr**3)                   (kbar)     P=        1.40
   0.00001191   0.00000000   0.00000000            1.75        0.00        0.00
   0.00000000   0.00001191   0.00000000            0.00        1.75        0.00
   0.00000000   0.00000000   0.00000480            0.00        0.00        0.71


     Writing all to output data dir ./pto_ener.save/
 
     init_run     :     19.68s CPU     20.45s WALL (       1 calls)
     electrons    :   1059.71s CPU   1092.57s WALL (       1 calls)
     forces       :      3.56s CPU      3.68s WALL (       1 calls)
     stress       :     24.56s CPU     24.79s WALL (       1 calls)

     Called by init_run:
     wfcinit      :     15.17s CPU     15.63s WALL (       1 calls)
     potinit      :      0.10s CPU      0.13s WALL (       1 calls)
     hinit0       :      3.65s CPU      3.76s WALL (       1 calls)

     Called by electrons:
     c_bands      :    972.38s CPU   1002.14s WALL (      14 calls)
     sum_band     :     78.63s CPU     80.65s WALL (      14 calls)
     v_of_rho     :      0.41s CPU      0.44s WALL (      15 calls)
     newd         :      8.59s CPU      9.63s WALL (      15 calls)
     mix_rho      :      0.25s CPU      0.27s WALL (      14 calls)

     Called by c_bands:
     init_us_2    :     24.09s CPU     24.23s WALL (    1953 calls)
     init_us_2:cp :     24.03s CPU     24.20s WALL (    1953 calls)
     ccgdiagg     :    848.35s CPU    874.54s WALL (     882 calls)
     wfcrot       :    123.96s CPU    126.20s WALL (     882 calls)

     Called by *cgdiagg:
     h_psi        :    661.79s CPU    677.76s WALL (   74971 calls)
     s_psi        :    159.83s CPU    167.95s WALL (  149060 calls)

     Called by h_psi:
     h_psi:calbec :     83.02s CPU     85.64s WALL (   74971 calls)
     vloc_psi     :    489.01s CPU    499.71s WALL (   74971 calls)
     add_vuspsi   :     82.93s CPU     86.39s WALL (   74971 calls)
     hs_1psi      :    633.42s CPU    650.38s WALL (   74089 calls)
     s_1psi       :    160.65s CPU    165.95s WALL (   74089 calls)

     General routines
     calbec       :    161.46s CPU    169.50s WALL (  150257 calls)
     fft          :      0.15s CPU      0.18s WALL (      68 calls)
     ffts         :      0.03s CPU      0.03s WALL (      14 calls)
     fftw         :    446.42s CPU    454.75s WALL (  207524 calls)
 
     Parallel routines
 
     PWSCF        :  18m29.01s CPU  19m 5.46s WALL

 
   This run was terminated on:  14: 0:10  10Apr2022            

=------------------------------------------------------------------------------=
   JOB DONE.
=------------------------------------------------------------------------------=
