
     Program PWSCF v.7.0 starts on 10Apr2022 at 13:38:37 

     This program is part of the open-source Quantum ESPRESSO suite
     for quantum simulation of materials; please cite
         "P. Giannozzi et al., J. Phys.:Condens. Matter 21 395502 (2009);
         "P. Giannozzi et al., J. Phys.:Condens. Matter 29 465901 (2017);
         "P. Giannozzi et al., J. Chem. Phys. 152 154105 (2020);
          URL http://www.quantum-espresso.org", 
     in publications or presentations arising from this work. More details at
     http://www.quantum-espresso.org/quote

     Parallel version (MPI), running on     1 processors

     MPI processes distributed on     1 nodes
     85215 MiB available memory on the printing compute node when the environment starts
 
     Waiting for input...
     Reading input from standard input
Warning: card &CELL ignored
Warning: card  CELL_DYNAMICS = 'BFGS', ignored
Warning: card  PRESS=0.1D0, ignored
Warning: card / ignored

     Current dimensions of program PWSCF are:
     Max number of different atomic species (ntypx) = 10
     Max number of k-points (npk) =  40000
     Max angular momentum in pseudopotentials (lmaxx) =  4
     Message from routine setup:
     using ibrav=0 with symmetry is DISCOURAGED, use correct ibrav instead

     Subspace diagonalization in iterative solution of the eigenvalue problem:
     a serial algorithm will be used

 
     G-vector sticks info
     --------------------
     sticks:   dense  smooth     PW     G-vecs:    dense   smooth      PW
     Sum        1685    1685    489                54933    54933    8483
 
     Using Slab Decomposition
 


     bravais-lattice index     =            0
     lattice parameter (alat)  =       7.2864  a.u.
     unit-cell volume          =     406.4772 (a.u.)^3
     number of atoms/cell      =            5
     number of atomic types    =            3
     number of electrons       =        44.00
     number of Kohn-Sham states=           22
     kinetic-energy cutoff     =     100.0000  Ry
     charge density cutoff     =     400.0000  Ry
     scf convergence threshold =      1.0E-08
     mixing beta               =       0.7000
     number of iterations used =            8  plain     mixing
     Exchange-correlation= SLA  PZ   NOGX NOGC
                           (   1   1   0   0   0   0   0)

     celldm(1)=   7.286431  celldm(2)=   0.000000  celldm(3)=   0.000000
     celldm(4)=   0.000000  celldm(5)=   0.000000  celldm(6)=   0.000000

     crystal axes: (cart. coord. in units of alat)
               a(1) = (   1.000000   0.000000   0.000000 )  
               a(2) = (   0.000000   1.000000   0.000000 )  
               a(3) = (   0.000000   0.000000   1.050731 )  

     reciprocal axes: (cart. coord. in units 2 pi/alat)
               b(1) = (  1.000000  0.000000  0.000000 )  
               b(2) = (  0.000000  1.000000  0.000000 )  
               b(3) = (  0.000000  0.000000  0.951718 )  


     PseudoPot. # 1 for Pb read from file:
     ./Pb_LDA.UPF
     MD5 check sum: 062a37469794d955244864f8fe2e5624
     Pseudo is Ultrasoft + core correction, Zval = 14.0
     Generated by new atomic code, or converted to UPF format
     Using radial grid of  899 points,  6 beta functions with: 
                l(1) =   0
                l(2) =   0
                l(3) =   1
                l(4) =   1
                l(5) =   2
                l(6) =   2
     Q(r) pseudized with  6 coefficients,  rinner =    1.000   1.000   1.000
                                                       1.000   1.000

     PseudoPot. # 2 for Ti read from file:
     ./Ti_LDA.UPF
     MD5 check sum: 0d9f225c038fe889ca2a701dcc8d72cb
     Pseudo is Ultrasoft + core correction, Zval = 12.0
     Generated by new atomic code, or converted to UPF format
     Using radial grid of  851 points,  6 beta functions with: 
                l(1) =   0
                l(2) =   0
                l(3) =   1
                l(4) =   1
                l(5) =   2
                l(6) =   2
     Q(r) pseudized with  6 coefficients,  rinner =    1.000   1.000   1.000
                                                       1.000   1.000

     PseudoPot. # 3 for O  read from file:
     ./O_LDA.UPF
     MD5 check sum: 194b818514d2a7dbb603bb78519a4f40
     Pseudo is Ultrasoft + core correction, Zval =  6.0
     Generated by new atomic code, or converted to UPF format
     Using radial grid of  737 points,  5 beta functions with: 
                l(1) =   0
                l(2) =   0
                l(3) =   1
                l(4) =   1
                l(5) =   2
     Q(r) pseudized with  8 coefficients,  rinner =    0.900   0.900   0.900
                                                       0.900   0.900

     atomic species   valence    mass     pseudopotential
        Pb            14.00   207.20000     Pb( 1.00)
        Ti            12.00    47.88000     Ti( 1.00)
        O              6.00    16.00000     O ( 1.00)

      8 Sym. Ops. (no inversion) found



   Cartesian axes

     site n.     atom                  positions (alat units)
         1           Pb  tau(   1) = (   0.0000000   0.0000000   1.0561849  )
         2           Ti  tau(   2) = (   0.5000000   0.5000000   0.5668825  )
         3           O   tau(   3) = (   0.5000000   0.5000000   0.1045254  )
         4           O   tau(   4) = (   0.5000000   0.0000000   0.6425761  )
         5           O   tau(   5) = (   0.0000000   0.5000000   0.6425761  )

     number of k points=    30
                       cart. coord. in units 2pi/alat
        k(    1) = (   0.0000000   0.0000000   0.0000000), wk =   0.0138889
        k(    2) = (   0.0000000   0.0000000   0.2379295), wk =   0.0277778
        k(    3) = (   0.0000000   0.0000000  -0.4758591), wk =   0.0138889
        k(    4) = (   0.0000000   0.1666667   0.0000000), wk =   0.0555556
        k(    5) = (   0.0000000   0.1666667   0.2379295), wk =   0.1111111
        k(    6) = (   0.0000000   0.1666667  -0.4758591), wk =   0.0555556
        k(    7) = (   0.0000000   0.3333333   0.0000000), wk =   0.0555556
        k(    8) = (   0.0000000   0.3333333   0.2379295), wk =   0.1111111
        k(    9) = (   0.0000000   0.3333333  -0.4758591), wk =   0.0555556
        k(   10) = (   0.0000000  -0.5000000   0.0000000), wk =   0.0277778
        k(   11) = (   0.0000000  -0.5000000   0.2379295), wk =   0.0555556
        k(   12) = (   0.0000000  -0.5000000  -0.4758591), wk =   0.0277778
        k(   13) = (   0.1666667   0.1666667   0.0000000), wk =   0.0555556
        k(   14) = (   0.1666667   0.1666667   0.2379295), wk =   0.1111111
        k(   15) = (   0.1666667   0.1666667  -0.4758591), wk =   0.0555556
        k(   16) = (   0.1666667   0.3333333   0.0000000), wk =   0.1111111
        k(   17) = (   0.1666667   0.3333333   0.2379295), wk =   0.2222222
        k(   18) = (   0.1666667   0.3333333  -0.4758591), wk =   0.1111111
        k(   19) = (   0.1666667  -0.5000000   0.0000000), wk =   0.0555556
        k(   20) = (   0.1666667  -0.5000000   0.2379295), wk =   0.1111111
        k(   21) = (   0.1666667  -0.5000000  -0.4758591), wk =   0.0555556
        k(   22) = (   0.3333333   0.3333333   0.0000000), wk =   0.0555556
        k(   23) = (   0.3333333   0.3333333   0.2379295), wk =   0.1111111
        k(   24) = (   0.3333333   0.3333333  -0.4758591), wk =   0.0555556
        k(   25) = (   0.3333333  -0.5000000   0.0000000), wk =   0.0555556
        k(   26) = (   0.3333333  -0.5000000   0.2379295), wk =   0.1111111
        k(   27) = (   0.3333333  -0.5000000  -0.4758591), wk =   0.0555556
        k(   28) = (  -0.5000000  -0.5000000   0.0000000), wk =   0.0138889
        k(   29) = (  -0.5000000  -0.5000000   0.2379295), wk =   0.0277778
        k(   30) = (  -0.5000000  -0.5000000  -0.4758591), wk =   0.0138889

     Dense  grid:    54933 G-vectors     FFT dimensions: (  48,  48,  50)

     Estimated max dynamical RAM per process >     286.69 MB

     Check: negative core charge=   -0.000003

     Initial potential from superposition of free atoms

     starting charge      42.9982, renormalised to      44.0000

     negative rho (up, down):  1.705E-02 0.000E+00
     Starting wfcs are   31 randomized atomic wfcs

     total cpu time spent up to now is       15.1 secs

     Self-consistent Calculation

     iteration #  1     ecut=   100.00 Ry     beta= 0.70
     CG style diagonalization
     ethr =  1.00E-02,  avg # of iterations =  2.1

     negative rho (up, down):  1.433E-02 0.000E+00

     total cpu time spent up to now is       36.5 secs

     total energy              =    -380.06173545 Ry
     estimated scf accuracy    <       1.02532993 Ry

     iteration #  2     ecut=   100.00 Ry     beta= 0.70
     CG style diagonalization
     ethr =  2.33E-03,  avg # of iterations =  4.8

     negative rho (up, down):  1.503E-02 0.000E+00

     total cpu time spent up to now is       75.6 secs

     total energy              =    -379.76638612 Ry
     estimated scf accuracy    <       3.88032269 Ry

     iteration #  3     ecut=   100.00 Ry     beta= 0.70
     CG style diagonalization
     ethr =  2.33E-03,  avg # of iterations =  4.4

     negative rho (up, down):  1.563E-02 0.000E+00

     total cpu time spent up to now is      111.7 secs

     total energy              =    -380.54618458 Ry
     estimated scf accuracy    <       0.25951859 Ry

     iteration #  4     ecut=   100.00 Ry     beta= 0.70
     CG style diagonalization
     ethr =  5.90E-04,  avg # of iterations =  3.4

     negative rho (up, down):  1.567E-02 0.000E+00

     total cpu time spent up to now is      139.6 secs

     total energy              =    -380.56059580 Ry
     estimated scf accuracy    <       0.05254709 Ry

     iteration #  5     ecut=   100.00 Ry     beta= 0.70
     CG style diagonalization
     ethr =  1.19E-04,  avg # of iterations =  3.8

     negative rho (up, down):  1.566E-02 0.000E+00

     total cpu time spent up to now is      170.3 secs

     total energy              =    -380.57568224 Ry
     estimated scf accuracy    <       0.00499736 Ry

     iteration #  6     ecut=   100.00 Ry     beta= 0.70
     CG style diagonalization
     ethr =  1.14E-05,  avg # of iterations =  4.0

     negative rho (up, down):  1.565E-02 0.000E+00

     total cpu time spent up to now is      203.1 secs

     total energy              =    -380.57738460 Ry
     estimated scf accuracy    <       0.00741173 Ry

     iteration #  7     ecut=   100.00 Ry     beta= 0.70
     CG style diagonalization
     ethr =  1.14E-05,  avg # of iterations =  3.2

     negative rho (up, down):  1.566E-02 0.000E+00

     total cpu time spent up to now is      229.4 secs

     total energy              =    -380.57680480 Ry
     estimated scf accuracy    <       0.00294766 Ry

     iteration #  8     ecut=   100.00 Ry     beta= 0.70
     CG style diagonalization
     ethr =  6.70E-06,  avg # of iterations =  3.6

     negative rho (up, down):  1.568E-02 0.000E+00

     total cpu time spent up to now is      258.7 secs

     total energy              =    -380.57737980 Ry
     estimated scf accuracy    <       0.00000868 Ry

     iteration #  9     ecut=   100.00 Ry     beta= 0.70
     CG style diagonalization
     ethr =  1.97E-08,  avg # of iterations =  8.0

     negative rho (up, down):  1.572E-02 0.000E+00

     total cpu time spent up to now is      323.1 secs

     total energy              =    -380.57743947 Ry
     estimated scf accuracy    <       0.00000929 Ry

     iteration # 10     ecut=   100.00 Ry     beta= 0.70
     CG style diagonalization
     ethr =  1.97E-08,  avg # of iterations =  3.4

     negative rho (up, down):  1.580E-02 0.000E+00

     total cpu time spent up to now is      350.5 secs

     total energy              =    -380.57743822 Ry
     estimated scf accuracy    <       0.00000634 Ry

     iteration # 11     ecut=   100.00 Ry     beta= 0.70
     CG style diagonalization
     ethr =  1.44E-08,  avg # of iterations =  3.8

     negative rho (up, down):  1.581E-02 0.000E+00

     total cpu time spent up to now is      381.6 secs

     total energy              =    -380.57743936 Ry
     estimated scf accuracy    <       0.00000031 Ry

     iteration # 12     ecut=   100.00 Ry     beta= 0.70
     CG style diagonalization
     ethr =  7.02E-10,  avg # of iterations =  8.6

     negative rho (up, down):  1.581E-02 0.000E+00

     total cpu time spent up to now is      450.0 secs

     total energy              =    -380.57744062 Ry
     estimated scf accuracy    <       0.00000004 Ry

     iteration # 13     ecut=   100.00 Ry     beta= 0.70
     CG style diagonalization
     ethr =  8.16E-11,  avg # of iterations =  8.2

     negative rho (up, down):  1.581E-02 0.000E+00

     total cpu time spent up to now is      515.1 secs

     End of self-consistent calculation

          k = 0.0000 0.0000 0.0000 (  6893 PWs)   bands (ev):

   -45.1712 -21.8521 -21.7683 -21.7683  -7.1648  -6.0127  -5.7558  -4.4138
    -4.4138  -4.3740  -4.2564  -4.1425   4.8412   6.7350   6.7350   7.1096
     8.7120   8.7120   8.9509   9.2890   9.4411   9.4411

          k = 0.0000 0.0000 0.2379 (  6856 PWs)   bands (ev):

   -45.1708 -21.8756 -21.7673 -21.7673  -6.9571  -5.9509  -5.6859  -4.4316
    -4.4316  -4.3725  -4.2443  -4.2196   3.9792   6.7898   6.7898   7.3051
     8.4585   8.4585   8.8677   9.3769   9.5600   9.5600

          k = 0.0000 0.0000-0.4759 (  6872 PWs)   bands (ev):

   -45.1705 -21.8988 -21.7664 -21.7664  -6.7314  -5.8831  -5.6225  -4.4492
    -4.4492  -4.3710  -4.3026  -4.2337   3.4361   6.6082   6.8236   6.8236
     8.3014   8.3014   8.7883   9.6361   9.6361  10.6534

          k = 0.0000 0.1667 0.0000 (  6867 PWs)   bands (ev):

   -45.1708 -21.8513 -21.7886 -21.7674  -7.0199  -5.9786  -5.7250  -4.4382
    -4.4122  -4.3888  -4.2594  -4.1308   4.3522   6.8011   6.8453   7.1418
     8.6682   8.7334   8.9473   9.0645   9.1701   9.5622

          k = 0.0000 0.1667 0.2379 (  6879 PWs)   bands (ev):

   -45.1704 -21.8746 -21.7876 -21.7665  -6.8286  -5.9328  -5.6494  -4.4367
    -4.4306  -4.3879  -4.2535  -4.1705   3.7458   6.5822   6.9112   7.3903
     8.1255   8.4405   8.7655   9.1610   9.2311   9.9339

          k = 0.0000 0.1667-0.4759 (  6892 PWs)   bands (ev):

   -45.1701 -21.8977 -21.7865 -21.7655  -6.6309  -5.8808  -5.5708  -4.4488
    -4.4329  -4.3871  -4.2581  -4.2058   3.2920   6.2630   6.9508   7.0353
     7.9305   8.2924   8.8327   9.2187   9.3125  10.5746

          k = 0.0000 0.3333 0.0000 (  6853 PWs)   bands (ev):

   -45.1700 -21.8496 -21.8289 -21.7657  -6.7052  -5.9047  -5.6794  -4.4754
    -4.4184  -4.4089  -4.2539  -4.1364   3.7240   6.4313   7.0966   7.1273
     8.3295   8.3562   8.8022   8.8532   9.2892  10.2138

          k = 0.0000 0.3333 0.2379 (  6863 PWs)   bands (ev):

   -45.1697 -21.8724 -21.8278 -21.7647  -6.5801  -5.8624  -5.5825  -4.4421
    -4.4286  -4.4185  -4.2468  -4.1100   3.3595   6.3012   7.0011   7.2264
     7.7605   8.1838   8.3389   8.9064   9.4252  10.2925

          k = 0.0000 0.3333-0.4759 (  6872 PWs)   bands (ev):

   -45.1693 -21.8952 -21.8265 -21.7637  -6.4876  -5.7949  -5.4547  -4.4480
    -4.4189  -4.4008  -4.2829  -4.0565   3.0400   5.9763   6.7626   7.2697
     7.6454   7.8126   8.1259   8.9374   9.8590  10.1242

          k = 0.0000-0.5000 0.0000 (  6852 PWs)   bands (ev):

   -45.1696 -21.8494 -21.8483 -21.7649  -6.5315  -5.8484  -5.6844  -4.4915
    -4.4329  -4.4073  -4.2269  -4.1695   3.5045   6.0476   7.3630   7.3707
     7.8340   7.9739   8.7235   8.8910   9.3202  11.0166

          k = 0.0000-0.5000 0.2379 (  6842 PWs)   bands (ev):

   -45.1693 -21.8711 -21.8479 -21.7638  -6.4724  -5.7723  -5.5765  -4.4545
    -4.4338  -4.4275  -4.2125  -4.1058   3.2080   6.0193   7.0310   7.2724
     7.5785   7.7745   8.4490   8.8842   9.4270  10.4941

          k = 0.0000-0.5000-0.4759 (  6884 PWs)   bands (ev):

   -45.1689 -21.8938 -21.8465 -21.7628  -6.4541  -5.6909  -5.4008  -4.4475
    -4.4347  -4.4097  -4.2681  -3.9945   2.9394   5.8369   6.4511   7.3316
     7.5946   7.8038   7.8252   8.8796   9.7933  10.1598

          k = 0.1667 0.1667 0.0000 (  6867 PWs)   bands (ev):

   -45.1704 -21.8504 -21.7879 -21.7875  -6.8774  -5.9435  -5.7163  -4.4442
    -4.4284  -4.3924  -4.2354  -4.1201   4.0208   6.7212   6.9754   7.1976
     8.1937   8.3059   9.0417   9.0761   9.3815   9.7960

          k = 0.1667 0.1667 0.2379 (  6876 PWs)   bands (ev):

   -45.1701 -21.8736 -21.7868 -21.7865  -6.6972  -5.9175  -5.6411  -4.4470
    -4.4235  -4.3862  -4.2246  -4.1359   3.6219   6.4989   6.6083   7.3339
     8.0235   8.0398   8.8465   9.2232   9.4603   9.9034

          k = 0.1667 0.1667-0.4759 (  6858 PWs)   bands (ev):

   -45.1697 -21.8965 -21.7857 -21.7855  -6.5181  -5.8912  -5.5531  -4.4600
    -4.4019  -4.3631  -4.2298  -4.1579   3.2591   6.2831   6.3313   7.0259
     7.9300   7.9672   8.7489   9.2983   9.5184  10.2707

          k = 0.1667 0.3333 0.0000 (  6859 PWs)   bands (ev):

   -45.1696 -21.8488 -21.8279 -21.7858  -6.5712  -5.8713  -5.7138  -4.4686
    -4.4174  -4.3766  -4.2105  -4.1257   3.5078   6.4288   6.9730   7.2720
     7.6536   8.2405   8.5473   9.2198   9.4087  10.2936

          k = 0.1667 0.3333 0.2379 (  6864 PWs)   bands (ev):

   -45.1693 -21.8715 -21.8268 -21.7848  -6.4424  -5.8621  -5.6313  -4.4439
    -4.4181  -4.3531  -4.1894  -4.0840   3.3633   6.2498   6.3803   6.9361
     7.3879   8.0790   8.9008   9.1786   9.5156  10.0033

          k = 0.1667 0.3333-0.4759 (  6874 PWs)   bands (ev):

   -45.1689 -21.8941 -21.8256 -21.7838  -6.3523  -5.8386  -5.5087  -4.4416
    -4.3923  -4.3117  -4.2020  -4.0292   3.1741   5.8950   6.3118   6.6352
     6.8791   7.9377   9.0054   9.2242   9.5081   9.9522

          k = 0.1667-0.5000 0.0000 (  6848 PWs)   bands (ev):

   -45.1692 -21.8482 -21.8474 -21.7849  -6.4036  -5.8176  -5.7396  -4.4716
    -4.4094  -4.3548  -4.1913  -4.1599   3.3082   6.0663   7.0901   7.3172
     7.6183   7.9631   8.4087   9.2532   9.4063  10.6262

          k = 0.1667-0.5000 0.2379 (  6856 PWs)   bands (ev):

   -45.1689 -21.8702 -21.8469 -21.7839  -6.3332  -5.7827  -5.6541  -4.4421
    -4.4045  -4.3314  -4.1659  -4.0782   3.2451   6.0237   6.2751   6.6832
     7.3481   8.2219   8.6682   9.1890   9.5250   9.9657

          k = 0.1667-0.5000-0.4759 (  6852 PWs)   bands (ev):

   -45.1686 -21.8928 -21.8455 -21.7829  -6.3177  -5.7491  -5.4920  -4.4362
    -4.3603  -4.3087  -4.1846  -3.9681   3.1343   5.7892   6.1441   6.2954
     6.7302   8.0508   8.8747   9.1363   9.1659  10.1696

          k = 0.3333 0.3333 0.0000 (  6866 PWs)   bands (ev):

   -45.1688 -21.8470 -21.8257 -21.8256  -6.3063  -5.8043  -5.7646  -4.4484
    -4.3978  -4.3042  -4.1288  -4.1284   3.1015   6.4130   6.5087   7.3790
     7.5323   7.6771   8.3452   9.0671   9.8840  10.0256

          k = 0.3333 0.3333 0.2379 (  6855 PWs)   bands (ev):

   -45.1685 -21.8695 -21.8248 -21.8247  -6.1679  -5.8528  -5.7202  -4.4062
    -4.3908  -4.2436  -4.0808  -4.0474   3.2913   5.9586   6.0295   6.4091
     7.0528   7.5538   8.9665   9.4785   9.5209   9.9000

          k = 0.3333 0.3333-0.4759 (  6864 PWs)   bands (ev):

   -45.1682 -21.8920 -21.8237 -21.8236  -6.0975  -5.8979  -5.5953  -4.3837
    -4.3643  -4.1778  -4.0305  -3.9689   3.4575   5.5536   5.5747   6.1536
     6.8063   6.9692   8.2133   9.8544   9.8703  10.0338

          k = 0.3333-0.5000 0.0000 (  6874 PWs)   bands (ev):

   -45.1684 -21.8459 -21.8457 -21.8246  -6.1867  -5.7800  -5.7610  -4.4400
    -4.3738  -4.2389  -4.1630  -4.0936   2.9146   6.0593   6.5547   7.1902
     7.7207   7.8426   7.9646   9.0355   9.7082  10.0900

          k = 0.3333-0.5000 0.2379 (  6852 PWs)   bands (ev):

   -45.1681 -21.8682 -21.8447 -21.8237  -6.0498  -5.8077  -5.7789  -4.3969
    -4.3620  -4.1489  -4.0790  -4.0172   3.2172   5.8508   6.0029   6.0713
     6.8349   7.6245   8.4922   9.4773   9.5055  10.0593

          k = 0.3333-0.5000-0.4759 (  6864 PWs)   bands (ev):

   -45.1678 -21.8908 -21.8435 -21.8227  -6.0391  -5.8513  -5.6337  -4.3663
    -4.3395  -4.0860  -3.9940  -3.9121   3.5980   5.2857   5.4812   5.9109
     6.5668   6.9822   7.4274   9.9558  10.0315  10.1937

          k =-0.5000-0.5000 0.0000 (  6848 PWs)   bands (ev):

   -45.1681 -21.8447 -21.8447 -21.8443  -6.1309  -5.7357  -5.7357  -4.4290
    -4.3258  -4.1844  -4.1844  -4.0429   2.7214   5.9079   6.3869   7.4028
     7.4028   7.9605   7.9605   8.8026   9.2326  10.3504

          k =-0.5000-0.5000 0.2379 (  6864 PWs)   bands (ev):

   -45.1677 -21.8670 -21.8436 -21.8436  -5.9153  -5.8220  -5.8220  -4.3846
    -4.3236  -4.0375  -4.0375  -4.0083   3.1388   5.8645   5.9742   5.9742
     6.3936   7.5655   7.8369   9.5072   9.5072  10.3327

          k =-0.5000-0.5000-0.4759 (  6848 PWs)   bands (ev):

   -45.1674 -21.8896 -21.8425 -21.8425  -5.8972  -5.8972  -5.6931  -4.3401
    -4.3214  -3.9619  -3.8990  -3.8990   3.8153   5.3134   5.3134   5.7455
     6.4002   6.4173   6.6694  10.2053  10.2053  10.3151

     highest occupied level (ev):    11.0166

!    total energy              =    -380.57744076 Ry
     estimated scf accuracy    <          6.0E-09 Ry

     The total energy is the sum of the following terms:
     one-electron contribution =     -79.71257970 Ry
     hartree contribution      =      69.93423596 Ry
     xc contribution           =    -102.67759892 Ry
     ewald contribution        =    -268.12149809 Ry

     convergence has been achieved in  13 iterations

     negative rho (up, down):  1.581E-02 0.000E+00

     Forces acting on atoms (cartesian axes, Ry/au):

     atom    1 type  1   force =     0.00000000    0.00000000   -0.00000296
     atom    2 type  2   force =     0.00000000    0.00000000    0.00008230
     atom    3 type  3   force =     0.00000000    0.00000000    0.00014322
     atom    4 type  3   force =     0.00000000    0.00000000   -0.00011128
     atom    5 type  3   force =     0.00000000    0.00000000   -0.00011128

     Total force =     0.000228     Total SCF correction =     0.000128
     SCF correction compared to forces is large: reduce conv_thr to get better values


     Computing stress (Cartesian axis) and pressure


     negative rho (up, down):  1.581E-02 0.000E+00
          total   stress  (Ry/bohr**3)                   (kbar)     P=        1.65
   0.00001190   0.00000000   0.00000000            1.75        0.00        0.00
   0.00000000   0.00001190   0.00000000            0.00        1.75        0.00
   0.00000000   0.00000000   0.00000986            0.00        0.00        1.45


     Writing all to output data dir ./pto_ener.save/
 
     init_run     :     11.76s CPU     12.55s WALL (       1 calls)
     electrons    :    483.70s CPU    500.15s WALL (       1 calls)
     forces       :      2.28s CPU      2.51s WALL (       1 calls)
     stress       :     15.61s CPU     15.89s WALL (       1 calls)

     Called by init_run:
     wfcinit      :      7.35s CPU      7.70s WALL (       1 calls)
     potinit      :      0.10s CPU      0.17s WALL (       1 calls)
     hinit0       :      3.59s CPU      3.76s WALL (       1 calls)

     Called by electrons:
     c_bands      :    435.94s CPU    449.81s WALL (      13 calls)
     sum_band     :     39.75s CPU     41.21s WALL (      13 calls)
     v_of_rho     :      0.38s CPU      0.43s WALL (      14 calls)
     newd         :      7.96s CPU      8.98s WALL (      14 calls)
     mix_rho      :      0.23s CPU      0.25s WALL (      13 calls)

     Called by c_bands:
     init_us_2    :     10.68s CPU     10.76s WALL (     870 calls)
     init_us_2:cp :     10.65s CPU     10.75s WALL (     870 calls)
     ccgdiagg     :    380.75s CPU    392.95s WALL (     390 calls)
     wfcrot       :     55.70s CPU     56.79s WALL (     390 calls)

     Called by *cgdiagg:
     h_psi        :    295.85s CPU    303.41s WALL (   32979 calls)
     s_psi        :     72.15s CPU     75.81s WALL (   65568 calls)

     Called by h_psi:
     h_psi:calbec :     37.57s CPU     38.85s WALL (   32979 calls)
     vloc_psi     :    217.94s CPU    222.82s WALL (   32979 calls)
     add_vuspsi   :     37.27s CPU     39.03s WALL (   32979 calls)
     hs_1psi      :    283.33s CPU    291.18s WALL (   32589 calls)
     s_1psi       :     72.53s CPU     75.10s WALL (   32589 calls)

     General routines
     calbec       :     73.12s CPU     76.93s WALL (   66108 calls)
     fft          :      0.14s CPU      0.17s WALL (      64 calls)
     ffts         :      0.03s CPU      0.03s WALL (      13 calls)
     fftw         :    198.20s CPU    201.90s WALL (   91458 calls)
 
     Parallel routines
 
     PWSCF        :   8m34.72s CPU   8m55.22s WALL

 
   This run was terminated on:  13:47:32  10Apr2022            

=------------------------------------------------------------------------------=
   JOB DONE.
=------------------------------------------------------------------------------=
