
     Program PWSCF v.7.0 starts on 10Apr2022 at 13:40:59 

     This program is part of the open-source Quantum ESPRESSO suite
     for quantum simulation of materials; please cite
         "P. Giannozzi et al., J. Phys.:Condens. Matter 21 395502 (2009);
         "P. Giannozzi et al., J. Phys.:Condens. Matter 29 465901 (2017);
         "P. Giannozzi et al., J. Chem. Phys. 152 154105 (2020);
          URL http://www.quantum-espresso.org", 
     in publications or presentations arising from this work. More details at
     http://www.quantum-espresso.org/quote

     Parallel version (MPI), running on     1 processors

     MPI processes distributed on     1 nodes
     90036 MiB available memory on the printing compute node when the environment starts
 
     Waiting for input...
     Reading input from standard input
Warning: card &CELL ignored
Warning: card  CELL_DYNAMICS = 'BFGS', ignored
Warning: card  PRESS=0.1D0, ignored
Warning: card / ignored

     Current dimensions of program PWSCF are:
     Max number of different atomic species (ntypx) = 10
     Max number of k-points (npk) =  40000
     Max angular momentum in pseudopotentials (lmaxx) =  4
     Message from routine setup:
     using ibrav=0 with symmetry is DISCOURAGED, use correct ibrav instead

     Subspace diagonalization in iterative solution of the eigenvalue problem:
     a serial algorithm will be used

 
     G-vector sticks info
     --------------------
     sticks:   dense  smooth     PW     G-vecs:    dense   smooth      PW
     Sum        1685    1685    481                54933    54933    8249
 
     Using Slab Decomposition
 


     bravais-lattice index     =            0
     lattice parameter (alat)  =       7.2864  a.u.
     unit-cell volume          =     406.4772 (a.u.)^3
     number of atoms/cell      =            5
     number of atomic types    =            3
     number of electrons       =        44.00
     number of Kohn-Sham states=           22
     kinetic-energy cutoff     =     100.0000  Ry
     charge density cutoff     =     400.0000  Ry
     scf convergence threshold =      1.0E-08
     mixing beta               =       0.7000
     number of iterations used =            8  plain     mixing
     Exchange-correlation= SLA  PZ   NOGX NOGC
                           (   1   1   0   0   0   0   0)

     celldm(1)=   7.286431  celldm(2)=   0.000000  celldm(3)=   0.000000
     celldm(4)=   0.000000  celldm(5)=   0.000000  celldm(6)=   0.000000

     crystal axes: (cart. coord. in units of alat)
               a(1) = (   1.000000   0.000000   0.000000 )  
               a(2) = (   0.000000   1.000000   0.000000 )  
               a(3) = (   0.000000   0.000000   1.050731 )  

     reciprocal axes: (cart. coord. in units 2 pi/alat)
               b(1) = (  1.000000  0.000000  0.000000 )  
               b(2) = (  0.000000  1.000000  0.000000 )  
               b(3) = (  0.000000  0.000000  0.951718 )  


     PseudoPot. # 1 for Pb read from file:
     ./Pb_LDA.UPF
     MD5 check sum: 062a37469794d955244864f8fe2e5624
     Pseudo is Ultrasoft + core correction, Zval = 14.0
     Generated by new atomic code, or converted to UPF format
     Using radial grid of  899 points,  6 beta functions with: 
                l(1) =   0
                l(2) =   0
                l(3) =   1
                l(4) =   1
                l(5) =   2
                l(6) =   2
     Q(r) pseudized with  6 coefficients,  rinner =    1.000   1.000   1.000
                                                       1.000   1.000

     PseudoPot. # 2 for Ti read from file:
     ./Ti_LDA.UPF
     MD5 check sum: 0d9f225c038fe889ca2a701dcc8d72cb
     Pseudo is Ultrasoft + core correction, Zval = 12.0
     Generated by new atomic code, or converted to UPF format
     Using radial grid of  851 points,  6 beta functions with: 
                l(1) =   0
                l(2) =   0
                l(3) =   1
                l(4) =   1
                l(5) =   2
                l(6) =   2
     Q(r) pseudized with  6 coefficients,  rinner =    1.000   1.000   1.000
                                                       1.000   1.000

     PseudoPot. # 3 for O  read from file:
     ./O_LDA.UPF
     MD5 check sum: 194b818514d2a7dbb603bb78519a4f40
     Pseudo is Ultrasoft + core correction, Zval =  6.0
     Generated by new atomic code, or converted to UPF format
     Using radial grid of  737 points,  5 beta functions with: 
                l(1) =   0
                l(2) =   0
                l(3) =   1
                l(4) =   1
                l(5) =   2
     Q(r) pseudized with  8 coefficients,  rinner =    0.900   0.900   0.900
                                                       0.900   0.900

     atomic species   valence    mass     pseudopotential
        Pb            14.00   207.20000     Pb( 1.00)
        Ti            12.00    47.88000     Ti( 1.00)
        O              6.00    16.00000     O ( 1.00)

      8 Sym. Ops. (no inversion) found



   Cartesian axes

     site n.     atom                  positions (alat units)
         1           Pb  tau(   1) = (   0.0000000   0.0000000   1.0561849  )
         2           Ti  tau(   2) = (   0.5000000   0.5000000   0.5668825  )
         3           O   tau(   3) = (   0.5000000   0.5000000   0.1045254  )
         4           O   tau(   4) = (   0.5000000   0.0000000   0.6425761  )
         5           O   tau(   5) = (   0.0000000   0.5000000   0.6425761  )

     number of k points=    60
                       cart. coord. in units 2pi/alat
        k(    1) = (   0.0000000   0.0000000   0.0000000), wk =   0.0035273
        k(    2) = (   0.0000000   0.0000000   0.1359597), wk =   0.0070547
        k(    3) = (   0.0000000   0.0000000   0.2719195), wk =   0.0070547
        k(    4) = (   0.0000000   0.0000000   0.4078792), wk =   0.0070547
        k(    5) = (   0.0000000   0.1111111   0.0000000), wk =   0.0141093
        k(    6) = (   0.0000000   0.1111111   0.1359597), wk =   0.0282187
        k(    7) = (   0.0000000   0.1111111   0.2719195), wk =   0.0282187
        k(    8) = (   0.0000000   0.1111111   0.4078792), wk =   0.0282187
        k(    9) = (   0.0000000   0.2222222   0.0000000), wk =   0.0141093
        k(   10) = (   0.0000000   0.2222222   0.1359597), wk =   0.0282187
        k(   11) = (   0.0000000   0.2222222   0.2719195), wk =   0.0282187
        k(   12) = (   0.0000000   0.2222222   0.4078792), wk =   0.0282187
        k(   13) = (   0.0000000   0.3333333   0.0000000), wk =   0.0141093
        k(   14) = (   0.0000000   0.3333333   0.1359597), wk =   0.0282187
        k(   15) = (   0.0000000   0.3333333   0.2719195), wk =   0.0282187
        k(   16) = (   0.0000000   0.3333333   0.4078792), wk =   0.0282187
        k(   17) = (   0.0000000   0.4444444   0.0000000), wk =   0.0141093
        k(   18) = (   0.0000000   0.4444444   0.1359597), wk =   0.0282187
        k(   19) = (   0.0000000   0.4444444   0.2719195), wk =   0.0282187
        k(   20) = (   0.0000000   0.4444444   0.4078792), wk =   0.0282187
        k(   21) = (   0.1111111   0.1111111   0.0000000), wk =   0.0141093
        k(   22) = (   0.1111111   0.1111111   0.1359597), wk =   0.0282187
        k(   23) = (   0.1111111   0.1111111   0.2719195), wk =   0.0282187
        k(   24) = (   0.1111111   0.1111111   0.4078792), wk =   0.0282187
        k(   25) = (   0.1111111   0.2222222   0.0000000), wk =   0.0282187
        k(   26) = (   0.1111111   0.2222222   0.1359597), wk =   0.0564374
        k(   27) = (   0.1111111   0.2222222   0.2719195), wk =   0.0564374
        k(   28) = (   0.1111111   0.2222222   0.4078792), wk =   0.0564374
        k(   29) = (   0.1111111   0.3333333   0.0000000), wk =   0.0282187
        k(   30) = (   0.1111111   0.3333333   0.1359597), wk =   0.0564374
        k(   31) = (   0.1111111   0.3333333   0.2719195), wk =   0.0564374
        k(   32) = (   0.1111111   0.3333333   0.4078792), wk =   0.0564374
        k(   33) = (   0.1111111   0.4444444   0.0000000), wk =   0.0282187
        k(   34) = (   0.1111111   0.4444444   0.1359597), wk =   0.0564374
        k(   35) = (   0.1111111   0.4444444   0.2719195), wk =   0.0564374
        k(   36) = (   0.1111111   0.4444444   0.4078792), wk =   0.0564374
        k(   37) = (   0.2222222   0.2222222   0.0000000), wk =   0.0141093
        k(   38) = (   0.2222222   0.2222222   0.1359597), wk =   0.0282187
        k(   39) = (   0.2222222   0.2222222   0.2719195), wk =   0.0282187
        k(   40) = (   0.2222222   0.2222222   0.4078792), wk =   0.0282187
        k(   41) = (   0.2222222   0.3333333   0.0000000), wk =   0.0282187
        k(   42) = (   0.2222222   0.3333333   0.1359597), wk =   0.0564374
        k(   43) = (   0.2222222   0.3333333   0.2719195), wk =   0.0564374
        k(   44) = (   0.2222222   0.3333333   0.4078792), wk =   0.0564374
        k(   45) = (   0.2222222   0.4444444   0.0000000), wk =   0.0282187
        k(   46) = (   0.2222222   0.4444444   0.1359597), wk =   0.0564374
        k(   47) = (   0.2222222   0.4444444   0.2719195), wk =   0.0564374
        k(   48) = (   0.2222222   0.4444444   0.4078792), wk =   0.0564374
        k(   49) = (   0.3333333   0.3333333   0.0000000), wk =   0.0141093
        k(   50) = (   0.3333333   0.3333333   0.1359597), wk =   0.0282187
        k(   51) = (   0.3333333   0.3333333   0.2719195), wk =   0.0282187
        k(   52) = (   0.3333333   0.3333333   0.4078792), wk =   0.0282187
        k(   53) = (   0.3333333   0.4444444   0.0000000), wk =   0.0282187
        k(   54) = (   0.3333333   0.4444444   0.1359597), wk =   0.0564374
        k(   55) = (   0.3333333   0.4444444   0.2719195), wk =   0.0564374
        k(   56) = (   0.3333333   0.4444444   0.4078792), wk =   0.0564374
        k(   57) = (   0.4444444   0.4444444   0.0000000), wk =   0.0141093
        k(   58) = (   0.4444444   0.4444444   0.1359597), wk =   0.0282187
        k(   59) = (   0.4444444   0.4444444   0.2719195), wk =   0.0282187
        k(   60) = (   0.4444444   0.4444444   0.4078792), wk =   0.0282187

     Dense  grid:    54933 G-vectors     FFT dimensions: (  48,  48,  50)

     Estimated max dynamical RAM per process >     355.81 MB

     Check: negative core charge=   -0.000003

     Initial potential from superposition of free atoms

     starting charge      42.9982, renormalised to      44.0000

     negative rho (up, down):  1.705E-02 0.000E+00
     Starting wfcs are   31 randomized atomic wfcs

     total cpu time spent up to now is       21.7 secs

     Self-consistent Calculation

     iteration #  1     ecut=   100.00 Ry     beta= 0.70
     CG style diagonalization
     ethr =  1.00E-02,  avg # of iterations =  2.1

     negative rho (up, down):  1.433E-02 0.000E+00

     total cpu time spent up to now is       62.3 secs

     total energy              =    -380.06141704 Ry
     estimated scf accuracy    <       1.02586002 Ry

     iteration #  2     ecut=   100.00 Ry     beta= 0.70
     CG style diagonalization
     ethr =  2.33E-03,  avg # of iterations =  4.9

     negative rho (up, down):  1.504E-02 0.000E+00

     total cpu time spent up to now is      138.7 secs

     total energy              =    -379.76733031 Ry
     estimated scf accuracy    <       3.87744446 Ry

     iteration #  3     ecut=   100.00 Ry     beta= 0.70
     CG style diagonalization
     ethr =  2.33E-03,  avg # of iterations =  4.5

     negative rho (up, down):  1.563E-02 0.000E+00

     total cpu time spent up to now is      209.2 secs

     total energy              =    -380.54821420 Ry
     estimated scf accuracy    <       0.25101541 Ry

     iteration #  4     ecut=   100.00 Ry     beta= 0.70
     CG style diagonalization
     ethr =  5.70E-04,  avg # of iterations =  3.4

     negative rho (up, down):  1.567E-02 0.000E+00

     total cpu time spent up to now is      263.2 secs

     total energy              =    -380.56093320 Ry
     estimated scf accuracy    <       0.05293394 Ry

     iteration #  5     ecut=   100.00 Ry     beta= 0.70
     CG style diagonalization
     ethr =  1.20E-04,  avg # of iterations =  3.8

     negative rho (up, down):  1.566E-02 0.000E+00

     total cpu time spent up to now is      322.8 secs

     total energy              =    -380.57571522 Ry
     estimated scf accuracy    <       0.00487060 Ry

     iteration #  6     ecut=   100.00 Ry     beta= 0.70
     CG style diagonalization
     ethr =  1.11E-05,  avg # of iterations =  4.1

     negative rho (up, down):  1.565E-02 0.000E+00

     total cpu time spent up to now is      387.8 secs

     total energy              =    -380.57767340 Ry
     estimated scf accuracy    <       0.00734111 Ry

     iteration #  7     ecut=   100.00 Ry     beta= 0.70
     CG style diagonalization
     ethr =  1.11E-05,  avg # of iterations =  3.2

     negative rho (up, down):  1.566E-02 0.000E+00

     total cpu time spent up to now is      437.5 secs

     total energy              =    -380.57708562 Ry
     estimated scf accuracy    <       0.00293026 Ry

     iteration #  8     ecut=   100.00 Ry     beta= 0.70
     CG style diagonalization
     ethr =  6.66E-06,  avg # of iterations =  3.6

     negative rho (up, down):  1.569E-02 0.000E+00

     total cpu time spent up to now is      493.8 secs

     total energy              =    -380.57765581 Ry
     estimated scf accuracy    <       0.00001062 Ry

     iteration #  9     ecut=   100.00 Ry     beta= 0.70
     CG style diagonalization
     c_bands:  1 eigenvalues not converged
     c_bands:  1 eigenvalues not converged
     c_bands:  1 eigenvalues not converged
     c_bands:  1 eigenvalues not converged
     c_bands:  1 eigenvalues not converged
     ethr =  2.41E-08,  avg # of iterations =  7.9

     negative rho (up, down):  1.572E-02 0.000E+00

     total cpu time spent up to now is      616.4 secs

     total energy              =    -380.57771653 Ry
     estimated scf accuracy    <       0.00001031 Ry

     iteration # 10     ecut=   100.00 Ry     beta= 0.70
     CG style diagonalization
     ethr =  2.34E-08,  avg # of iterations =  3.3

     negative rho (up, down):  1.580E-02 0.000E+00

     total cpu time spent up to now is      667.3 secs

     total energy              =    -380.57771457 Ry
     estimated scf accuracy    <       0.00000631 Ry

     iteration # 11     ecut=   100.00 Ry     beta= 0.70
     CG style diagonalization
     ethr =  1.43E-08,  avg # of iterations =  4.1

     negative rho (up, down):  1.580E-02 0.000E+00

     total cpu time spent up to now is      731.6 secs

     total energy              =    -380.57771623 Ry
     estimated scf accuracy    <       0.00000048 Ry

     iteration # 12     ecut=   100.00 Ry     beta= 0.70
     CG style diagonalization
     ethr =  1.08E-09,  avg # of iterations =  7.4

     negative rho (up, down):  1.581E-02 0.000E+00

     total cpu time spent up to now is      847.3 secs

     total energy              =    -380.57771743 Ry
     estimated scf accuracy    <       0.00000002 Ry

     iteration # 13     ecut=   100.00 Ry     beta= 0.70
     CG style diagonalization
     c_bands:  1 eigenvalues not converged
     c_bands:  1 eigenvalues not converged
     c_bands:  1 eigenvalues not converged
     c_bands:  1 eigenvalues not converged
     c_bands:  1 eigenvalues not converged
     c_bands:  1 eigenvalues not converged
     ethr =  4.41E-11,  avg # of iterations = 10.9

     negative rho (up, down):  1.581E-02 0.000E+00

     total cpu time spent up to now is     1018.3 secs

     End of self-consistent calculation

          k = 0.0000 0.0000 0.0000 (  6893 PWs)   bands (ev):

   -45.1688 -21.8497 -21.7662 -21.7662  -7.1654  -6.0127  -5.7579  -4.4139
    -4.4139  -4.3743  -4.2568  -4.1428   4.8409   6.7347   6.7347   7.1088
     8.7102   8.7102   8.9508   9.2862   9.4412   9.4412

          k = 0.0000 0.0000 0.1360 (  6897 PWs)   bands (ev):

   -45.1687 -21.8586 -21.7658 -21.7658  -7.0889  -5.9900  -5.7312  -4.4206
    -4.4206  -4.3738  -4.2521  -4.1712   4.4473   6.7573   6.7573   7.3950
     8.5992   8.5992   8.9190   9.1175   9.4954   9.4954

          k = 0.0000 0.0000 0.2719 (  6868 PWs)   bands (ev):

   -45.1684 -21.8784 -21.7651 -21.7651  -6.9089  -5.9363  -5.6735  -4.4356
    -4.4356  -4.3725  -4.2422  -4.2378   3.8415   6.7988   6.7988   7.1717
     8.4156   8.4156   8.8495   9.5791   9.5791   9.5842

          k = 0.0000 0.0000 0.4079 (  6860 PWs)   bands (ev):

   -45.1682 -21.8942 -21.7644 -21.7644  -6.7547  -5.8901  -5.6310  -4.4476
    -4.4476  -4.3715  -4.2943  -4.2351   3.4821   6.6816   6.8207   6.8207
     8.3126   8.3126   8.7958   9.6295   9.6295  10.4756

          k = 0.0000 0.1111 0.0000 (  6879 PWs)   bands (ev):

   -45.1686 -21.8493 -21.7757 -21.7658  -7.0985  -5.9967  -5.7433  -4.4261
    -4.4132  -4.3813  -4.2583  -4.1363   4.5872   6.7669   6.7848   7.1878
     8.6264   8.7223   8.9700   9.2069   9.2529   9.5293

          k = 0.0000 0.1111 0.1360 (  6866 PWs)   bands (ev):

   -45.1685 -21.8582 -21.7754 -21.7654  -7.0241  -5.9769  -5.7161  -4.4298
    -4.4200  -4.3808  -4.2543  -4.1583   4.2736   6.7148   6.8096   7.4416
     8.4513   8.6000   9.0059   9.0386   9.3196   9.5743

          k = 0.0000 0.1111 0.2719 (  6865 PWs)   bands (ev):

   -45.1682 -21.8779 -21.7745 -21.7646  -6.8508  -5.9302  -5.6558  -4.4370
    -4.4352  -4.3798  -4.2482  -4.2083   3.7421   6.6365   6.8549   7.3060
     8.1909   8.4115   9.0267   9.0806   9.4121   9.9305

          k = 0.0000 0.1111 0.4079 (  6886 PWs)   bands (ev):

   -45.1680 -21.8937 -21.7739 -21.7640  -6.7046  -5.8902  -5.6088  -4.4474
    -4.4422  -4.3790  -4.2573  -4.2378   3.4106   6.4401   6.8787   7.0068
     8.1122   8.3107   9.0095   9.2047   9.4648  10.5271

          k = 0.0000 0.2222 0.0000 (  6863 PWs)   bands (ev):

   -45.1682 -21.8484 -21.7998 -21.7648  -6.9219  -5.9562  -5.7088  -4.4517
    -4.4113  -4.3988  -4.2605  -4.1281   4.1117   6.8059   6.9251   7.0236
     8.6855   8.7091   8.8873   8.8971   9.1909   9.6358

          k = 0.0000 0.2222 0.1360 (  6868 PWs)   bands (ev):

   -45.1680 -21.8571 -21.7994 -21.7644  -6.8554  -5.9424  -5.6793  -4.4472
    -4.4184  -4.3986  -4.2567  -4.1361   3.9066   6.6517   6.9559   7.2162
     8.4283   8.5477   8.7808   8.9957   9.1070   9.8188

          k = 0.0000 0.2222 0.2719 (  6879 PWs)   bands (ev):

   -45.1678 -21.8767 -21.7984 -21.7636  -6.7067  -5.9077  -5.6083  -4.4342
    -4.4335  -4.3982  -4.2592  -4.1477   3.5106   6.4455   7.0116   7.2337
     7.9887   8.3613   8.4431   9.0954   9.3346  10.1377

          k = 0.0000 0.2222 0.4079 (  6885 PWs)   bands (ev):

   -45.1675 -21.8923 -21.7977 -21.7629  -6.5904  -5.8733  -5.5460  -4.4468
    -4.4214  -4.3979  -4.2685  -4.1531   3.2400   6.1951   7.0388   7.0562
     7.7932   8.2766   8.4240   9.1453   9.4395  10.4063

          k = 0.0000 0.3333 0.0000 (  6853 PWs)   bands (ev):

   -45.1676 -21.8473 -21.8269 -21.7636  -6.7059  -5.9047  -5.6816  -4.4756
    -4.4187  -4.4090  -4.2541  -4.1367   3.7237   6.4317   7.0959   7.1274
     8.3287   8.3559   8.8015   8.8517   9.2868  10.2126

          k = 0.0000 0.3333 0.1360 (  6858 PWs)   bands (ev):

   -45.1675 -21.8558 -21.8265 -21.7633  -6.6555  -5.8910  -5.6487  -4.4639
    -4.4192  -4.4161  -4.2440  -4.1325   3.5803   6.3904   7.0866   7.1692
     8.0381   8.2767   8.8352   8.8771   9.0989  10.2928

          k = 0.0000 0.3333 0.2719 (  6868 PWs)   bands (ev):

   -45.1672 -21.8751 -21.8255 -21.7624  -6.5566  -5.8500  -5.5595  -4.4339
    -4.4331  -4.4190  -4.2527  -4.0991   3.2846   6.2538   6.9470   7.2417
     7.7101   8.1604   8.1913   8.9135   9.5317  10.2671

          k = 0.0000 0.3333 0.4079 (  6882 PWs)   bands (ev):

   -45.1670 -21.8906 -21.8246 -21.7617  -6.4950  -5.8029  -5.4718  -4.4462
    -4.4193  -4.4057  -4.2785  -4.0622   3.0695   6.0212   6.7813   7.2682
     7.6546   7.8434   8.1260   8.9342   9.8224  10.1442

          k = 0.0000 0.4444 0.0000 (  6822 PWs)   bands (ev):

   -45.1673 -21.8467 -21.8443 -21.7629  -6.5539  -5.8572  -5.6836  -4.4897
    -4.4315  -4.4076  -4.2334  -4.1626   3.5279   6.0960   7.3071   7.3300
     7.9162   8.0304   8.7324   8.8842   9.3146  10.8931

          k = 0.0000 0.4444 0.1360 (  6839 PWs)   bands (ev):

   -45.1672 -21.8548 -21.8443 -21.7625  -6.5224  -5.8324  -5.6509  -4.4763
    -4.4318  -4.4152  -4.2066  -4.1601   3.4097   6.0886   7.2331   7.3957
     7.6167   7.9603   8.8836   8.9272   9.0341  10.7426

          k = 0.0000 0.4444 0.2719 (  6862 PWs)   bands (ev):

   -45.1669 -21.8740 -21.8431 -21.7616  -6.4751  -5.7704  -5.5449  -4.4437
    -4.4328  -4.4319  -4.2287  -4.0815   3.1610   6.0389   6.8682   7.3349
     7.5169   7.8496   8.2782   8.8825   9.5576  10.3664

          k = 0.0000 0.4444 0.4079 (  6876 PWs)   bands (ev):

   -45.1667 -21.8894 -21.8422 -21.7609  -6.4580  -5.7145  -5.4289  -4.4458
    -4.4331  -4.4128  -4.2651  -4.0116   2.9760   5.8931   6.5230   7.3632
     7.5271   7.8651   7.8672   8.8818   9.8333  10.1260

          k = 0.1111 0.1111 0.0000 (  6861 PWs)   bands (ev):

   -45.1685 -21.8489 -21.7754 -21.7752  -7.0320  -5.9804  -5.7334  -4.4274
    -4.4232  -4.3880  -4.2519  -4.1301   4.3868   6.7393   6.8530   7.2541
     8.4086   8.7436   8.9214   9.0243   9.4394   9.5780

          k = 0.1111 0.1111 0.1360 (  6876 PWs)   bands (ev):

   -45.1683 -21.8577 -21.7751 -21.7748  -6.9595  -5.9637  -5.7062  -4.4314
    -4.4264  -4.3877  -4.2478  -4.1467   4.1352   6.7102   6.7574   7.4907
     8.3167   8.5489   8.8681   9.0746   9.4458   9.5692

          k = 0.1111 0.1111 0.2719 (  6884 PWs)   bands (ev):

   -45.1680 -21.8774 -21.7742 -21.7740  -6.7918  -5.9248  -5.6444  -4.4489
    -4.4203  -4.3871  -4.2419  -4.1863   3.6712   6.6322   6.6795   7.3740
     8.1956   8.2441   8.8631   9.1199   9.4662   9.9529

          k = 0.1111 0.1111 0.4079 (  6877 PWs)   bands (ev):

   -45.1678 -21.8931 -21.7735 -21.7734  -6.6523  -5.8922  -5.5939  -4.4617
    -4.4107  -4.3871  -4.2414  -4.2207   3.3662   6.4493   6.5598   7.1777
     8.1472   8.1761   8.8878   9.1217   9.4894  10.4671

          k = 0.1111 0.2222 0.0000 (  6874 PWs)   bands (ev):

   -45.1680 -21.8480 -21.7993 -21.7743  -6.8569  -5.9395  -5.7112  -4.4530
    -4.4209  -4.3957  -4.2424  -4.1223   3.9778   6.7278   6.9951   7.0903
     8.3002   8.3763   8.9457   9.0753   9.3292   9.8033

          k = 0.1111 0.2222 0.1360 (  6872 PWs)   bands (ev):

   -45.1679 -21.8567 -21.7989 -21.7739  -6.7912  -5.9295  -5.6830  -4.4478
    -4.4262  -4.3940  -4.2372  -4.1260   3.8224   6.6314   6.7723   7.3223
     8.1282   8.3632   8.8623   9.1245   9.2468   9.8611

          k = 0.1111 0.2222 0.2719 (  6882 PWs)   bands (ev):

   -45.1676 -21.8762 -21.7980 -21.7730  -6.6452  -5.9052  -5.6135  -4.4488
    -4.4194  -4.3884  -4.2349  -4.1327   3.4933   6.4101   6.6943   7.2334
     7.8520   8.1137   8.7894   9.1676   9.3958  10.0684

          k = 0.1111 0.2222 0.4079 (  6871 PWs)   bands (ev):

   -45.1674 -21.8917 -21.7972 -21.7724  -6.5321  -5.8821  -5.5498  -4.4569
    -4.4053  -4.3755  -4.2441  -4.1372   3.2517   6.1859   6.5986   7.0301
     7.7873   8.0329   8.7102   9.2166   9.5053  10.2467

          k = 0.1111 0.3333 0.0000 (  6867 PWs)   bands (ev):

   -45.1675 -21.8469 -21.8264 -21.7731  -6.6434  -5.8890  -5.6982  -4.4738
    -4.4149  -4.3968  -4.2339  -4.1309   3.6218   6.4287   7.0210   7.2130
     7.9104   8.3959   8.6229   9.0469   9.3798  10.2752

          k = 0.1111 0.3333 0.1360 (  6853 PWs)   bands (ev):

   -45.1673 -21.8554 -21.8260 -21.7727  -6.5921  -5.8808  -5.6680  -4.4632
    -4.4201  -4.3924  -4.2227  -4.1226   3.5265   6.3868   6.7642   7.2612
     7.7990   8.3544   8.6527   9.1092   9.2141  10.2553

          k = 0.1111 0.3333 0.2719 (  6872 PWs)   bands (ev):

   -45.1671 -21.8747 -21.8250 -21.7718  -6.4924  -5.8538  -5.5840  -4.4476
    -4.4208  -4.3790  -4.2232  -4.0865   3.3053   6.2289   6.6109   7.0509
     7.3852   8.1773   8.7961   8.8929   9.5504  10.1169

          k = 0.1111 0.3333 0.4079 (  6863 PWs)   bands (ev):

   -45.1668 -21.8901 -21.8242 -21.7711  -6.4316  -5.8213  -5.4982  -4.4500
    -4.4078  -4.3561  -4.2436  -4.0496   3.1272   5.9906   6.6178   6.8163
     7.1288   8.0918   8.7870   8.9042   9.7570   9.9723

          k = 0.1111 0.4444 0.0000 (  6856 PWs)   bands (ev):

   -45.1671 -21.8463 -21.8438 -21.7723  -6.4933  -5.8428  -5.7097  -4.4816
    -4.4103  -4.3949  -4.2174  -4.1570   3.4357   6.1043   7.1282   7.4722
     7.6285   8.0534   8.6196   8.9996   9.4112  10.7534

          k = 0.1111 0.4444 0.1360 (  6854 PWs)   bands (ev):

   -45.1670 -21.8544 -21.8437 -21.7719  -6.4596  -5.8248  -5.6809  -4.4689
    -4.4150  -4.3906  -4.1915  -4.1488   3.3659   6.0949   6.7833   7.3042
     7.7337   8.0885   8.6106   9.1472   9.1778  10.5570

          k = 0.1111 0.4444 0.2719 (  6859 PWs)   bands (ev):

   -45.1667 -21.8736 -21.8426 -21.7710  -6.4102  -5.7794  -5.5823  -4.4485
    -4.4128  -4.3810  -4.2025  -4.0692   3.1979   6.0360   6.5619   6.8003
     7.3493   8.3134   8.5030   8.9398   9.5620  10.1259

          k = 0.1111 0.4444 0.4079 (  6858 PWs)   bands (ev):

   -45.1665 -21.8889 -21.8417 -21.7704  -6.3941  -5.7390  -5.4710  -4.4484
    -4.3915  -4.3663  -4.2303  -3.9995   3.0563   5.8748   6.4524   6.6162
     6.9948   8.2409   8.6142   8.8569   9.5265  10.0994

          k = 0.2222 0.2222 0.0000 (  6858 PWs)   bands (ev):

   -45.1675 -21.8470 -21.7984 -21.7979  -6.6874  -5.8980  -5.7194  -4.4570
    -4.4281  -4.3821  -4.2089  -4.1147   3.6708   6.6698   7.0099   7.1358
     7.8593   7.9972   8.8914   9.1638   9.4446  10.0582

          k = 0.2222 0.2222 0.1360 (  6867 PWs)   bands (ev):

   -45.1674 -21.8556 -21.7980 -21.7976  -6.6251  -5.8972  -5.6939  -4.4467
    -4.4332  -4.3756  -4.2003  -4.1077   3.6068   6.5351   6.6410   7.1797
     7.8552   8.0090   8.9890   9.1161   9.4745   9.9597

          k = 0.2222 0.2222 0.2719 (  6868 PWs)   bands (ev):

   -45.1671 -21.8750 -21.7970 -21.7967  -6.4910  -5.8956  -5.6249  -4.4409
    -4.4221  -4.3540  -4.1868  -4.0953   3.4316   6.2456   6.3779   6.9967
     7.6358   7.7250   9.0642   9.3527   9.5840   9.8654

          k = 0.2222 0.2222 0.4079 (  6872 PWs)   bands (ev):

   -45.1669 -21.8904 -21.7962 -21.7960  -6.3926  -5.8948  -5.5540  -4.4436
    -4.4055  -4.3206  -4.1871  -4.0884   3.2709   6.0339   6.2755   6.6800
     7.4693   7.6833   9.0616   9.4234   9.6876   9.8095

          k = 0.2222 0.3333 0.0000 (  6853 PWs)   bands (ev):

   -45.1670 -21.8458 -21.8251 -21.7968  -6.4846  -5.8497  -5.7353  -4.4613
    -4.4166  -4.3547  -4.1832  -4.1226   3.3708   6.4358   6.8691   7.3427
     7.4687   8.0186   8.5085   9.2224   9.5447  10.2546

          k = 0.2222 0.3333 0.1360 (  6857 PWs)   bands (ev):

   -45.1669 -21.8543 -21.8247 -21.7965  -6.4305  -5.8551  -5.7130  -4.4486
    -4.4177  -4.3420  -4.1698  -4.1036   3.3710   6.3567   6.5375   6.9159
     7.5896   8.0590   8.7814   9.1618   9.5634  10.0691

          k = 0.2222 0.3333 0.2719 (  6865 PWs)   bands (ev):

   -45.1666 -21.8735 -21.8238 -21.7956  -6.3284  -5.8629  -5.6412  -4.4291
    -4.4069  -4.3110  -4.1489  -4.0565   3.3383   6.0930   6.1292   6.6804
     7.2120   7.7317   9.1222   9.4025   9.6085   9.7615

          k = 0.2222 0.3333 0.4079 (  6864 PWs)   bands (ev):

   -45.1664 -21.8889 -21.8230 -21.7949  -6.2708  -5.8646  -5.5566  -4.4254
    -4.3847  -4.2762  -4.1430  -4.0168   3.2762   5.8324   6.0327   6.4581
     6.8709   7.6143   9.0472   9.4346   9.5182   9.9297

          k = 0.2222 0.4444 0.0000 (  6865 PWs)   bands (ev):

   -45.1667 -21.8451 -21.8425 -21.7960  -6.3450  -5.8083  -5.7593  -4.4600
    -4.4064  -4.3199  -4.1687  -4.1480   3.2008   6.1230   6.9646   7.1673
     7.6070   8.0643   8.1545   9.3009   9.5354  10.3572

          k = 0.2222 0.4444 0.1360 (  6863 PWs)   bands (ev):

   -45.1665 -21.8533 -21.8424 -21.7956  -6.3022  -5.8082  -5.7432  -4.4460
    -4.4055  -4.3022  -4.1523  -4.1203   3.2297   6.1073   6.4730   6.8169
     7.5408   8.2220   8.4768   9.2265   9.5729  10.0662

          k = 0.2222 0.4444 0.2719 (  6851 PWs)   bands (ev):

   -45.1663 -21.8724 -21.8414 -21.7947  -6.2431  -5.8028  -5.6662  -4.4239
    -4.3889  -4.2701  -4.1342  -4.0366   3.2723   5.9543   6.0225   6.3775
     7.1146   7.8313   8.9367   9.3913   9.5312   9.7932

          k = 0.2222 0.4444 0.4079 (  6863 PWs)   bands (ev):

   -45.1660 -21.8878 -21.8405 -21.7941  -6.2298  -5.7974  -5.5625  -4.4175
    -4.3595  -4.2438  -4.1256  -3.9673   3.2756   5.7719   5.8134   6.2027
     6.6895   7.6837   8.6242   9.4433   9.4848  10.1024

          k = 0.3333 0.3333 0.0000 (  6866 PWs)   bands (ev):

   -45.1665 -21.8447 -21.8237 -21.8236  -6.3079  -5.8042  -5.7658  -4.4485
    -4.3981  -4.3045  -4.1294  -4.1286   3.1015   6.4134   6.5090   7.3779
     7.5317   7.6753   8.3452   9.0643   9.8841  10.0245

          k = 0.3333 0.3333 0.1360 (  6846 PWs)   bands (ev):

   -45.1664 -21.8531 -21.8233 -21.8233  -6.2491  -5.8229  -5.7572  -4.4327
    -4.3954  -4.2813  -4.1121  -4.0978   3.1732   6.3376   6.3479   6.6040
     7.2511   8.0151   8.9265   8.9515   9.7301   9.8887

          k = 0.3333 0.3333 0.2719 (  6859 PWs)   bands (ev):

   -45.1661 -21.8721 -21.8225 -21.8224  -6.1463  -5.8630  -5.7020  -4.3968
    -4.3895  -4.2304  -4.0700  -4.0299   3.3319   5.8380   5.9163   6.3743
     7.0226   7.3590   8.8360   9.5847   9.6132   9.9068

          k = 0.3333 0.3333 0.4079 (  6870 PWs)   bands (ev):

   -45.1659 -21.8874 -21.8218 -21.8217  -6.1013  -5.8935  -5.6139  -4.3848
    -4.3685  -4.1856  -4.0357  -3.9767   3.4435   5.5934   5.5964   6.1952
     6.8614   6.9736   8.2981   9.8239   9.8603  10.0018

          k = 0.3333 0.4444 0.0000 (  6873 PWs)   bands (ev):

   -45.1661 -21.8439 -21.8410 -21.8227  -6.2021  -5.7809  -5.7653  -4.4411
    -4.3772  -4.2513  -4.1547  -4.0983   2.9366   6.1053   6.5444   7.2215
     7.6898   7.7685   8.0590   9.0304   9.7527  10.0693

          k = 0.3333 0.4444 0.1360 (  6854 PWs)   bands (ev):

   -45.1660 -21.8520 -21.8409 -21.8224  -6.1393  -5.7969  -5.7785  -4.4247
    -4.3729  -4.2160  -4.1219  -4.0751   3.0396   6.0879   6.3884   6.4784
     7.0860   8.1629   8.6628   9.0414   9.4063  10.0474

          k = 0.3333 0.4444 0.2719 (  6847 PWs)   bands (ev):

   -45.1657 -21.8711 -21.8400 -21.8216  -6.0479  -5.8299  -5.7496  -4.3891
    -4.3630  -4.1517  -4.0541  -4.0018   3.3001   5.7059   5.8965   6.0801
     6.8106   7.4086   8.3540   9.6232   9.6475  10.0442

          k = 0.3333 0.4444 0.4079 (  6854 PWs)   bands (ev):

   -45.1655 -21.8863 -21.8392 -21.8209  -6.0391  -5.8583  -5.6500  -4.3694
    -4.3470  -4.1073  -4.0019  -3.9315   3.5432   5.3553   5.5322   5.9753
     6.6291   6.9848   7.6551   9.9146  10.0085  10.1241

          k = 0.4444 0.4444 0.0000 (  6866 PWs)   bands (ev):

   -45.1658 -21.8431 -21.8404 -21.8396  -6.1430  -5.7491  -5.7438  -4.4316
    -4.3402  -4.2028  -4.1726  -4.0551   2.7676   5.9677   6.4007   7.3739
     7.4392   7.8943   8.0023   8.8492   9.3646  10.2883

          k = 0.4444 0.4444 0.1360 (  6876 PWs)   bands (ev):

   -45.1657 -21.8510 -21.8400 -21.8399  -6.0652  -5.7778  -5.7760  -4.4148
    -4.3373  -4.1529  -4.1210  -4.0403   2.9017   5.9513   6.3444   6.5685
     6.7155   8.2415   8.7226   8.8333   8.9605  10.2830

          k = 0.4444 0.4444 0.2719 (  6860 PWs)   bands (ev):

   -45.1654 -21.8700 -21.8391 -21.8391  -5.9159  -5.8422  -5.8072  -4.3771
    -4.3330  -4.0578  -4.0076  -3.9899   3.2708   5.7380   5.8049   5.9338
     6.4820   7.3418   7.7443   9.6806   9.6862  10.2711

          k = 0.4444 0.4444 0.4079 (  6861 PWs)   bands (ev):

   -45.1652 -21.8853 -21.8383 -21.8383  -5.9158  -5.8906  -5.7027  -4.3469
    -4.3304  -4.0056  -3.9224  -3.9194   3.6935   5.3043   5.3910   5.8257
     6.4720   6.7311   6.8869  10.1160  10.1294  10.2613

     highest occupied level (ev):    10.8931

!    total energy              =    -380.57771768 Ry
     estimated scf accuracy    <          4.0E-09 Ry

     The total energy is the sum of the following terms:
     one-electron contribution =     -79.71260187 Ry
     hartree contribution      =      69.93372907 Ry
     xc contribution           =    -102.67734679 Ry
     ewald contribution        =    -268.12149809 Ry

     convergence has been achieved in  13 iterations

     negative rho (up, down):  1.581E-02 0.000E+00

     Forces acting on atoms (cartesian axes, Ry/au):

     atom    1 type  1   force =     0.00000000    0.00000000    0.00001221
     atom    2 type  2   force =     0.00000000    0.00000000    0.00040690
     atom    3 type  3   force =     0.00000000    0.00000000   -0.00021747
     atom    4 type  3   force =     0.00000000    0.00000000   -0.00010082
     atom    5 type  3   force =     0.00000000    0.00000000   -0.00010082

     Total force =     0.000483     Total SCF correction =     0.000106
     SCF correction compared to forces is large: reduce conv_thr to get better values


     Computing stress (Cartesian axis) and pressure


     negative rho (up, down):  1.581E-02 0.000E+00
          total   stress  (Ry/bohr**3)                   (kbar)     P=        1.35
   0.00001169   0.00000000   0.00000000            1.72        0.00        0.00
   0.00000000   0.00001169   0.00000000            0.00        1.72        0.00
   0.00000000   0.00000000   0.00000409            0.00        0.00        0.60


     Writing all to output data dir ./pto_ener.save/
 
     init_run     :     19.19s CPU     19.94s WALL (       1 calls)
     electrons    :    967.76s CPU    996.63s WALL (       1 calls)
     forces       :      3.44s CPU      3.56s WALL (       1 calls)
     stress       :     23.88s CPU     24.16s WALL (       1 calls)

     Called by init_run:
     wfcinit      :     14.55s CPU     14.96s WALL (       1 calls)
     potinit      :      0.10s CPU      0.14s WALL (       1 calls)
     hinit0       :      3.79s CPU      3.89s WALL (       1 calls)

     Called by electrons:
     c_bands      :    889.12s CPU    915.07s WALL (      13 calls)
     sum_band     :     70.56s CPU     72.40s WALL (      13 calls)
     v_of_rho     :      0.39s CPU      0.42s WALL (      14 calls)
     newd         :      8.01s CPU      9.08s WALL (      14 calls)
     mix_rho      :      0.23s CPU      0.25s WALL (      13 calls)

     Called by c_bands:
     init_us_2    :     21.52s CPU     21.64s WALL (    1740 calls)
     init_us_2:cp :     21.46s CPU     21.61s WALL (    1740 calls)
     ccgdiagg     :    779.40s CPU    802.33s WALL (     780 calls)
     wfcrot       :    110.53s CPU    112.30s WALL (     780 calls)

     Called by *cgdiagg:
     h_psi        :    605.08s CPU    618.59s WALL (   68482 calls)
     s_psi        :    145.73s CPU    152.92s WALL (  136184 calls)

     Called by h_psi:
     h_psi:calbec :     76.55s CPU     78.73s WALL (   68482 calls)
     vloc_psi     :    446.53s CPU    455.64s WALL (   68482 calls)
     add_vuspsi   :     75.76s CPU     78.69s WALL (   68482 calls)
     hs_1psi      :    581.52s CPU    596.08s WALL (   67702 calls)
     s_1psi       :    146.97s CPU    151.77s WALL (   67702 calls)

     General routines
     calbec       :    148.56s CPU    155.72s WALL (  137264 calls)
     fft          :      0.14s CPU      0.17s WALL (      64 calls)
     ffts         :      0.03s CPU      0.03s WALL (      13 calls)
     fftw         :    406.58s CPU    413.73s WALL (  187964 calls)
 
     Parallel routines
 
     PWSCF        :  16m55.84s CPU  17m28.24s WALL

 
   This run was terminated on:  13:58:27  10Apr2022            

=------------------------------------------------------------------------------=
   JOB DONE.
=------------------------------------------------------------------------------=
