
     Program PWSCF v.7.0 starts on 10Apr2022 at 13:40:41 

     This program is part of the open-source Quantum ESPRESSO suite
     for quantum simulation of materials; please cite
         "P. Giannozzi et al., J. Phys.:Condens. Matter 21 395502 (2009);
         "P. Giannozzi et al., J. Phys.:Condens. Matter 29 465901 (2017);
         "P. Giannozzi et al., J. Chem. Phys. 152 154105 (2020);
          URL http://www.quantum-espresso.org", 
     in publications or presentations arising from this work. More details at
     http://www.quantum-espresso.org/quote

     Parallel version (MPI), running on     1 processors

     MPI processes distributed on     1 nodes
     91009 MiB available memory on the printing compute node when the environment starts
 
     Waiting for input...
     Reading input from standard input
Warning: card &CELL ignored
Warning: card  CELL_DYNAMICS = 'BFGS', ignored
Warning: card  PRESS=0.1D0, ignored
Warning: card / ignored

     Current dimensions of program PWSCF are:
     Max number of different atomic species (ntypx) = 10
     Max number of k-points (npk) =  40000
     Max angular momentum in pseudopotentials (lmaxx) =  4
     Message from routine setup:
     using ibrav=0 with symmetry is DISCOURAGED, use correct ibrav instead

     Subspace diagonalization in iterative solution of the eigenvalue problem:
     a serial algorithm will be used

 
     G-vector sticks info
     --------------------
     sticks:   dense  smooth     PW     G-vecs:    dense   smooth      PW
     Sum        1685    1685    481                54933    54933    8225
 
     Using Slab Decomposition
 


     bravais-lattice index     =            0
     lattice parameter (alat)  =       7.2864  a.u.
     unit-cell volume          =     406.4772 (a.u.)^3
     number of atoms/cell      =            5
     number of atomic types    =            3
     number of electrons       =        44.00
     number of Kohn-Sham states=           22
     kinetic-energy cutoff     =     100.0000  Ry
     charge density cutoff     =     400.0000  Ry
     scf convergence threshold =      1.0E-08
     mixing beta               =       0.7000
     number of iterations used =            8  plain     mixing
     Exchange-correlation= SLA  PZ   NOGX NOGC
                           (   1   1   0   0   0   0   0)

     celldm(1)=   7.286431  celldm(2)=   0.000000  celldm(3)=   0.000000
     celldm(4)=   0.000000  celldm(5)=   0.000000  celldm(6)=   0.000000

     crystal axes: (cart. coord. in units of alat)
               a(1) = (   1.000000   0.000000   0.000000 )  
               a(2) = (   0.000000   1.000000   0.000000 )  
               a(3) = (   0.000000   0.000000   1.050731 )  

     reciprocal axes: (cart. coord. in units 2 pi/alat)
               b(1) = (  1.000000  0.000000  0.000000 )  
               b(2) = (  0.000000  1.000000  0.000000 )  
               b(3) = (  0.000000  0.000000  0.951718 )  


     PseudoPot. # 1 for Pb read from file:
     ./Pb_LDA.UPF
     MD5 check sum: 062a37469794d955244864f8fe2e5624
     Pseudo is Ultrasoft + core correction, Zval = 14.0
     Generated by new atomic code, or converted to UPF format
     Using radial grid of  899 points,  6 beta functions with: 
                l(1) =   0
                l(2) =   0
                l(3) =   1
                l(4) =   1
                l(5) =   2
                l(6) =   2
     Q(r) pseudized with  6 coefficients,  rinner =    1.000   1.000   1.000
                                                       1.000   1.000

     PseudoPot. # 2 for Ti read from file:
     ./Ti_LDA.UPF
     MD5 check sum: 0d9f225c038fe889ca2a701dcc8d72cb
     Pseudo is Ultrasoft + core correction, Zval = 12.0
     Generated by new atomic code, or converted to UPF format
     Using radial grid of  851 points,  6 beta functions with: 
                l(1) =   0
                l(2) =   0
                l(3) =   1
                l(4) =   1
                l(5) =   2
                l(6) =   2
     Q(r) pseudized with  6 coefficients,  rinner =    1.000   1.000   1.000
                                                       1.000   1.000

     PseudoPot. # 3 for O  read from file:
     ./O_LDA.UPF
     MD5 check sum: 194b818514d2a7dbb603bb78519a4f40
     Pseudo is Ultrasoft + core correction, Zval =  6.0
     Generated by new atomic code, or converted to UPF format
     Using radial grid of  737 points,  5 beta functions with: 
                l(1) =   0
                l(2) =   0
                l(3) =   1
                l(4) =   1
                l(5) =   2
     Q(r) pseudized with  8 coefficients,  rinner =    0.900   0.900   0.900
                                                       0.900   0.900

     atomic species   valence    mass     pseudopotential
        Pb            14.00   207.20000     Pb( 1.00)
        Ti            12.00    47.88000     Ti( 1.00)
        O              6.00    16.00000     O ( 1.00)

      8 Sym. Ops. (no inversion) found



   Cartesian axes

     site n.     atom                  positions (alat units)
         1           Pb  tau(   1) = (   0.0000000   0.0000000   1.0561849  )
         2           Ti  tau(   2) = (   0.5000000   0.5000000   0.5668825  )
         3           O   tau(   3) = (   0.5000000   0.5000000   0.1045254  )
         4           O   tau(   4) = (   0.5000000   0.0000000   0.6425761  )
         5           O   tau(   5) = (   0.0000000   0.5000000   0.6425761  )

     number of k points=    30
                       cart. coord. in units 2pi/alat
        k(    1) = (   0.0000000   0.0000000   0.0000000), wk =   0.0081633
        k(    2) = (   0.0000000   0.0000000   0.1903436), wk =   0.0163265
        k(    3) = (   0.0000000   0.0000000   0.3806873), wk =   0.0163265
        k(    4) = (   0.0000000   0.1428571   0.0000000), wk =   0.0326531
        k(    5) = (   0.0000000   0.1428571   0.1903436), wk =   0.0653061
        k(    6) = (   0.0000000   0.1428571   0.3806873), wk =   0.0653061
        k(    7) = (   0.0000000   0.2857143   0.0000000), wk =   0.0326531
        k(    8) = (   0.0000000   0.2857143   0.1903436), wk =   0.0653061
        k(    9) = (   0.0000000   0.2857143   0.3806873), wk =   0.0653061
        k(   10) = (   0.0000000   0.4285714   0.0000000), wk =   0.0326531
        k(   11) = (   0.0000000   0.4285714   0.1903436), wk =   0.0653061
        k(   12) = (   0.0000000   0.4285714   0.3806873), wk =   0.0653061
        k(   13) = (   0.1428571   0.1428571   0.0000000), wk =   0.0326531
        k(   14) = (   0.1428571   0.1428571   0.1903436), wk =   0.0653061
        k(   15) = (   0.1428571   0.1428571   0.3806873), wk =   0.0653061
        k(   16) = (   0.1428571   0.2857143   0.0000000), wk =   0.0653061
        k(   17) = (   0.1428571   0.2857143   0.1903436), wk =   0.1306122
        k(   18) = (   0.1428571   0.2857143   0.3806873), wk =   0.1306122
        k(   19) = (   0.1428571   0.4285714   0.0000000), wk =   0.0653061
        k(   20) = (   0.1428571   0.4285714   0.1903436), wk =   0.1306122
        k(   21) = (   0.1428571   0.4285714   0.3806873), wk =   0.1306122
        k(   22) = (   0.2857143   0.2857143   0.0000000), wk =   0.0326531
        k(   23) = (   0.2857143   0.2857143   0.1903436), wk =   0.0653061
        k(   24) = (   0.2857143   0.2857143   0.3806873), wk =   0.0653061
        k(   25) = (   0.2857143   0.4285714   0.0000000), wk =   0.0653061
        k(   26) = (   0.2857143   0.4285714   0.1903436), wk =   0.1306122
        k(   27) = (   0.2857143   0.4285714   0.3806873), wk =   0.1306122
        k(   28) = (   0.4285714   0.4285714   0.0000000), wk =   0.0326531
        k(   29) = (   0.4285714   0.4285714   0.1903436), wk =   0.0653061
        k(   30) = (   0.4285714   0.4285714   0.3806873), wk =   0.0653061

     Dense  grid:    54933 G-vectors     FFT dimensions: (  48,  48,  50)

     Estimated max dynamical RAM per process >     286.69 MB

     Check: negative core charge=   -0.000003

     Initial potential from superposition of free atoms

     starting charge      42.9982, renormalised to      44.0000

     negative rho (up, down):  1.705E-02 0.000E+00
     Starting wfcs are   31 randomized atomic wfcs

     total cpu time spent up to now is       15.7 secs

     Self-consistent Calculation

     iteration #  1     ecut=   100.00 Ry     beta= 0.70
     CG style diagonalization
     ethr =  1.00E-02,  avg # of iterations =  2.2

     negative rho (up, down):  1.433E-02 0.000E+00

     total cpu time spent up to now is       37.4 secs

     total energy              =    -380.06210642 Ry
     estimated scf accuracy    <       1.02509524 Ry

     iteration #  2     ecut=   100.00 Ry     beta= 0.70
     CG style diagonalization
     ethr =  2.33E-03,  avg # of iterations =  4.9

     negative rho (up, down):  1.504E-02 0.000E+00

     total cpu time spent up to now is       77.2 secs

     total energy              =    -379.77165114 Ry
     estimated scf accuracy    <       3.85512726 Ry

     iteration #  3     ecut=   100.00 Ry     beta= 0.70
     CG style diagonalization
     ethr =  2.33E-03,  avg # of iterations =  4.5

     negative rho (up, down):  1.563E-02 0.000E+00

     total cpu time spent up to now is      114.2 secs

     total energy              =    -380.54763913 Ry
     estimated scf accuracy    <       0.25076646 Ry

     iteration #  4     ecut=   100.00 Ry     beta= 0.70
     CG style diagonalization
     ethr =  5.70E-04,  avg # of iterations =  3.4

     negative rho (up, down):  1.567E-02 0.000E+00

     total cpu time spent up to now is      142.2 secs

     total energy              =    -380.56105860 Ry
     estimated scf accuracy    <       0.05199810 Ry

     iteration #  5     ecut=   100.00 Ry     beta= 0.70
     CG style diagonalization
     ethr =  1.18E-04,  avg # of iterations =  3.8

     negative rho (up, down):  1.566E-02 0.000E+00

     total cpu time spent up to now is      173.1 secs

     total energy              =    -380.57581792 Ry
     estimated scf accuracy    <       0.00497293 Ry

     iteration #  6     ecut=   100.00 Ry     beta= 0.70
     CG style diagonalization
     ethr =  1.13E-05,  avg # of iterations =  4.1

     negative rho (up, down):  1.565E-02 0.000E+00

     total cpu time spent up to now is      206.6 secs

     total energy              =    -380.57755819 Ry
     estimated scf accuracy    <       0.00721008 Ry

     iteration #  7     ecut=   100.00 Ry     beta= 0.70
     CG style diagonalization
     ethr =  1.13E-05,  avg # of iterations =  3.2

     negative rho (up, down):  1.566E-02 0.000E+00

     total cpu time spent up to now is      233.1 secs

     total energy              =    -380.57711182 Ry
     estimated scf accuracy    <       0.00255935 Ry

     iteration #  8     ecut=   100.00 Ry     beta= 0.70
     CG style diagonalization
     ethr =  5.82E-06,  avg # of iterations =  3.6

     negative rho (up, down):  1.569E-02 0.000E+00

     total cpu time spent up to now is      263.1 secs

     total energy              =    -380.57763345 Ry
     estimated scf accuracy    <       0.00001113 Ry

     iteration #  9     ecut=   100.00 Ry     beta= 0.70
     CG style diagonalization
     c_bands:  1 eigenvalues not converged
     c_bands:  1 eigenvalues not converged
     ethr =  2.53E-08,  avg # of iterations =  7.7

     negative rho (up, down):  1.572E-02 0.000E+00

     total cpu time spent up to now is      326.0 secs

     total energy              =    -380.57769009 Ry
     estimated scf accuracy    <       0.00000998 Ry

     iteration # 10     ecut=   100.00 Ry     beta= 0.70
     CG style diagonalization
     ethr =  2.27E-08,  avg # of iterations =  3.3

     negative rho (up, down):  1.580E-02 0.000E+00

     total cpu time spent up to now is      352.8 secs

     total energy              =    -380.57768835 Ry
     estimated scf accuracy    <       0.00000638 Ry

     iteration # 11     ecut=   100.00 Ry     beta= 0.70
     CG style diagonalization
     ethr =  1.45E-08,  avg # of iterations =  4.0

     negative rho (up, down):  1.580E-02 0.000E+00

     total cpu time spent up to now is      385.2 secs

     total energy              =    -380.57768970 Ry
     estimated scf accuracy    <       0.00000033 Ry

     iteration # 12     ecut=   100.00 Ry     beta= 0.70
     CG style diagonalization
     ethr =  7.59E-10,  avg # of iterations =  9.0

     negative rho (up, down):  1.581E-02 0.000E+00

     total cpu time spent up to now is      457.4 secs

     total energy              =    -380.57769112 Ry
     estimated scf accuracy    <       0.00000004 Ry

     iteration # 13     ecut=   100.00 Ry     beta= 0.70
     CG style diagonalization
     ethr =  9.32E-11,  avg # of iterations =  7.6

     negative rho (up, down):  1.581E-02 0.000E+00

     total cpu time spent up to now is      518.4 secs

     End of self-consistent calculation

          k = 0.0000 0.0000 0.0000 (  6893 PWs)   bands (ev):

   -45.1697 -21.8506 -21.7670 -21.7670  -7.1654  -6.0129  -5.7576  -4.4140
    -4.4140  -4.3744  -4.2568  -4.1428   4.8409   6.7346   6.7346   7.1089
     8.7105   8.7105   8.9506   9.2867   9.4411   9.4411

          k = 0.0000 0.0000 0.1903 (  6876 PWs)   bands (ev):

   -45.1694 -21.8668 -21.7663 -21.7663  -7.0234  -5.9707  -5.7089  -4.4263
    -4.4263  -4.3733  -4.2483  -4.1955   4.1923   6.7744   6.7744   7.4189
     8.5225   8.5225   8.8927   9.1734   9.5305   9.5305

          k = 0.0000 0.0000 0.3807 (  6856 PWs)   bands (ev):

   -45.1691 -21.8929 -21.7653 -21.7653  -6.7763  -5.8967  -5.6360  -4.4460
    -4.4460  -4.3717  -4.2865  -4.2359   3.5265   6.7520   6.8185   6.8185
     8.3248   8.3248   8.8029   9.6230   9.6230  10.3262

          k = 0.0000 0.1429 0.0000 (  6875 PWs)   bands (ev):

   -45.1694 -21.8499 -21.7823 -21.7663  -7.0570  -5.9872  -5.7342  -4.4329
    -4.4128  -4.3856  -4.2591  -4.1333   4.4557   6.7858   6.8166   7.1758
     8.6408   8.7285   8.9608   9.1486   9.1815   9.5481

          k = 0.0000 0.1429 0.1903 (  6875 PWs)   bands (ev):

   -45.1691 -21.8661 -21.7816 -21.7657  -6.9224  -5.9535  -5.6834  -4.4357
    -4.4254  -4.3849  -4.2532  -4.1669   3.9766   6.6593   6.8623   7.4619
     8.2788   8.5144   8.8913   9.0809   9.2682   9.7350

          k = 0.0000 0.1429 0.3807 (  6889 PWs)   bands (ev):

   -45.1688 -21.8920 -21.7805 -21.7646  -6.6947  -5.8942  -5.6007  -4.4456
    -4.4375  -4.3837  -4.2538  -4.2178   3.4078   6.4021   6.9127   7.0815
     8.0222   8.3184   8.9766   9.1241   9.3694  10.4347

          k = 0.0000 0.2857 0.0000 (  6861 PWs)   bands (ev):

   -45.1687 -21.8485 -21.8165 -21.7649  -6.7971  -5.9275  -5.6899  -4.4662
    -4.4112  -4.4094  -4.2587  -4.1303   3.8691   6.6247   7.0254   7.0355
     8.5185   8.5287   8.8395   8.8425   9.2592   9.9056

          k = 0.0000 0.2857 0.1903 (  6861 PWs)   bands (ev):

   -45.1685 -21.8644 -21.8157 -21.7642  -6.6915  -5.9037  -5.6299  -4.4483
    -4.4234  -4.4105  -4.2518  -4.1274   3.5758   6.4724   7.0988   7.1074
     8.0805   8.3509   8.5265   8.9282   9.2575  10.1426

          k = 0.0000 0.2857 0.3807 (  6893 PWs)   bands (ev):

   -45.1681 -21.8900 -21.8144 -21.7631  -6.5400  -5.8466  -5.5124  -4.4447
    -4.4125  -4.4105  -4.2748  -4.1004   3.1669   6.1315   6.9446   7.1615
     7.7413   8.0310   8.2147   8.9965   9.6577  10.2524

          k = 0.0000 0.4286 0.0000 (  6818 PWs)   bands (ev):

   -45.1682 -21.8475 -21.8436 -21.7637  -6.5676  -5.8626  -5.6817  -4.4885
    -4.4304  -4.4078  -4.2366  -4.1589   3.5436   6.1263   7.2783   7.3064
     7.9630   8.0642   8.7387   8.8813   9.3129  10.8201

          k = 0.0000 0.4286 0.1903 (  6854 PWs)   bands (ev):

   -45.1680 -21.8629 -21.8431 -21.7630  -6.5110  -5.8187  -5.6146  -4.4635
    -4.4310  -4.4217  -4.2132  -4.1330   3.3270   6.1046   7.1221   7.4147
     7.4877   7.9485   8.6563   8.8826   9.2437  10.5782

          k = 0.0000 0.4286 0.3807 (  6867 PWs)   bands (ev):

   -45.1676 -21.8883 -21.8415 -21.7619  -6.4625  -5.7320  -5.4484  -4.4440
    -4.4319  -4.4162  -4.2616  -4.0247   3.0083   5.9382   6.5793   7.3829
     7.4938   7.8974   7.9084   8.8841   9.8310  10.1297

          k = 0.1429 0.1429 0.0000 (  6861 PWs)   bands (ev):

   -45.1691 -21.8493 -21.7818 -21.7815  -6.9498  -5.9608  -5.7232  -4.4367
    -4.4268  -4.3923  -4.2441  -4.1243   4.1780   6.7324   6.9180   7.2400
     8.2839   8.5083   9.0013   9.0449   9.4038   9.6901

          k = 0.1429 0.1429 0.1903 (  6872 PWs)   bands (ev):

   -45.1688 -21.8654 -21.7811 -21.7808  -6.8208  -5.9367  -5.6727  -4.4413
    -4.4271  -4.3909  -4.2367  -4.1438   3.8312   6.6217   6.6948   7.4745
     8.1504   8.2796   8.8202   9.1543   9.4344   9.7507

          k = 0.1429 0.1429 0.3807 (  6864 PWs)   bands (ev):

   -45.1685 -21.8912 -21.7799 -21.7797  -6.6077  -5.8966  -5.5839  -4.4606
    -4.4015  -4.3864  -4.2360  -4.1810   3.3552   6.4332   6.4523   7.1539
     8.0622   8.0833   8.7398   9.2293   9.4738  10.3081

          k = 0.1429 0.2857 0.0000 (  6861 PWs)   bands (ev):

   -45.1684 -21.8479 -21.8157 -21.7801  -6.6944  -5.9013  -5.7072  -4.4655
    -4.4205  -4.3900  -4.2262  -4.1217   3.6905   6.5899   6.9968   7.1432
     7.9212   8.2879   8.7491   9.1507   9.3761  10.0990

          k = 0.1429 0.2857 0.1903 (  6868 PWs)   bands (ev):

   -45.1682 -21.8637 -21.8150 -21.7794  -6.5888  -5.8918  -5.6530  -4.4498
    -4.4267  -4.3800  -4.2135  -4.1088   3.5213   6.4342   6.5911   7.1869
     7.6989   8.2023   8.8416   9.1219   9.3676  10.0654

          k = 0.1429 0.2857 0.3807 (  6870 PWs)   bands (ev):

   -45.1678 -21.8892 -21.8137 -21.7782  -6.4402  -5.8661  -5.5390  -4.4490
    -4.4081  -4.3472  -4.2220  -4.0786   3.2260   6.0725   6.4938   6.8332
     7.2715   8.0153   8.8779   9.1685   9.6733   9.9601

          k = 0.1429 0.4286 0.0000 (  6850 PWs)   bands (ev):

   -45.1679 -21.8468 -21.8427 -21.7788  -6.4701  -5.8395  -5.7207  -4.4761
    -4.4113  -4.3761  -4.2092  -4.1504   3.3940   6.1389   7.0723   7.4723
     7.5128   8.1071   8.4880   9.1420   9.4143  10.6263

          k = 0.1429 0.4286 0.1903 (  6863 PWs)   bands (ev):

   -45.1677 -21.8622 -21.8422 -21.7781  -6.4076  -5.8159  -5.6647  -4.4542
    -4.4149  -4.3632  -4.1826  -4.1131   3.3069   6.1087   6.5118   6.9909
     7.5559   8.3363   8.4998   9.1318   9.3828  10.2509

          k = 0.1429 0.4286 0.3807 (  6860 PWs)   bands (ev):

   -45.1673 -21.8875 -21.8408 -21.7770  -6.3589  -5.7666  -5.5113  -4.4435
    -4.3854  -4.3387  -4.2046  -4.0050   3.1279   5.9045   6.3209   6.5256
     6.8956   8.1542   8.8301   9.0069   9.4332  10.0461

          k = 0.2857 0.2857 0.0000 (  6862 PWs)   bands (ev):

   -45.1678 -21.8464 -21.8141 -21.8139  -6.4579  -5.8429  -5.7438  -4.4560
    -4.4161  -4.3467  -4.1667  -4.1180   3.3211   6.5797   6.6855   7.3512
     7.5088   7.8046   8.5783   9.1373   9.6731  10.1727

          k = 0.2857 0.2857 0.1903 (  6864 PWs)   bands (ev):

   -45.1675 -21.8621 -21.8134 -21.8131  -6.3555  -5.8621  -5.7039  -4.4303
    -4.4166  -4.3194  -4.1413  -4.0802   3.3552   6.2710   6.2872   6.7428
     7.4150   7.8047   9.0606   9.2574   9.7001   9.8008

          k = 0.2857 0.2857 0.3807 (  6876 PWs)   bands (ev):

   -45.1672 -21.8874 -21.8122 -21.8120  -6.2284  -5.8922  -5.5888  -4.4132
    -4.3892  -4.2615  -4.1075  -4.0235   3.3420   5.7948   5.9306   6.4238
     7.0779   7.2807   8.9827   9.5967   9.6474   9.8624

          k = 0.2857 0.4286 0.0000 (  6882 PWs)   bands (ev):

   -45.1672 -21.8453 -21.8409 -21.8125  -6.2660  -5.7929  -5.7707  -4.4486
    -4.3944  -4.2846  -4.1482  -4.1275   3.0587   6.1546   6.7035   7.1862
     7.6494   7.8751   8.1153   9.1451   9.7912  10.0911

          k = 0.2857 0.4286 0.1903 (  6844 PWs)   bands (ev):

   -45.1670 -21.8606 -21.8404 -21.8119  -6.1761  -5.8137  -5.7545  -4.4203
    -4.3879  -4.2384  -4.1126  -4.0690   3.1963   6.0665   6.1799   6.3873
     7.1573   7.9207   8.8557   9.3027   9.5063   9.8715

          k = 0.2857 0.4286 0.3807 (  6854 PWs)   bands (ev):

   -45.1666 -21.8858 -21.8391 -21.8108  -6.1208  -5.8390  -5.6282  -4.3917
    -4.3576  -4.1758  -4.0580  -3.9594   3.4123   5.5456   5.6882   6.0997
     6.7133   7.2670   8.2140   9.7207   9.8079  10.0564

          k = 0.4286 0.4286 0.0000 (  6880 PWs)   bands (ev):

   -45.1667 -21.8441 -21.8397 -21.8390  -6.1506  -5.7561  -5.7492  -4.4333
    -4.3480  -4.2139  -4.1663  -4.0622   2.7969   6.0060   6.4092   7.3619
     7.4634   7.8550   8.0298   8.8773   9.4438  10.2492

          k = 0.4286 0.4286 0.1903 (  6862 PWs)   bands (ev):

   -45.1665 -21.8591 -21.8389 -21.8389  -6.0146  -5.8048  -5.7967  -4.4024
    -4.3420  -4.1318  -4.0767  -4.0300   3.0459   5.9576   6.1652   6.2191
     6.6034   7.8879   8.4938   9.2165   9.2368  10.2410

          k = 0.4286 0.4286 0.3807 (  6856 PWs)   bands (ev):

   -45.1661 -21.8843 -21.8377 -21.8377  -5.9294  -5.8849  -5.7109  -4.3526
    -4.3362  -4.0331  -3.9402  -3.9354   3.6091   5.3469   5.4567   5.8816
     6.5185   6.8184   7.1574  10.0453  10.0654  10.2280

     highest occupied level (ev):    10.8201

!    total energy              =    -380.57769125 Ry
     estimated scf accuracy    <          9.7E-09 Ry

     The total energy is the sum of the following terms:
     one-electron contribution =     -79.71244347 Ry
     hartree contribution      =      69.93357929 Ry
     xc contribution           =    -102.67732898 Ry
     ewald contribution        =    -268.12149809 Ry

     convergence has been achieved in  13 iterations

     negative rho (up, down):  1.581E-02 0.000E+00

     Forces acting on atoms (cartesian axes, Ry/au):

     atom    1 type  1   force =     0.00000000    0.00000000    0.00000945
     atom    2 type  2   force =     0.00000000    0.00000000    0.00031210
     atom    3 type  3   force =     0.00000000    0.00000000   -0.00012640
     atom    4 type  3   force =     0.00000000    0.00000000   -0.00009757
     atom    5 type  3   force =     0.00000000    0.00000000   -0.00009757

     Total force =     0.000364     Total SCF correction =     0.000165
     SCF correction compared to forces is large: reduce conv_thr to get better values


     Computing stress (Cartesian axis) and pressure


     negative rho (up, down):  1.581E-02 0.000E+00
          total   stress  (Ry/bohr**3)                   (kbar)     P=        1.47
   0.00001237   0.00000000   0.00000000            1.82        0.00        0.00
   0.00000000   0.00001237   0.00000000            0.00        1.82        0.00
   0.00000000   0.00000000   0.00000522            0.00        0.00        0.77


     Writing all to output data dir ./pto_ener.save/
 
     init_run     :     12.10s CPU     12.97s WALL (       1 calls)
     electrons    :    486.29s CPU    502.82s WALL (       1 calls)
     forces       :      2.26s CPU      2.47s WALL (       1 calls)
     stress       :     15.79s CPU     16.07s WALL (       1 calls)

     Called by init_run:
     wfcinit      :      7.72s CPU      8.07s WALL (       1 calls)
     potinit      :      0.10s CPU      0.15s WALL (       1 calls)
     hinit0       :      3.58s CPU      3.74s WALL (       1 calls)

     Called by electrons:
     c_bands      :    438.22s CPU    452.07s WALL (      13 calls)
     sum_band     :     39.98s CPU     41.50s WALL (      13 calls)
     v_of_rho     :      0.38s CPU      0.42s WALL (      14 calls)
     newd         :      8.04s CPU      9.14s WALL (      14 calls)
     mix_rho      :      0.23s CPU      0.25s WALL (      13 calls)

     Called by c_bands:
     init_us_2    :     10.81s CPU     10.87s WALL (     870 calls)
     init_us_2:cp :     10.78s CPU     10.86s WALL (     870 calls)
     ccgdiagg     :    382.62s CPU    394.96s WALL (     390 calls)
     wfcrot       :     56.38s CPU     57.42s WALL (     390 calls)

     Called by *cgdiagg:
     h_psi        :    297.76s CPU    305.40s WALL (   32893 calls)
     s_psi        :     72.22s CPU     75.94s WALL (   65396 calls)

     Called by h_psi:
     h_psi:calbec :     37.84s CPU     39.11s WALL (   32893 calls)
     vloc_psi     :    219.44s CPU    224.34s WALL (   32893 calls)
     add_vuspsi   :     37.37s CPU     39.22s WALL (   32893 calls)
     hs_1psi      :    284.70s CPU    292.68s WALL (   32503 calls)
     s_1psi       :     72.73s CPU     75.30s WALL (   32503 calls)

     General routines
     calbec       :     73.54s CPU     77.37s WALL (   65936 calls)
     fft          :      0.14s CPU      0.17s WALL (      64 calls)
     ffts         :      0.03s CPU      0.03s WALL (      13 calls)
     fftw         :    199.73s CPU    203.46s WALL (   91286 calls)
 
     Parallel routines
 
     PWSCF        :   8m37.80s CPU   8m58.54s WALL

 
   This run was terminated on:  13:49:40  10Apr2022            

=------------------------------------------------------------------------------=
   JOB DONE.
=------------------------------------------------------------------------------=
