
     Program PWSCF v.6.4.1 starts on  1May2022 at  9:21:51 

     This program is part of the open-source Quantum ESPRESSO suite
     for quantum simulation of materials; please cite
         "P. Giannozzi et al., J. Phys.:Condens. Matter 21 395502 (2009);
         "P. Giannozzi et al., J. Phys.:Condens. Matter 29 465901 (2017);
          URL http://www.quantum-espresso.org", 
     in publications or presentations arising from this work. More details at
     http://www.quantum-espresso.org/quote

     Parallel version (MPI & OpenMP), running on      68 processor cores
     Number of MPI processes:                68
     Threads/MPI process:                     1

     MPI processes distributed on     1 nodes
     R & G space division:  proc/nbgrp/npool/nimage =      68
     Waiting for input...
     Reading input from standard input
Warning: card &CELL ignored
Warning: card  CELL_DYNAMICS = 'BFGS', ignored
Warning: card  PRESS=0.1D0, ignored
Warning: card / ignored

     Current dimensions of program PWSCF are:
     Max number of different atomic species (ntypx) = 10
     Max number of k-points (npk) =  40000
     Max angular momentum in pseudopotentials (lmaxx) =  3

     Subspace diagonalization in iterative solution of the eigenvalue problem:
     one sub-group per band group will be used
     scalapack distributed-memory algorithm (size of sub-group:  5*  5 procs)

 
     Parallelization info
     --------------------
     sticks:   dense  smooth     PW     G-vecs:    dense   smooth      PW
     Min          75      25      7                 3138      604      96
     Max          77      26      8                 3139      606     101
     Sum        5111    1707    505               213433    41125    6633
 


     bravais-lattice index     =            5
     lattice parameter (alat)  =      12.1600  a.u.
     unit-cell volume          =     859.9058 (a.u.)^3
     number of atoms/cell      =           10
     number of atomic types    =            3
     number of electrons       =        64.00
     number of Kohn-Sham states=           32
     kinetic-energy cutoff     =      50.0000  Ry
     charge density cutoff     =     600.0000  Ry
     convergence threshold     =      1.0E-08
     mixing beta               =       0.7000
     number of iterations used =            8  plain     mixing
     Exchange-correlation      = SLA  PW   PBE  PBE ( 1  4  3  4 0 0)
     nstep                     =           50


     celldm(1)=  12.160000  celldm(2)=   0.000000  celldm(3)=   0.000000
     celldm(4)=   0.690000  celldm(5)=   0.000000  celldm(6)=   0.000000

     crystal axes: (cart. coord. in units of alat)
               a(1) = (   0.393700  -0.227303   0.890693 )  
               a(2) = (   0.000000   0.454606   0.890693 )  
               a(3) = (  -0.393700  -0.227303   0.890693 )  

     reciprocal axes: (cart. coord. in units 2 pi/alat)
               b(1) = (  1.270001 -0.733236  0.374241 )  
               b(2) = (  0.000000  1.466471  0.374241 )  
               b(3) = ( -1.270001 -0.733236  0.374241 )  


     PseudoPot. # 1 for Ca read from file:
     ./Ca_PBE.UPF
     MD5 check sum: 403a4c14b9e4d4dfdc3024c9a3812218
     Pseudo is Ultrasoft + core correction, Zval = 10.0
     Generated by new atomic code, or converted to UPF format
     Using radial grid of  845 points,  6 beta functions with: 
                l(1) =   0
                l(2) =   0
                l(3) =   1
                l(4) =   1
                l(5) =   2
                l(6) =   2
     Q(r) pseudized with  8 coefficients,  rinner =    1.500   1.500   1.500
                                                       1.500   1.500

     PseudoPot. # 2 for C  read from file:
     ./C_PBE.UPF
     MD5 check sum: d1aef80898a10debaa0f26306b886e00
     Pseudo is Ultrasoft + core correction, Zval =  4.0
     Generated by new atomic code, or converted to UPF format
     Using radial grid of  721 points,  4 beta functions with: 
                l(1) =   0
                l(2) =   0
                l(3) =   1
                l(4) =   1
     Q(r) pseudized with  8 coefficients,  rinner =    1.100   1.100   1.100


     PseudoPot. # 3 for O  read from file:
     ./O_PBE.UPF
     MD5 check sum: 734c27235a0248c51dbae37a1fbe46ec
     Pseudo is Ultrasoft + core correction, Zval =  6.0
     Generated by new atomic code, or converted to UPF format
     Using radial grid of  737 points,  5 beta functions with: 
                l(1) =   0
                l(2) =   0
                l(3) =   1
                l(4) =   1
                l(5) =   2
     Q(r) pseudized with  8 coefficients,  rinner =    0.900   0.900   0.900
                                                       0.900   0.900

     atomic species   valence    mass     pseudopotential
        Ca            10.00    40.07800     Ca( 1.00)
        C              4.00    12.01070     C ( 1.00)
        O              6.00    16.00000     O ( 1.00)

     12 Sym. Ops., with inversion, found ( 6 have fractional translation)



   Cartesian axes

     site n.     atom                  positions (alat units)
         1           Ca  tau(   1) = (   0.0000000  -0.0000000   1.3360389  )
         2           Ca  tau(   2) = (   0.0000000   0.0000000   0.0000000  )
         3           C   tau(   3) = (   0.0000000  -0.0000000   0.6680195  )
         4           C   tau(   4) = (   0.0000000  -0.0000000   2.0040584  )
         5           O   tau(   5) = (   0.1011877   0.2793439   1.5587121  )
         6           O   tau(   6) = (   0.1913250  -0.2273030   1.5587121  )
         7           O   tau(   7) = (  -0.2925127  -0.0520408   1.5587121  )
         8           O   tau(   8) = (  -0.1913250   0.2273030   1.1133658  )
         9           O   tau(   9) = (   0.2925127   0.0520408   1.1133658  )
        10           O   tau(  10) = (  -0.1011877  -0.2793439   1.1133658  )

     number of k points=    32
                       cart. coord. in units 2pi/alat
        k(    1) = (   0.0000000   0.0000000   0.0000000), wk =   0.0092593
        k(    2) = (  -0.2116669  -0.1222059   0.0623734), wk =   0.0555556
        k(    3) = (  -0.4233338  -0.2444119   0.1247469), wk =   0.0555556
        k(    4) = (   0.6350006   0.3666178  -0.1871203), wk =   0.0277778
        k(    5) = (  -0.2116669   0.1222059   0.1247469), wk =   0.0555556
        k(    6) = (  -0.4233338  -0.0000000   0.1871203), wk =   0.1111111
        k(    7) = (   0.6350006   0.6110296  -0.1247469), wk =   0.1111111
        k(    8) = (   0.4233338   0.4888237  -0.0623734), wk =   0.1111111
        k(    9) = (   0.2116669   0.3666178   0.0000000), wk =   0.0555556
        k(   10) = (  -0.4233338   0.2444119   0.2494937), wk =   0.0555556
        k(   11) = (   0.6350006   0.8554415  -0.0623734), wk =   0.1111111
        k(   12) = (   0.4233338   0.7332356   0.0000000), wk =   0.0555556
        k(   13) = (   0.6350006  -0.3666178  -0.3742406), wk =   0.0277778
        k(   14) = (   0.0000000  -0.0000000   0.1871203), wk =   0.0185185
        k(   15) = (  -0.2116669  -0.1222059   0.2494937), wk =   0.0555556
        k(   16) = (   0.8466675   0.4888237  -0.0623734), wk =   0.0555556
        k(   17) = (   0.6350006   0.3666178   0.0000000), wk =   0.0555556
        k(   18) = (   0.4233338   0.2444119   0.0623734), wk =   0.0555556
        k(   19) = (  -0.2116669   0.1222059   0.3118672), wk =   0.0555556
        k(   20) = (   0.8466675   0.7332356   0.0000000), wk =   0.1111111
        k(   21) = (   0.6350006   0.6110296   0.0623734), wk =   0.1111111
        k(   22) = (   0.4233338   0.4888237   0.1247469), wk =   0.1111111
        k(   23) = (   0.8466675  -0.4888237  -0.3118672), wk =   0.0555556
        k(   24) = (   0.6350006  -0.6110296  -0.2494937), wk =   0.1111111
        k(   25) = (   0.4233338  -0.7332356  -0.1871203), wk =   0.0555556
        k(   26) = (   0.6350006  -0.3666178  -0.1871203), wk =   0.0555556
        k(   27) = (   0.0000000  -0.0000000   0.3742406), wk =   0.0185185
        k(   28) = (   1.0583344   0.6110296   0.0623734), wk =   0.0555556
        k(   29) = (   0.8466675   0.4888237   0.1247469), wk =   0.0555556
        k(   30) = (   1.0583344  -0.6110296  -0.2494937), wk =   0.0555556
        k(   31) = (   0.8466675  -0.7332356  -0.1871203), wk =   0.0555556
        k(   32) = (   0.0000000   0.0000000  -0.5613609), wk =   0.0092593

     Dense  grid:   213433 G-vectors     FFT dimensions: (  96,  96,  96)

     Smooth grid:    41125 G-vectors     FFT dimensions: (  60,  60,  60)

     Estimated max dynamical RAM per process >      25.81 MB

     Estimated total dynamical RAM >       1.71 GB

     Check: negative core charge=   -0.000003

     Initial potential from superposition of free atoms

     starting charge   63.98899, renormalised to   64.00000
     Starting wfcs are   52 randomized atomic wfcs

     total cpu time spent up to now is        4.9 secs

     Self-consistent Calculation

     iteration #  1     ecut=    50.00 Ry     beta= 0.70
     CG style diagonalization
     ethr =  1.00E-02,  avg # of iterations =  2.7

     total cpu time spent up to now is       12.6 secs

     total energy              =    -366.66447373 Ry
     Harris-Foulkes estimate   =    -367.88825972 Ry
     estimated scf accuracy    <       1.75336073 Ry

     iteration #  2     ecut=    50.00 Ry     beta= 0.70
     CG style diagonalization
     ethr =  2.74E-03,  avg # of iterations =  4.4

     total cpu time spent up to now is       24.4 secs

     total energy              =    -367.09666068 Ry
     Harris-Foulkes estimate   =    -367.92458506 Ry
     estimated scf accuracy    <       1.70921795 Ry

     iteration #  3     ecut=    50.00 Ry     beta= 0.70
     CG style diagonalization
     ethr =  2.67E-03,  avg # of iterations =  3.8

     total cpu time spent up to now is       34.6 secs

     total energy              =    -367.41806676 Ry
     Harris-Foulkes estimate   =    -367.42018369 Ry
     estimated scf accuracy    <       0.01115263 Ry

     iteration #  4     ecut=    50.00 Ry     beta= 0.70
     CG style diagonalization
     ethr =  1.74E-05,  avg # of iterations =  4.5

     total cpu time spent up to now is       46.7 secs

     total energy              =    -367.42950578 Ry
     Harris-Foulkes estimate   =    -367.43066474 Ry
     estimated scf accuracy    <       0.00303405 Ry

     iteration #  5     ecut=    50.00 Ry     beta= 0.70
     CG style diagonalization
     ethr =  4.74E-06,  avg # of iterations =  3.5

     total cpu time spent up to now is       56.3 secs

     total energy              =    -367.42993719 Ry
     Harris-Foulkes estimate   =    -367.42998165 Ry
     estimated scf accuracy    <       0.00017305 Ry

     iteration #  6     ecut=    50.00 Ry     beta= 0.70
     CG style diagonalization
     ethr =  2.70E-07,  avg # of iterations =  4.1

     total cpu time spent up to now is       67.5 secs

     total energy              =    -367.42998318 Ry
     Harris-Foulkes estimate   =    -367.43000010 Ry
     estimated scf accuracy    <       0.00002916 Ry

     iteration #  7     ecut=    50.00 Ry     beta= 0.70
     CG style diagonalization
     ethr =  4.56E-08,  avg # of iterations =  4.1

     total cpu time spent up to now is       78.5 secs

     total energy              =    -367.42999492 Ry
     Harris-Foulkes estimate   =    -367.42999712 Ry
     estimated scf accuracy    <       0.00000516 Ry

     iteration #  8     ecut=    50.00 Ry     beta= 0.70
     CG style diagonalization
     ethr =  8.06E-09,  avg # of iterations =  3.8

     total cpu time spent up to now is       88.7 secs

     total energy              =    -367.42999609 Ry
     Harris-Foulkes estimate   =    -367.42999614 Ry
     estimated scf accuracy    <       0.00000009 Ry

     iteration #  9     ecut=    50.00 Ry     beta= 0.70
     CG style diagonalization
     ethr =  1.47E-10,  avg # of iterations =  4.5

     total cpu time spent up to now is      100.8 secs

     total energy              =    -367.42999617 Ry
     Harris-Foulkes estimate   =    -367.42999617 Ry
     estimated scf accuracy    <       0.00000001 Ry

     iteration # 10     ecut=    50.00 Ry     beta= 0.70
     CG style diagonalization
     ethr =  2.27E-11,  avg # of iterations =  3.8

     total cpu time spent up to now is      111.2 secs

     End of self-consistent calculation

          k = 0.0000 0.0000 0.0000 (  5209 PWs)   bands (ev):

   -33.7837 -33.7715 -17.0635 -17.0515 -15.1923 -15.1923 -14.8449 -14.8449
   -14.7558 -14.6419 -13.9208 -13.9208 -13.4082 -13.4082  -3.3742  -3.1120
    -1.6937  -1.5653  -1.5653  -1.3139  -1.3139  -0.4025   2.3106   2.3106
     2.7326   2.7326   2.9017   2.9017   3.5250   3.5250   3.7095   4.1344

          k =-0.2117-0.1222 0.0624 (  5137 PWs)   bands (ev):

   -33.7828 -33.7722 -17.0715 -17.0356 -15.1905 -15.1178 -14.9325 -14.8397
   -14.7798 -14.7363 -13.8691 -13.7495 -13.5090 -13.4289  -3.2717  -3.1225
    -1.6070  -1.5237  -1.4783  -1.3511  -1.3018  -0.5133   2.3575   2.4194
     2.6312   2.6683   2.7418   2.7958   3.3764   3.4018   3.9199   4.1419

          k =-0.4233-0.2444 0.1247 (  5137 PWs)   bands (ev):

   -33.7803 -33.7742 -17.0818 -17.0061 -15.1783 -15.0748 -15.0609 -14.9114
   -14.7519 -14.7340 -13.7591 -13.6447 -13.5912 -13.4954  -3.0932  -3.0918
    -1.5656  -1.4497  -1.3119  -1.3097  -1.2197  -0.7124   2.2373   2.3123
     2.5157   2.5405   2.6755   2.7797   3.1540   3.1860   4.1716   4.1864

          k = 0.6350 0.3666-0.1871 (  5136 PWs)   bands (ev):

   -33.7772 -33.7772 -17.0406 -17.0406 -15.0833 -15.0833 -15.0675 -15.0675
   -14.7297 -14.7297 -13.6249 -13.6249 -13.6062 -13.6062  -3.0332  -3.0332
    -1.5312  -1.5312  -1.2661  -1.2661  -0.9256  -0.9256   2.1125   2.1125
     2.4902   2.4902   2.7950   2.7950   3.0580   3.0580   4.2391   4.2391

          k =-0.2117 0.1222 0.1247 (  5142 PWs)   bands (ev):

   -33.7826 -33.7724 -17.0758 -17.0324 -15.1537 -15.1530 -14.8980 -14.8495
   -14.7841 -14.7698 -13.8099 -13.7855 -13.4823 -13.4662  -3.2629  -3.1392
    -1.5703  -1.5124  -1.5039  -1.3497  -1.2933  -0.5364   2.3589   2.4166
     2.6114   2.6345   2.7672   2.8476   3.3144   3.4385   3.9242   4.1274

          k =-0.4233-0.0000 0.1871 (  5131 PWs)   bands (ev):

   -33.7808 -33.7738 -17.0905 -17.0037 -15.1783 -15.1367 -14.9452 -14.8886
   -14.7694 -14.7647 -13.7589 -13.7330 -13.5184 -13.4951  -3.1285  -3.1186
    -1.5352  -1.4386  -1.4302  -1.2770  -1.2419  -0.6866   2.2830   2.3851
     2.5274   2.5372   2.6625   2.8111   3.1132   3.3011   4.1411   4.1529

          k = 0.6350 0.6110-0.1247 (  5136 PWs)   bands (ev):

   -33.7782 -33.7761 -17.0544 -17.0290 -15.1803 -15.0884 -15.0269 -14.9596
   -14.7470 -14.7362 -13.7658 -13.6515 -13.5768 -13.4881  -3.0354  -3.0304
    -1.5214  -1.5062  -1.3358  -1.2550  -0.9840  -0.8348   2.1181   2.1812
     2.4342   2.4627   2.6867   2.7686   3.0638   3.1644   4.2450   4.2601

          k = 0.4233 0.4888-0.0624 (  5137 PWs)   bands (ev):

   -33.7789 -33.7754 -17.0854 -16.9938 -15.2115 -15.0862 -15.0730 -14.8815
   -14.7716 -14.7036 -13.8126 -13.6470 -13.5743 -13.4637  -3.0778  -2.9845
    -1.5873  -1.4202  -1.3221  -1.2550  -1.0676  -0.7984   2.0666   2.2639
     2.3856   2.4860   2.6456   2.7942   3.1051   3.1595   4.1977   4.3100

          k = 0.2117 0.3666 0.0000 (  5123 PWs)   bands (ev):

   -33.7814 -33.7733 -17.0959 -16.9954 -15.1755 -15.1475 -14.9645 -14.8572
   -14.7929 -14.7485 -13.7529 -13.7493 -13.5067 -13.4959  -3.1240  -3.1125
    -1.5675  -1.4307  -1.3850  -1.3263  -1.2725  -0.6510   2.2902   2.4449
     2.4745   2.5863   2.5919   2.7820   3.1838   3.2999   4.1464   4.1574

          k =-0.4233 0.2444 0.2495 (  5135 PWs)   bands (ev):

   -33.7803 -33.7742 -17.1222 -16.9648 -15.2167 -15.1886 -14.8755 -14.8241
   -14.7919 -14.7744 -13.8207 -13.7602 -13.4946 -13.4556  -3.1823  -3.0094
    -1.5737  -1.4249  -1.3679  -1.2517  -1.1463  -0.7696   2.1004   2.3312
     2.4486   2.6556   2.6602   2.9165   2.9445   3.3040   4.0909   4.2553

          k = 0.6350 0.8554-0.0624 (  5146 PWs)   bands (ev):

   -33.7789 -33.7754 -17.1103 -16.9712 -15.2478 -15.1595 -14.9180 -14.8521
   -14.7858 -14.7229 -13.8874 -13.7134 -13.5153 -13.4205  -3.1291  -2.9354
    -1.5652  -1.4565  -1.3430  -1.2357  -0.9854  -0.8243   1.9781   2.2155
     2.4336   2.5795   2.6433   2.6967   3.0707   3.2259   4.1455   4.3547

          k = 0.4233 0.7332 0.0000 (  5147 PWs)   bands (ev):

   -33.7771 -33.7771 -17.0413 -17.0411 -15.1776 -15.1414 -14.9864 -14.8934
   -14.8011 -14.7411 -13.7591 -13.7532 -13.4893 -13.4863  -2.9988  -2.9983
    -1.5525  -1.4479  -1.3823  -1.2363  -0.8962  -0.8548   2.0834   2.0948
     2.4136   2.4320   2.6161   2.6539   3.1365   3.1809   4.2959   4.2995

          k = 0.6350-0.3666-0.3742 (  5132 PWs)   bands (ev):

   -33.7792 -33.7751 -17.1445 -16.9278 -15.2750 -15.2706 -14.8279 -14.8019
   -14.7812 -14.6475 -13.9589 -13.8499 -13.4286 -13.3897  -3.2004  -2.8594
    -1.6286  -1.4110  -1.2786  -1.2228  -0.9870  -0.8673   1.8743   2.1891
     2.4660   2.6441   2.6806   2.6894   3.0864   3.2138   4.0546   4.4120

          k = 0.0000-0.0000 0.1871 (  5149 PWs)   bands (ev):

   -33.7829 -33.7723 -17.0634 -17.0531 -15.1754 -15.1754 -14.8793 -14.8793
   -14.7472 -14.6485 -13.8754 -13.8754 -13.4363 -13.4363  -3.3682  -3.1474
    -1.5942  -1.5482  -1.5482  -1.3307  -1.3307  -0.4808   2.3390   2.3390
     2.6990   2.6990   2.9442   2.9442   3.4768   3.4768   3.7342   4.0982

          k =-0.2117-0.1222 0.2495 (  5135 PWs)   bands (ev):

   -33.7815 -33.7734 -17.0640 -17.0453 -15.1922 -15.0715 -15.0216 -14.8262
   -14.7819 -14.7046 -13.8580 -13.6892 -13.5674 -13.4381  -3.2777  -3.1480
    -1.5379  -1.5104  -1.4046  -1.3392  -1.3356  -0.6110   2.3684   2.4392
     2.6044   2.6359   2.7544   2.9091   3.2857   3.3539   3.9300   4.1100

          k = 0.8467 0.4888-0.0624 (  5139 PWs)   bands (ev):

   -33.7790 -33.7755 -17.0481 -17.0446 -15.1778 -15.0944 -15.0324 -14.9046
   -14.7691 -14.7182 -13.7708 -13.6340 -13.6192 -13.4765  -3.1480  -3.0497
    -1.5112  -1.4921  -1.3600  -1.2999  -1.0912  -0.7786   2.2211   2.3106
     2.4894   2.5508   2.6843   2.8769   3.0511   3.1576   4.1387   4.2073

          k = 0.6350 0.3666 0.0000 (  5146 PWs)   bands (ev):

   -33.7782 -33.7761 -17.0934 -16.9855 -15.1830 -15.1761 -14.9624 -14.9456
   -14.7704 -14.6888 -13.7709 -13.7153 -13.5123 -13.5005  -3.1175  -2.9473
    -1.6054  -1.4133  -1.3319  -1.2254  -0.9844  -0.8729   1.9964   2.2090
     2.4014   2.5913   2.6815   2.9405   2.9493   3.1234   4.1549   4.3215

          k = 0.4233 0.2444 0.0624 (  5117 PWs)   bands (ev):

   -33.7808 -33.7738 -17.1099 -16.9752 -15.2033 -15.1493 -14.9727 -14.8452
   -14.7922 -14.7358 -13.8110 -13.6668 -13.5645 -13.4637  -3.1416  -3.0403
    -1.5817  -1.4244  -1.3362  -1.2820  -1.2319  -0.7131   2.1505   2.3778
     2.4561   2.5919   2.6145   2.8759   3.0664   3.2776   4.1289   4.2289

          k =-0.2117 0.1222 0.3119 (  5131 PWs)   bands (ev):

   -33.7810 -33.7740 -17.0753 -17.0359 -15.1704 -15.0853 -14.9825 -14.8699
   -14.7644 -14.7462 -13.7850 -13.7103 -13.5435 -13.4913  -3.2518  -3.1887
    -1.5127  -1.4790  -1.4325  -1.3189  -1.3033  -0.6750   2.3801   2.4304
     2.5610   2.6054   2.8280   2.9697   3.1859   3.3819   3.9485   4.0740

          k = 0.8467 0.7332 0.0000 (  5130 PWs)   bands (ev):

   -33.7793 -33.7753 -17.0749 -17.0250 -15.1714 -15.1281 -14.9392 -14.8755
   -14.8087 -14.7531 -13.7505 -13.7208 -13.5299 -13.5050  -3.1369  -3.1313
    -1.4860  -1.4619  -1.4257  -1.2990  -1.1015  -0.7893   2.2741   2.3178
     2.5336   2.5828   2.6972   2.8765   3.0261   3.2460   4.1329   4.1424

          k = 0.6350 0.6110 0.0624 (  5128 PWs)   bands (ev):

   -33.7772 -33.7771 -17.0670 -17.0197 -15.1851 -15.1196 -15.0005 -14.8810
   -14.7828 -14.7563 -13.7887 -13.6850 -13.5522 -13.4663  -3.0849  -2.9837
    -1.5626  -1.4200  -1.3856  -1.2566  -0.9028  -0.8826   2.0677   2.1606
     2.4422   2.5410   2.6473   2.7516   3.0773   3.1448   4.2070   4.2952

          k = 0.4233 0.4888 0.1247 (  5131 PWs)   bands (ev):

   -33.7792 -33.7751 -17.1058 -16.9724 -15.2486 -15.1285 -15.0104 -14.8197
   -14.7964 -14.6956 -13.8846 -13.6429 -13.5775 -13.4216  -3.1138  -2.9478
    -1.5949  -1.4096  -1.3092  -1.2712  -1.0547  -0.7977   2.0070   2.2761
     2.3697   2.5404   2.6233   2.7880   3.0779   3.2060   4.1600   4.3452

          k = 0.8467-0.4888-0.3119 (  5133 PWs)   bands (ev):

   -33.7790 -33.7755 -17.1147 -16.9771 -15.2448 -15.1427 -14.8887 -14.8392
   -14.8146 -14.7240 -13.8243 -13.7790 -13.4864 -13.4539  -3.2011  -3.0034
    -1.5765  -1.4170  -1.3297  -1.2842  -1.0331  -0.8575   2.0986   2.2796
     2.5217   2.6583   2.6946   2.8015   3.0004   3.2455   4.0785   4.2575

          k = 0.6350-0.6110-0.2495 (  5132 PWs)   bands (ev):

   -33.7782 -33.7761 -17.0966 -16.9892 -15.2034 -15.1772 -14.9109 -14.8207
   -14.8017 -14.7871 -13.8205 -13.7542 -13.4867 -13.4559  -3.1189  -2.9490
    -1.5652  -1.4554  -1.3155  -1.2784  -0.9274  -0.8546   1.9993   2.1750
     2.4840   2.5829   2.6233   2.6803   3.0920   3.1776   4.1638   4.3359

          k = 0.4233-0.7332-0.1871 (  5152 PWs)   bands (ev):

   -33.7771 -33.7771 -17.0412 -17.0412 -15.1620 -15.1620 -14.9441 -14.9441
   -14.7645 -14.7645 -13.7561 -13.7561 -13.4878 -13.4878  -2.9985  -2.9985
    -1.5171  -1.5171  -1.2942  -1.2942  -0.8738  -0.8738   2.0890   2.0890
     2.4229   2.4229   2.6340   2.6340   3.1596   3.1596   4.2977   4.2977

          k = 0.6350-0.3666-0.1871 (  5132 PWs)   bands (ev):

   -33.7789 -33.7754 -17.1310 -16.9436 -15.2512 -15.2460 -14.8623 -14.8316
   -14.7987 -14.6588 -13.9019 -13.8102 -13.4502 -13.4183  -3.1783  -2.8832
    -1.6289  -1.3916  -1.2818  -1.2509  -0.9946  -0.8603   1.9074   2.2136
     2.4075   2.6507   2.6648   2.7791   3.0554   3.1806   4.0841   4.3867

          k = 0.0000-0.0000 0.3742 (  5136 PWs)   bands (ev):

   -33.7806 -33.7745 -17.0625 -17.0566 -15.1263 -15.1263 -14.9602 -14.9602
   -14.7244 -14.6675 -13.7646 -13.7646 -13.5158 -13.5158  -3.3454  -3.2241
    -1.5019  -1.5019  -1.3766  -1.3766  -1.3381  -0.6999   2.4159   2.4159
     2.6206   2.6206   3.0491   3.0491   3.3515   3.3515   3.8024   4.0081

          k = 1.0583 0.6110 0.0624 (  5122 PWs)   bands (ev):

   -33.7792 -33.7757 -17.0579 -17.0545 -15.1657 -15.0849 -15.0199 -14.8861
   -14.7546 -14.6995 -13.7878 -13.6378 -13.6234 -13.4877  -3.2704  -3.1925
    -1.4851  -1.4488  -1.4007  -1.3886  -1.1579  -0.8146   2.3962   2.4693
     2.5467   2.5685   2.8705   3.0688   3.1265   3.2584   3.9586   4.0523

          k = 0.8467 0.4888 0.1247 (  5132 PWs)   bands (ev):

   -33.7773 -33.7772 -17.0880 -17.0066 -15.2296 -15.0838 -14.9995 -14.8443
   -14.8041 -14.7053 -13.8253 -13.7025 -13.5518 -13.4485  -3.1890  -3.0185
    -1.5600  -1.3958  -1.3805  -1.2981  -0.9649  -0.8982   2.1420   2.2933
     2.5387   2.6109   2.6351   2.8978   3.0333   3.1395   4.0977   4.2378

          k = 1.0583-0.6110-0.2495 (  5120 PWs)   bands (ev):

   -33.7785 -33.7765 -17.0690 -17.0443 -15.1634 -15.0640 -15.0078 -14.9260
   -14.7412 -14.7173 -13.7538 -13.6364 -13.6153 -13.5212  -3.2397  -3.2302
    -1.4837  -1.4371  -1.4142  -1.3732  -1.0777  -0.9018   2.4307   2.4317
     2.5400   2.5560   2.9427   3.0398   3.1063   3.2525   3.9937   4.0097

          k = 0.8467-0.7332-0.1871 (  5134 PWs)   bands (ev):

   -33.7773 -33.7773 -17.0514 -17.0514 -15.1479 -15.1479 -14.9066 -14.9066
   -14.7819 -14.7819 -13.7309 -13.7309 -13.5223 -13.5223  -3.1393  -3.1393
    -1.4784  -1.4784  -1.3523  -1.3523  -0.9395  -0.9395   2.2811   2.2811
     2.5655   2.5655   2.7860   2.7860   3.1277   3.1277   4.1332   4.1332

          k = 0.0000 0.0000-0.5614 (  5112 PWs)   bands (ev):

   -33.7776 -33.7776 -17.0603 -17.0603 -15.0505 -15.0505 -15.0505 -15.0505
   -14.6950 -14.6950 -13.6330 -13.6330 -13.6330 -13.6330  -3.2973  -3.2973
    -1.4391  -1.4391  -1.4391  -1.4391  -1.0108  -1.0108   2.5190   2.5190
     2.5190   2.5190   3.1942   3.1942   3.1942   3.1942   3.9000   3.9000

     highest occupied level (ev):     4.4120

!    total energy              =    -367.42999617 Ry
     Harris-Foulkes estimate   =    -367.42999617 Ry
     estimated scf accuracy    <          5.9E-09 Ry

     The total energy is the sum of the following terms:

     one-electron contribution =    -148.41453054 Ry
     hartree contribution      =     103.44373484 Ry
     xc contribution           =     -75.21275658 Ry
     ewald contribution        =    -247.24644388 Ry

     convergence has been achieved in  10 iterations

     Forces acting on atoms (cartesian axes, Ry/au):

     atom    1 type  1   force =     0.00000000    0.00000000    0.00000000
     atom    2 type  1   force =     0.00000000    0.00000000    0.00000000
     atom    3 type  2   force =     0.00000000    0.00000000    0.00000000
     atom    4 type  2   force =    -0.00000000   -0.00000000   -0.00000000
     atom    5 type  3   force =    -0.00588159    0.01018721    0.00000000
     atom    6 type  3   force =     0.01176318   -0.00000000    0.00000000
     atom    7 type  3   force =    -0.00588159   -0.01018721   -0.00000000
     atom    8 type  3   force =    -0.01176318    0.00000000   -0.00000000
     atom    9 type  3   force =     0.00588159    0.01018721    0.00000000
     atom   10 type  3   force =     0.00588159   -0.01018721   -0.00000000

     Total force =     0.028814     Total SCF correction =     0.000034


     Computing stress (Cartesian axis) and pressure

          total   stress  (Ry/bohr**3)                   (kbar)     P=  -14.66
  -0.00014359  -0.00000000   0.00000000        -21.12     -0.00      0.00
   0.00000000  -0.00014359  -0.00000000          0.00    -21.12     -0.00
  -0.00000000  -0.00000000  -0.00001178         -0.00     -0.00     -1.73


     BFGS Geometry Optimization

     number of scf cycles    =   1
     number of bfgs steps    =   0

     energy   new            =    -367.4299961681 Ry

     new trust radius        =       0.0117631826 bohr
     new conv_thr            =       0.0000000100 Ry


ATOMIC_POSITIONS (crystal)
Ca       0.500000000   0.500000000   0.500000000
Ca       0.000000000   0.000000000   0.000000000
C        0.250000000   0.250000000   0.250000000
C        0.750000000   0.750000000   0.750000000
O        0.505788398   0.994211602   0.250000000
O        0.994211602   0.250000000   0.505788398
O        0.250000000   0.505788398   0.994211602
O        0.005788398   0.750000000   0.494211602
O        0.750000000   0.494211602   0.005788398
O        0.494211602   0.005788398   0.750000000



     Writing output data file CCO.save/
     NEW-OLD atomic charge density approx. for the potential

     Check: negative core charge=   -0.000003

     total cpu time spent up to now is      113.5 secs

     Self-consistent Calculation

     iteration #  1     ecut=    50.00 Ry     beta= 0.70
     CG style diagonalization
     c_bands:  1 eigenvalues not converged
     ethr =  1.00E-06,  avg # of iterations =  5.5

     total cpu time spent up to now is      128.5 secs

     total energy              =    -367.43006902 Ry
     Harris-Foulkes estimate   =    -367.43043270 Ry
     estimated scf accuracy    <       0.00049365 Ry

     iteration #  2     ecut=    50.00 Ry     beta= 0.70
     CG style diagonalization
     ethr =  7.71E-07,  avg # of iterations =  4.0

     total cpu time spent up to now is      139.3 secs

     total energy              =    -367.43021725 Ry
     Harris-Foulkes estimate   =    -367.43033800 Ry
     estimated scf accuracy    <       0.00021499 Ry

     iteration #  3     ecut=    50.00 Ry     beta= 0.70
     CG style diagonalization
     ethr =  3.36E-07,  avg # of iterations =  3.6

     total cpu time spent up to now is      149.0 secs

     total energy              =    -367.43026922 Ry
     Harris-Foulkes estimate   =    -367.43027045 Ry
     estimated scf accuracy    <       0.00000305 Ry

     iteration #  4     ecut=    50.00 Ry     beta= 0.70
     CG style diagonalization
     ethr =  4.77E-09,  avg # of iterations =  4.4

     total cpu time spent up to now is      160.8 secs

     total energy              =    -367.43027189 Ry
     Harris-Foulkes estimate   =    -367.43027313 Ry
     estimated scf accuracy    <       0.00000327 Ry

     iteration #  5     ecut=    50.00 Ry     beta= 0.70
     CG style diagonalization
     ethr =  4.77E-09,  avg # of iterations =  3.5

     total cpu time spent up to now is      170.3 secs

     total energy              =    -367.43027218 Ry
     Harris-Foulkes estimate   =    -367.43027228 Ry
     estimated scf accuracy    <       0.00000021 Ry

     iteration #  6     ecut=    50.00 Ry     beta= 0.70
     CG style diagonalization
     ethr =  3.30E-10,  avg # of iterations =  3.8

     total cpu time spent up to now is      180.7 secs

     total energy              =    -367.43027223 Ry
     Harris-Foulkes estimate   =    -367.43027223 Ry
     estimated scf accuracy    <       0.00000001 Ry

     iteration #  7     ecut=    50.00 Ry     beta= 0.70
     CG style diagonalization
     ethr =  1.60E-11,  avg # of iterations =  4.0

     total cpu time spent up to now is      191.6 secs

     End of self-consistent calculation

          k = 0.0000 0.0000 0.0000 (  5209 PWs)   bands (ev):

   -33.8028 -33.7907 -17.1355 -17.1303 -15.2069 -15.2069 -14.8619 -14.8619
   -14.7734 -14.6697 -13.9584 -13.9584 -13.4509 -13.4509  -3.3563  -3.0870
    -1.7341  -1.5780  -1.5780  -1.3286  -1.3286  -0.4590   2.3167   2.3167
     2.7282   2.7282   2.8997   2.8997   3.5252   3.5252   3.7425   4.1635

          k =-0.2117-0.1222 0.0624 (  5137 PWs)   bands (ev):

   -33.8019 -33.7914 -17.1487 -17.1093 -15.2053 -15.1335 -14.9508 -14.8576
   -14.7974 -14.7602 -13.9070 -13.7883 -13.5508 -13.4711  -3.2531  -3.0973
    -1.6454  -1.5372  -1.4945  -1.3664  -1.3172  -0.5673   2.3624   2.4230
     2.6294   2.6669   2.7388   2.7951   3.3799   3.4036   3.9473   4.1701

          k =-0.4233-0.2444 0.1247 (  5137 PWs)   bands (ev):

   -33.7994 -33.7934 -17.1573 -17.0825 -15.1934 -15.0914 -15.0768 -14.9277
   -14.7737 -14.7558 -13.7980 -13.6847 -13.6313 -13.5362  -3.0709  -3.0679
    -1.5888  -1.4656  -1.3295  -1.3271  -1.2545  -0.7613   2.2374   2.3125
     2.5162   2.5395   2.6796   2.7811   3.1576   3.1898   4.1985   4.2124

          k = 0.6350 0.3666-0.1871 (  5136 PWs)   bands (ev):

   -33.7963 -33.7963 -17.1167 -17.1167 -15.0993 -15.0993 -15.0830 -15.0830
   -14.7522 -14.7522 -13.6645 -13.6645 -13.6460 -13.6460  -3.0094  -3.0094
    -1.5504  -1.5504  -1.2847  -1.2847  -0.9686  -0.9686   2.1128   2.1128
     2.4902   2.4902   2.7985   2.7985   3.0622   3.0622   4.2651   4.2651

          k =-0.2117 0.1222 0.1247 (  5142 PWs)   bands (ev):

   -33.8017 -33.7916 -17.1526 -17.1063 -15.1692 -15.1681 -14.9168 -14.8676
   -14.8076 -14.7873 -13.8478 -13.8242 -13.5242 -13.5083  -3.2443  -3.1144
    -1.6102  -1.5261  -1.5180  -1.3654  -1.3086  -0.5900   2.3638   2.4202
     2.6102   2.6318   2.7670   2.8452   3.3171   3.4402   3.9522   4.1556

          k =-0.4233-0.0000 0.1871 (  5131 PWs)   bands (ev):

   -33.8000 -33.7930 -17.1657 -17.0799 -15.1935 -15.1526 -14.9631 -14.9070
   -14.7900 -14.7844 -13.7974 -13.7722 -13.5593 -13.5366  -3.1036  -3.0985
    -1.5577  -1.4609  -1.4463  -1.2933  -1.2709  -0.7366   2.2841   2.3879
     2.5275   2.5356   2.6639   2.8128   3.1162   3.3045   4.1682   4.1792

          k = 0.6350 0.6110-0.1247 (  5136 PWs)   bands (ev):

   -33.7973 -33.7953 -17.1303 -17.1052 -15.1952 -15.1053 -15.0435 -14.9762
   -14.7686 -14.7579 -13.8038 -13.6913 -13.6166 -13.5294  -3.0124  -3.0059
    -1.5410  -1.5253  -1.3567  -1.2726  -1.0229  -0.8803   2.1189   2.1821
     2.4341   2.4631   2.6901   2.7721   3.0676   3.1686   4.2709   4.2856

          k = 0.4233 0.4888-0.0624 (  5137 PWs)   bands (ev):

   -33.7981 -33.7946 -17.1600 -17.0715 -15.2264 -15.1022 -15.0887 -14.8990
   -14.7914 -14.7273 -13.8507 -13.6866 -13.6142 -13.5051  -3.0527  -2.9621
    -1.6072  -1.4394  -1.3400  -1.2728  -1.1088  -0.8438   2.0672   2.2641
     2.3873   2.4850   2.6498   2.7969   3.1081   3.1640   4.2238   4.3354

          k = 0.2117 0.3666 0.0000 (  5123 PWs)   bands (ev):

   -33.8005 -33.7925 -17.1711 -17.0719 -15.1911 -15.1628 -14.9813 -14.8785
   -14.8100 -14.7700 -13.7921 -13.7880 -13.5481 -13.5370  -3.0985  -3.0925
    -1.5923  -1.4497  -1.4014  -1.3552  -1.2887  -0.7018   2.2907   2.4460
     2.4761   2.5853   2.5935   2.7827   3.1870   3.3032   4.1733   4.1837

          k =-0.4233 0.2444 0.2495 (  5135 PWs)   bands (ev):

   -33.7994 -33.7934 -17.1956 -17.0434 -15.2317 -15.2044 -14.8936 -14.8412
   -14.8144 -14.7933 -13.8585 -13.7987 -13.5360 -13.4979  -3.1571  -2.9890
    -1.5880  -1.4424  -1.4007  -1.2676  -1.1753  -0.8180   2.1024   2.3361
     2.4475   2.6575   2.6579   2.9189   2.9472   3.3073   4.1180   4.2815

          k = 0.6350 0.8554-0.0624 (  5146 PWs)   bands (ev):

   -33.7980 -33.7946 -17.1836 -17.0501 -15.2620 -15.1762 -14.9365 -14.8694
   -14.8039 -14.7459 -13.9242 -13.7518 -13.5566 -13.4628  -3.1039  -2.9133
    -1.5798  -1.4776  -1.3713  -1.2521  -1.0222  -0.8697   1.9803   2.2198
     2.4334   2.5777   2.6461   2.6998   3.0744   3.2299   4.1717   4.3799

          k = 0.4233 0.7332 0.0000 (  5147 PWs)   bands (ev):

   -33.7963 -33.7963 -17.1173 -17.1170 -15.1923 -15.1580 -15.0031 -14.9158
   -14.8182 -14.7621 -13.7968 -13.7912 -13.5307 -13.5278  -2.9747  -2.9742
    -1.5730  -1.4637  -1.4075  -1.2537  -0.9404  -0.8958   2.0854   2.0962
     2.4132   2.4318   2.6203   2.6580   3.1409   3.1847   4.3211   4.3246

          k = 0.6350-0.3666-0.3742 (  5132 PWs)   bands (ev):

   -33.7983 -33.7943 -17.2163 -17.0093 -15.2898 -15.2843 -14.8448 -14.8190
   -14.7985 -14.6747 -13.9952 -13.8878 -13.4705 -13.4325  -3.1750  -2.8375
    -1.6422  -1.4328  -1.3104  -1.2385  -1.0220  -0.9126   1.8769   2.1953
     2.4653   2.6477   2.6824   2.6866   3.0898   3.2177   4.0817   4.4374

          k = 0.0000-0.0000 0.1871 (  5149 PWs)   bands (ev):

   -33.8020 -33.7915 -17.1358 -17.1313 -15.1902 -15.1902 -14.8962 -14.8962
   -14.7655 -14.6758 -13.9134 -13.9134 -13.4786 -13.4786  -3.3501  -3.1238
    -1.6344  -1.5611  -1.5611  -1.3452  -1.3452  -0.5356   2.3444   2.3444
     2.6955   2.6955   2.9422   2.9422   3.4769   3.4769   3.7668   4.1276

          k =-0.2117-0.1222 0.2495 (  5135 PWs)   bands (ev):

   -33.8007 -33.7926 -17.1410 -17.1191 -15.2074 -15.0869 -15.0386 -14.8439
   -14.8004 -14.7293 -13.8965 -13.7282 -13.6086 -13.4800  -3.2587  -3.1244
    -1.5675  -1.5238  -1.4241  -1.3570  -1.3548  -0.6628   2.3726   2.4423
     2.6032   2.6338   2.7529   2.9090   3.2874   3.3569   3.9578   4.1385

          k = 0.8467 0.4888-0.0624 (  5139 PWs)   bands (ev):

   -33.7982 -33.7947 -17.1229 -17.1214 -15.1937 -15.1103 -15.0478 -14.9220
   -14.7890 -14.7419 -13.8097 -13.6741 -13.6584 -13.5176  -3.1263  -3.0258
    -1.5269  -1.5154  -1.3784  -1.3180  -1.1263  -0.8260   2.2224   2.3113
     2.4887   2.5506   2.6864   2.8804   3.0546   3.1618   4.1647   4.2342

          k = 0.6350 0.3666 0.0000 (  5146 PWs)   bands (ev):

   -33.7973 -33.7953 -17.1673 -17.0642 -15.1984 -15.1908 -14.9789 -14.9620
   -14.7902 -14.7138 -13.8087 -13.7540 -13.5532 -13.5417  -3.0928  -2.9244
    -1.6232  -1.4335  -1.3509  -1.2451  -1.0273  -0.9153   1.9977   2.2099
     2.4028   2.5896   2.6846   2.9441   2.9523   3.1285   4.1811   4.3474

          k = 0.4233 0.2444 0.0624 (  5117 PWs)   bands (ev):

   -33.7999 -33.7929 -17.1841 -17.0530 -15.2184 -15.1648 -14.9903 -14.8633
   -14.8114 -14.7577 -13.8492 -13.7060 -13.6052 -13.5055  -3.1159  -3.0199
    -1.6013  -1.4412  -1.3662  -1.2984  -1.2576  -0.7624   2.1517   2.3776
     2.4591   2.5943   2.6125   2.8773   3.0693   3.2813   4.1559   4.2550

          k =-0.2117 0.1222 0.3119 (  5131 PWs)   bands (ev):

   -33.8001 -33.7931 -17.1513 -17.1105 -15.1857 -15.1010 -15.0009 -14.8870
   -14.7873 -14.7655 -13.8238 -13.7489 -13.5850 -13.5329  -3.2328  -3.1657
    -1.5319  -1.4930  -1.4567  -1.3344  -1.3305  -0.7256   2.3840   2.4331
     2.5611   2.6030   2.8286   2.9685   3.1873   3.3834   3.9772   4.1025

          k = 0.8467 0.7332 0.0000 (  5130 PWs)   bands (ev):

   -33.7985 -33.7945 -17.1502 -17.1008 -15.1866 -15.1449 -14.9560 -14.8968
   -14.8262 -14.7741 -13.7889 -13.7600 -13.5707 -13.5465  -3.1134  -3.1105
    -1.5005  -1.4793  -1.4505  -1.3163  -1.1364  -0.8364   2.2760   2.3207
     2.5331   2.5814   2.6991   2.8789   3.0290   3.2495   4.1601   4.1688

          k = 0.6350 0.6110 0.0624 (  5128 PWs)   bands (ev):

   -33.7963 -33.7963 -17.1416 -17.0969 -15.2007 -15.1350 -15.0184 -14.9000
   -14.8019 -14.7776 -13.8263 -13.7233 -13.5933 -13.5080  -3.0612  -2.9601
    -1.5806  -1.4369  -1.4099  -1.2764  -0.9426  -0.9262   2.0693   2.1633
     2.4417   2.5403   2.6501   2.7551   3.0813   3.1496   4.2326   4.3209

          k = 0.4233 0.4888 0.1247 (  5131 PWs)   bands (ev):

   -33.7983 -33.7943 -17.1795 -17.0512 -15.2630 -15.1445 -15.0273 -14.8383
   -14.8138 -14.7198 -13.9220 -13.6819 -13.6181 -13.4636  -3.0885  -2.9257
    -1.6129  -1.4299  -1.3294  -1.2912  -1.0924  -0.8432   2.0083   2.2792
     2.3697   2.5391   2.6264   2.7909   3.0808   3.2105   4.1863   4.3705

          k = 0.8467-0.4888-0.3119 (  5133 PWs)   bands (ev):

   -33.7982 -33.7947 -17.1879 -17.0557 -15.2597 -15.1590 -14.9080 -14.8560
   -14.8325 -14.7469 -13.8624 -13.8166 -13.5284 -13.4955  -3.1770  -2.9824
    -1.5910  -1.4348  -1.3561  -1.3020  -1.0700  -0.9024   2.1008   2.2842
     2.5204   2.6564   2.6973   2.8034   3.0045   3.2485   4.1053   4.2839

          k = 0.6350-0.6110-0.2495 (  5132 PWs)   bands (ev):

   -33.7973 -33.7953 -17.1702 -17.0675 -15.2181 -15.1937 -14.9290 -14.8422
   -14.8189 -14.8074 -13.8575 -13.7923 -13.5283 -13.4981  -3.0944  -2.9263
    -1.5812  -1.4759  -1.3412  -1.2968  -0.9670  -0.8973   2.0015   2.1790
     2.4831   2.5821   2.6257   2.6836   3.0967   3.1817   4.1897   4.3613

          k = 0.4233-0.7332-0.1871 (  5152 PWs)   bands (ev):

   -33.7963 -33.7963 -17.1171 -17.1171 -15.1774 -15.1774 -14.9630 -14.9630
   -14.7844 -14.7844 -13.7940 -13.7940 -13.5292 -13.5292  -2.9744  -2.9744
    -1.5370  -1.5370  -1.3141  -1.3141  -0.9160  -0.9160   2.0907   2.0907
     2.4226   2.4226   2.6383   2.6383   3.1636   3.1636   4.3228   4.3228

          k = 0.6350-0.3666-0.1871 (  5132 PWs)   bands (ev):

   -33.7980 -33.7946 -17.2033 -17.0242 -15.2661 -15.2600 -14.8793 -14.8486
   -14.8165 -14.6854 -13.9385 -13.8483 -13.4918 -13.4607  -3.1531  -2.8610
    -1.6443  -1.4134  -1.2988  -1.2785  -1.0320  -0.9039   1.9096   2.2184
     2.4075   2.6526   2.6622   2.7825   3.0587   3.1851   4.1108   4.4123

          k = 0.0000-0.0000 0.3742 (  5136 PWs)   bands (ev):

   -33.7998 -33.7937 -17.1361 -17.1335 -15.1416 -15.1416 -14.9767 -14.9767
   -14.7447 -14.6929 -13.8034 -13.8034 -13.5572 -13.5572  -3.3269  -3.2030
    -1.5151  -1.5151  -1.3907  -1.3907  -1.3794  -0.7501   2.4195   2.4195
     2.6190   2.6190   3.0475   3.0475   3.3513   3.3513   3.8342   4.0381

          k = 1.0583 0.6110 0.0624 (  5122 PWs)   bands (ev):

   -33.7984 -33.7949 -17.1323 -17.1308 -15.1815 -15.1010 -15.0354 -14.9034
   -14.7748 -14.7235 -13.8269 -13.6782 -13.6629 -13.5289  -3.2506  -3.1711
    -1.4986  -1.4683  -1.4153  -1.4046  -1.1962  -0.8621   2.3991   2.4711
     2.5464   2.5685   2.8696   3.0695   3.1280   3.2601   3.9870   4.0811

          k = 0.8467 0.4888 0.1247 (  5132 PWs)   bands (ev):

   -33.7964 -33.7964 -17.1616 -17.0845 -15.2449 -15.0997 -15.0169 -14.8626
   -14.8214 -14.7295 -13.8637 -13.7406 -13.5930 -13.4901  -3.1662  -2.9962
    -1.5755  -1.4136  -1.4021  -1.3185  -1.0042  -0.9420   2.1439   2.2966
     2.5367   2.6100   2.6378   2.9009   3.0372   3.1432   4.1241   4.2645

          k = 1.0583-0.6110-0.2495 (  5120 PWs)   bands (ev):

   -33.7976 -33.7956 -17.1442 -17.1197 -15.1788 -15.0811 -15.0242 -14.9423
   -14.7632 -14.7392 -13.7928 -13.6771 -13.6549 -13.5621  -3.2186  -3.2104
    -1.4985  -1.4513  -1.4307  -1.3895  -1.1195  -0.9474   2.4323   2.4337
     2.5414   2.5556   2.9435   3.0401   3.1065   3.2537   4.0227   4.0384

          k = 0.8467-0.7332-0.1871 (  5134 PWs)   bands (ev):

   -33.7965 -33.7965 -17.1268 -17.1268 -15.1639 -15.1639 -14.9253 -14.9253
   -14.8017 -14.8017 -13.7696 -13.7696 -13.5634 -13.5634  -3.1173  -3.1173
    -1.4943  -1.4943  -1.3724  -1.3724  -0.9814  -0.9814   2.2834   2.2834
     2.5653   2.5653   2.7875   2.7875   3.1311   3.1311   4.1600   4.1600

          k = 0.0000 0.0000-0.5614 (  5112 PWs)   bands (ev):

   -33.7967 -33.7967 -17.1354 -17.1354 -15.0664 -15.0664 -15.0664 -15.0664
   -14.7179 -14.7179 -13.6731 -13.6731 -13.6731 -13.6731  -3.2779  -3.2779
    -1.4528  -1.4528  -1.4528  -1.4528  -1.0558  -1.0558   2.5199   2.5199
     2.5199   2.5199   3.1934   3.1934   3.1934   3.1934   3.9310   3.9310

     highest occupied level (ev):     4.4374

!    total energy              =    -367.43027223 Ry
     Harris-Foulkes estimate   =    -367.43027223 Ry
     estimated scf accuracy    <          4.2E-09 Ry

     The total energy is the sum of the following terms:

     one-electron contribution =    -149.30700153 Ry
     hartree contribution      =     103.88241081 Ry
     xc contribution           =     -75.25778665 Ry
     ewald contribution        =    -246.74789486 Ry

     convergence has been achieved in   7 iterations

     Forces acting on atoms (cartesian axes, Ry/au):

     atom    1 type  1   force =     0.00000000    0.00000000    0.00000000
     atom    2 type  1   force =     0.00000000    0.00000000    0.00000000
     atom    3 type  2   force =     0.00000000    0.00000000    0.00000000
     atom    4 type  2   force =    -0.00000000    0.00000000   -0.00000000
     atom    5 type  3   force =     0.00202208   -0.00350235   -0.00000000
     atom    6 type  3   force =    -0.00404416    0.00000000    0.00000000
     atom    7 type  3   force =     0.00202208    0.00350235    0.00000000
     atom    8 type  3   force =     0.00404416   -0.00000000   -0.00000000
     atom    9 type  3   force =    -0.00202208   -0.00350235   -0.00000000
     atom   10 type  3   force =    -0.00202208    0.00350235    0.00000000

     Total force =     0.009906     Total SCF correction =     0.000192


     Computing stress (Cartesian axis) and pressure

          total   stress  (Ry/bohr**3)                   (kbar)     P=   -3.88
  -0.00002742   0.00000000   0.00000000         -4.03      0.00      0.00
   0.00000000  -0.00002742  -0.00000000          0.00     -4.03     -0.00
   0.00000000  -0.00000000  -0.00002426          0.00     -0.00     -3.57


     number of scf cycles    =   2
     number of bfgs steps    =   1

     energy   old            =    -367.4299961681 Ry
     energy   new            =    -367.4302722289 Ry

     CASE: energy  _new < energy  _old

     new trust radius        =       0.0030095001 bohr
     new conv_thr            =       0.0000000003 Ry


ATOMIC_POSITIONS (crystal)
Ca       0.500000000   0.500000000   0.500000000
Ca       0.000000000   0.000000000   0.000000000
C        0.250000000   0.250000000   0.250000000
C        0.750000000   0.750000000   0.750000000
O        0.506102713   0.993897287   0.250000000
O        0.993897287   0.250000000   0.506102713
O        0.250000000   0.506102713   0.993897287
O        0.006102713   0.750000000   0.493897287
O        0.750000000   0.493897287   0.006102713
O        0.493897287   0.006102713   0.750000000



     Writing output data file CCO.save/
     NEW-OLD atomic charge density approx. for the potential

     Check: negative core charge=   -0.000003

     total cpu time spent up to now is      193.7 secs

     Self-consistent Calculation

     iteration #  1     ecut=    50.00 Ry     beta= 0.70
     CG style diagonalization
     ethr =  1.00E-06,  avg # of iterations =  3.2

     Threshold (ethr) on eigenvalues was too large:
     Diagonalizing with lowered threshold

     CG style diagonalization
     c_bands:  1 eigenvalues not converged
     c_bands:  1 eigenvalues not converged
     c_bands:  1 eigenvalues not converged
     c_bands:  1 eigenvalues not converged
     c_bands:  1 eigenvalues not converged
     ethr =  4.03E-08,  avg # of iterations =  4.4

     total cpu time spent up to now is      214.7 secs

     total energy              =    -367.43029524 Ry
     Harris-Foulkes estimate   =    -367.43031883 Ry
     estimated scf accuracy    <       0.00003204 Ry

     iteration #  2     ecut=    50.00 Ry     beta= 0.70
     CG style diagonalization
     ethr =  5.01E-08,  avg # of iterations =  4.0

     total cpu time spent up to now is      225.6 secs

     total energy              =    -367.43030463 Ry
     Harris-Foulkes estimate   =    -367.43031264 Ry
     estimated scf accuracy    <       0.00001433 Ry

     iteration #  3     ecut=    50.00 Ry     beta= 0.70
     CG style diagonalization
     ethr =  2.24E-08,  avg # of iterations =  3.6

     total cpu time spent up to now is      235.2 secs

     total energy              =    -367.43030799 Ry
     Harris-Foulkes estimate   =    -367.43030811 Ry
     estimated scf accuracy    <       0.00000025 Ry

     iteration #  4     ecut=    50.00 Ry     beta= 0.70
     CG style diagonalization
     ethr =  3.92E-10,  avg # of iterations =  4.4

     total cpu time spent up to now is      247.0 secs

     total energy              =    -367.43030819 Ry
     Harris-Foulkes estimate   =    -367.43030827 Ry
     estimated scf accuracy    <       0.00000020 Ry

     iteration #  5     ecut=    50.00 Ry     beta= 0.70
     CG style diagonalization
     ethr =  3.14E-10,  avg # of iterations =  3.5

     total cpu time spent up to now is      257.1 secs

     total energy              =    -367.43030821 Ry
     Harris-Foulkes estimate   =    -367.43030822 Ry
     estimated scf accuracy    <          9.3E-09 Ry

     iteration #  6     ecut=    50.00 Ry     beta= 0.70
     CG style diagonalization
     ethr =  1.45E-11,  avg # of iterations =  4.0

     total cpu time spent up to now is      267.9 secs

     total energy              =    -367.43030821 Ry
     Harris-Foulkes estimate   =    -367.43030821 Ry
     estimated scf accuracy    <          7.8E-10 Ry

     iteration #  7     ecut=    50.00 Ry     beta= 0.70
     CG style diagonalization
     ethr =  1.21E-12,  avg # of iterations =  4.0

     total cpu time spent up to now is      278.7 secs

     End of self-consistent calculation

          k = 0.0000 0.0000 0.0000 (  5209 PWs)   bands (ev):

   -33.7982 -33.7861 -17.1171 -17.1102 -15.2034 -15.2034 -14.8578 -14.8578
   -14.7692 -14.6629 -13.9489 -13.9489 -13.4401 -13.4401  -3.3609  -3.0935
    -1.7238  -1.5748  -1.5748  -1.3249  -1.3249  -0.4446   2.3150   2.3150
     2.7293   2.7293   2.9001   2.9001   3.5250   3.5250   3.7339   4.1559

          k =-0.2117-0.1222 0.0624 (  5137 PWs)   bands (ev):

   -33.7973 -33.7868 -17.1290 -17.0905 -15.2017 -15.1297 -14.9463 -14.8533
   -14.7931 -14.7544 -13.8974 -13.7785 -13.5402 -13.4605  -3.2579  -3.1038
    -1.6355  -1.5338  -1.4904  -1.3626  -1.3133  -0.5535   2.3610   2.4220
     2.6298   2.6672   2.7395   2.7952   3.3790   3.4031   3.9402   4.1627

          k =-0.4233-0.2444 0.1247 (  5137 PWs)   bands (ev):

   -33.7948 -33.7888 -17.1380 -17.0630 -15.1897 -15.0874 -15.0730 -14.9238
   -14.7684 -14.7505 -13.7882 -13.6745 -13.6211 -13.5259  -3.0763  -3.0744
    -1.5828  -1.4616  -1.3251  -1.3227  -1.2457  -0.7488   2.2373   2.3123
     2.5160   2.5397   2.6785   2.7806   3.1566   3.1888   4.1915   4.2056

          k = 0.6350 0.3666-0.1871 (  5136 PWs)   bands (ev):

   -33.7917 -33.7917 -17.0972 -17.0972 -15.0954 -15.0954 -15.0793 -15.0793
   -14.7467 -14.7467 -13.6545 -13.6545 -13.6359 -13.6359  -3.0155  -3.0155
    -1.5455  -1.5455  -1.2800  -1.2800  -0.9577  -0.9577   2.1127   2.1127
     2.4901   2.4901   2.7975   2.7975   3.0611   3.0611   4.2583   4.2583

          k =-0.2117 0.1222 0.1247 (  5142 PWs)   bands (ev):

   -33.7971 -33.7870 -17.1330 -17.0874 -15.1654 -15.1644 -14.9122 -14.8632
   -14.8019 -14.7831 -13.8382 -13.8144 -13.5136 -13.4977  -3.2491  -3.1208
    -1.5999  -1.5227  -1.5145  -1.3615  -1.3048  -0.5763   2.3624   2.4192
     2.6104   2.6324   2.7670   2.8457   3.3164   3.4397   3.9449   4.1483

          k =-0.4233-0.0000 0.1871 (  5131 PWs)   bands (ev):

   -33.7954 -33.7884 -17.1465 -17.0604 -15.1898 -15.1487 -14.9587 -14.9025
   -14.7850 -14.7796 -13.7877 -13.7622 -13.5490 -13.5261  -3.1100  -3.1037
    -1.5518  -1.4552  -1.4423  -1.2892  -1.2636  -0.7239   2.2837   2.3871
     2.5274   2.5359   2.6635   2.8123   3.1154   3.3035   4.1611   4.1723

          k = 0.6350 0.6110-0.1247 (  5136 PWs)   bands (ev):

   -33.7927 -33.7907 -17.1109 -17.0857 -15.1916 -15.1012 -15.0395 -14.9721
   -14.7633 -14.7526 -13.7942 -13.6812 -13.6065 -13.5189  -3.0183  -3.0122
    -1.5360  -1.5204  -1.3514  -1.2682  -1.0131  -0.8687   2.1186   2.1818
     2.4340   2.4629   2.6892   2.7711   3.0665   3.1675   4.2642   4.2789

          k = 0.4233 0.4888-0.0624 (  5137 PWs)   bands (ev):

   -33.7934 -33.7900 -17.1410 -17.0516 -15.2227 -15.0983 -15.0849 -14.8948
   -14.7866 -14.7215 -13.8410 -13.6766 -13.6041 -13.4946  -3.0592  -2.9679
    -1.6021  -1.4345  -1.3355  -1.2683  -1.0984  -0.8322   2.0669   2.2640
     2.3867   2.4852   2.6486   2.7962   3.1073   3.1628   4.2170   4.3288

          k = 0.2117 0.3666 0.0000 (  5123 PWs)   bands (ev):

   -33.7959 -33.7878 -17.1519 -17.0523 -15.1873 -15.1591 -14.9772 -14.8733
   -14.8059 -14.7648 -13.7822 -13.7782 -13.5376 -13.5266  -3.1050  -3.0977
    -1.5858  -1.4448  -1.3973  -1.3481  -1.2846  -0.6888   2.2905   2.4457
     2.4756   2.5854   2.5930   2.7824   3.1861   3.3023   4.1663   4.1769

          k =-0.4233 0.2444 0.2495 (  5135 PWs)   bands (ev):

   -33.7948 -33.7888 -17.1768 -17.0234 -15.2281 -15.2006 -14.8892 -14.8371
   -14.8088 -14.7888 -13.8489 -13.7889 -13.5255 -13.4872  -3.1636  -2.9943
    -1.5844  -1.4380  -1.3922  -1.2636  -1.1681  -0.8057   2.1018   2.3347
     2.4477   2.6569   2.6584   2.9182   2.9464   3.3064   4.1109   4.2747

          k = 0.6350 0.8554-0.0624 (  5146 PWs)   bands (ev):

   -33.7934 -33.7900 -17.1648 -17.0300 -15.2586 -15.1721 -14.9319 -14.8652
   -14.7995 -14.7403 -13.9149 -13.7421 -13.5461 -13.4521  -3.1104  -2.9190
    -1.5761  -1.4722  -1.3640  -1.2480  -1.0130  -0.8581   1.9796   2.2186
     2.4333   2.5781   2.6453   2.6989   3.0734   3.2288   4.1649   4.3733

          k = 0.4233 0.7332 0.0000 (  5147 PWs)   bands (ev):

   -33.7916 -33.7916 -17.0978 -17.0976 -15.1887 -15.1540 -14.9990 -14.9103
   -14.8141 -14.7570 -13.7872 -13.7815 -13.5202 -13.5173  -2.9809  -2.9804
    -1.5678  -1.4597  -1.4010  -1.2493  -0.9292  -0.8854   2.0848   2.0957
     2.4132   2.4318   2.6191   2.6568   3.1397   3.1836   4.3145   4.3180

          k = 0.6350-0.3666-0.3742 (  5132 PWs)   bands (ev):

   -33.7937 -33.7897 -17.1979 -16.9885 -15.2862 -15.2810 -14.8407 -14.8149
   -14.7944 -14.6680 -13.9860 -13.8782 -13.4599 -13.4217  -3.1816  -2.8431
    -1.6388  -1.4273  -1.3022  -1.2345  -1.0132  -0.9010   1.8761   2.1936
     2.4654   2.6467   2.6819   2.6872   3.0889   3.2166   4.0746   4.4308

          k = 0.0000-0.0000 0.1871 (  5149 PWs)   bands (ev):

   -33.7974 -33.7869 -17.1173 -17.1113 -15.1866 -15.1866 -14.8921 -14.8921
   -14.7611 -14.6691 -13.9037 -13.9037 -13.4679 -13.4679  -3.3548  -3.1299
    -1.6241  -1.5579  -1.5579  -1.3416  -1.3416  -0.5216   2.3430   2.3430
     2.6963   2.6963   2.9426   2.9426   3.4768   3.4768   3.7583   4.1199

          k =-0.2117-0.1222 0.2495 (  5135 PWs)   bands (ev):

   -33.7961 -33.7880 -17.1213 -17.1002 -15.2037 -15.0832 -15.0345 -14.8396
   -14.7959 -14.7232 -13.8867 -13.7183 -13.5982 -13.4694  -3.2636  -3.1305
    -1.5597  -1.5204  -1.4192  -1.3518  -1.3509  -0.6496   2.3714   2.4414
     2.6035   2.6343   2.7532   2.9090   3.2869   3.3561   3.9506   4.1311

          k = 0.8467 0.4888-0.0624 (  5139 PWs)   bands (ev):

   -33.7936 -33.7901 -17.1038 -17.1018 -15.1898 -15.1064 -15.0441 -14.9178
   -14.7842 -14.7361 -13.7998 -13.6640 -13.6485 -13.5072  -3.1319  -3.0320
    -1.5229  -1.5094  -1.3738  -1.3134  -1.1175  -0.8139   2.2220   2.3110
     2.4888   2.5506   2.6857   2.8794   3.0536   3.1607   4.1579   4.2272

          k = 0.6350 0.3666 0.0000 (  5146 PWs)   bands (ev):

   -33.7927 -33.7907 -17.1484 -17.0441 -15.1946 -15.1872 -14.9749 -14.9581
   -14.7854 -14.7077 -13.7991 -13.7442 -13.5429 -13.5313  -3.0992  -2.9303
    -1.6187  -1.4283  -1.3461  -1.2401  -1.0164  -0.9045   1.9973   2.2096
     2.4023   2.5900   2.6837   2.9431   2.9514   3.1271   4.1743   4.3407

          k = 0.4233 0.2444 0.0624 (  5117 PWs)   bands (ev):

   -33.7953 -33.7883 -17.1652 -17.0331 -15.2147 -15.1610 -14.9860 -14.8589
   -14.8068 -14.7524 -13.8395 -13.6961 -13.5949 -13.4949  -3.1225  -3.0252
    -1.5963  -1.4370  -1.3584  -1.2943  -1.2513  -0.7498   2.1513   2.3776
     2.4582   2.5936   2.6129   2.8769   3.0685   3.2803   4.1489   4.2482

          k =-0.2117 0.1222 0.3119 (  5131 PWs)   bands (ev):

   -33.7955 -33.7885 -17.1319 -17.0914 -15.1820 -15.0972 -14.9964 -14.8829
   -14.7817 -14.7608 -13.8139 -13.7391 -13.5745 -13.5223  -3.2377  -3.1716
    -1.5269  -1.4894  -1.4505  -1.3305  -1.3238  -0.7126   2.3829   2.4323
     2.5610   2.6035   2.8284   2.9688   3.1869   3.3829   3.9697   4.0951

          k = 0.8467 0.7332 0.0000 (  5130 PWs)   bands (ev):

   -33.7939 -33.7898 -17.1310 -17.0814 -15.1829 -15.1408 -14.9519 -14.8916
   -14.8220 -14.7690 -13.7791 -13.7500 -13.5604 -13.5360  -3.1195  -3.1158
    -1.4968  -1.4748  -1.4442  -1.3119  -1.1276  -0.8244   2.2754   2.3198
     2.5331   2.5817   2.6986   2.8782   3.0282   3.2485   4.1530   4.1619

          k = 0.6350 0.6110 0.0624 (  5128 PWs)   bands (ev):

   -33.7917 -33.7917 -17.1225 -17.0772 -15.1969 -15.1313 -15.0140 -14.8954
   -14.7973 -14.7725 -13.8167 -13.7136 -13.5829 -13.4974  -3.0673  -2.9661
    -1.5760  -1.4326  -1.4038  -1.2714  -0.9325  -0.9152   2.0688   2.1625
     2.4417   2.5404   2.6493   2.7541   3.0802   3.1483   4.2259   4.3142

          k = 0.4233 0.4888 0.1247 (  5131 PWs)   bands (ev):

   -33.7937 -33.7897 -17.1606 -17.0310 -15.2595 -15.1406 -15.0232 -14.8338
   -14.8096 -14.7139 -13.9125 -13.6720 -13.6078 -13.4530  -3.0950  -2.9314
    -1.6083  -1.4248  -1.3242  -1.2862  -1.0829  -0.8316   2.0079   2.2783
     2.3696   2.5393   2.6255   2.7901   3.0800   3.2092   4.1794   4.3639

          k = 0.8467-0.4888-0.3119 (  5133 PWs)   bands (ev):

   -33.7935 -33.7901 -17.1692 -17.0356 -15.2561 -15.1550 -14.9032 -14.8520
   -14.8282 -14.7413 -13.8527 -13.8071 -13.5178 -13.4850  -3.1832  -2.9878
    -1.5873  -1.4303  -1.3493  -1.2975  -1.0607  -0.8910   2.1001   2.2829
     2.5206   2.6568   2.6965   2.8028   3.0034   3.2477   4.0983   4.2770

          k = 0.6350-0.6110-0.2495 (  5132 PWs)   bands (ev):

   -33.7927 -33.7907 -17.1513 -17.0475 -15.2145 -15.1897 -14.9246 -14.8369
   -14.8147 -14.8026 -13.8481 -13.7826 -13.5178 -13.4874  -3.1007  -2.9321
    -1.5771  -1.4707  -1.3346  -1.2921  -0.9570  -0.8865   2.0009   2.1778
     2.4832   2.5822   2.6250   2.6826   3.0954   3.1806   4.1830   4.3547

          k = 0.4233-0.7332-0.1871 (  5152 PWs)   bands (ev):

   -33.7916 -33.7916 -17.0977 -17.0977 -15.1736 -15.1736 -14.9584 -14.9584
   -14.7796 -14.7796 -13.7844 -13.7844 -13.5188 -13.5188  -2.9806  -2.9806
    -1.5319  -1.5319  -1.3090  -1.3090  -0.9053  -0.9053   2.0902   2.0902
     2.4226   2.4226   2.6371   2.6371   3.1625   3.1625   4.3163   4.3163

          k = 0.6350-0.3666-0.1871 (  5132 PWs)   bands (ev):

   -33.7934 -33.7900 -17.1848 -17.0036 -15.2625 -15.2566 -14.8752 -14.8445
   -14.8122 -14.6789 -13.9292 -13.8386 -13.4813 -13.4500  -3.1596  -2.8667
    -1.6404  -1.4079  -1.2945  -1.2714  -1.0226  -0.8928   1.9090   2.2171
     2.4074   2.6520   2.6628   2.7815   3.0578   3.1839   4.1038   4.4056

          k = 0.0000-0.0000 0.3742 (  5136 PWs)   bands (ev):

   -33.7952 -33.7891 -17.1173 -17.1139 -15.1379 -15.1379 -14.9727 -14.9727
   -14.7398 -14.6867 -13.7935 -13.7935 -13.5467 -13.5467  -3.3317  -3.2084
    -1.5118  -1.5118  -1.3872  -1.3872  -1.3688  -0.7373   2.4185   2.4185
     2.6193   2.6193   3.0478   3.0478   3.3513   3.3513   3.8259   4.0303

          k = 1.0583 0.6110 0.0624 (  5122 PWs)   bands (ev):

   -33.7938 -33.7903 -17.1133 -17.1113 -15.1777 -15.0971 -15.0316 -14.8992
   -14.7699 -14.7176 -13.8170 -13.6680 -13.6529 -13.5185  -3.2557  -3.1766
    -1.4952  -1.4633  -1.4117  -1.4005  -1.1865  -0.8500   2.3982   2.4705
     2.5464   2.5684   2.8697   3.0692   3.1275   3.2596   3.9796   4.0736

          k = 0.8467 0.4888 0.1247 (  5132 PWs)   bands (ev):

   -33.7918 -33.7918 -17.1428 -17.0646 -15.2412 -15.0959 -15.0126 -14.8582
   -14.8173 -14.7236 -13.8540 -13.7310 -13.5826 -13.4796  -3.1721  -3.0019
    -1.5716  -1.4089  -1.3968  -1.3133  -0.9942  -0.9309   2.1433   2.2956
     2.5371   2.6102   2.6370   2.9000   3.0361   3.1422   4.1172   4.2576

          k = 1.0583-0.6110-0.2495 (  5120 PWs)   bands (ev):

   -33.7930 -33.7910 -17.1250 -17.1005 -15.1751 -15.0770 -15.0202 -14.9383
   -14.7578 -14.7339 -13.7829 -13.6667 -13.6449 -13.5518  -3.2241  -3.2155
    -1.4947  -1.4477  -1.4265  -1.3854  -1.1088  -0.9358   2.4318   2.4331
     2.5409   2.5556   2.9432   3.0400   3.1064   3.2533   4.0151   4.0309

          k = 0.8467-0.7332-0.1871 (  5134 PWs)   bands (ev):

   -33.7919 -33.7919 -17.1075 -17.1075 -15.1600 -15.1600 -14.9207 -14.9207
   -14.7969 -14.7969 -13.7598 -13.7598 -13.5530 -13.5530  -3.1230  -3.1230
    -1.4903  -1.4903  -1.3673  -1.3673  -0.9708  -0.9708   2.2827   2.2827
     2.5652   2.5652   2.7870   2.7870   3.1301   3.1301   4.1530   4.1530

          k = 0.0000 0.0000-0.5614 (  5112 PWs)   bands (ev):

   -33.7921 -33.7921 -17.1162 -17.1162 -15.0626 -15.0626 -15.0626 -15.0626
   -14.7123 -14.7123 -13.6630 -13.6630 -13.6630 -13.6630  -3.2829  -3.2829
    -1.4494  -1.4494  -1.4494  -1.4494  -1.0443  -1.0443   2.5196   2.5196
     2.5196   2.5196   3.1935   3.1935   3.1935   3.1935   3.9229   3.9229

     highest occupied level (ev):     4.4308

!    total energy              =    -367.43030821 Ry
     Harris-Foulkes estimate   =    -367.43030821 Ry
     estimated scf accuracy    <          1.8E-10 Ry

     The total energy is the sum of the following terms:

     one-electron contribution =    -149.07727963 Ry
     hartree contribution      =     103.76984354 Ry
     xc contribution           =     -75.24633575 Ry
     ewald contribution        =    -246.87653638 Ry

     convergence has been achieved in   7 iterations

     Forces acting on atoms (cartesian axes, Ry/au):

     atom    1 type  1   force =     0.00000000    0.00000000    0.00000000
     atom    2 type  1   force =    -0.00000000    0.00000000   -0.00000000
     atom    3 type  2   force =    -0.00000000    0.00000000   -0.00000000
     atom    4 type  2   force =     0.00000000    0.00000000    0.00000000
     atom    5 type  3   force =    -0.00002769    0.00004796    0.00000000
     atom    6 type  3   force =     0.00005537   -0.00000000   -0.00000000
     atom    7 type  3   force =    -0.00002769   -0.00004796   -0.00000000
     atom    8 type  3   force =    -0.00005537    0.00000000    0.00000000
     atom    9 type  3   force =     0.00002769    0.00004796    0.00000000
     atom   10 type  3   force =     0.00002769   -0.00004796   -0.00000000

     Total force =     0.000136     Total SCF correction =     0.000043
     SCF correction compared to forces is large: reduce conv_thr to get better values


     Computing stress (Cartesian axis) and pressure

          total   stress  (Ry/bohr**3)                   (kbar)     P=   -6.56
  -0.00005680   0.00000000  -0.00000000         -8.36      0.00     -0.00
   0.00000000  -0.00005680  -0.00000000          0.00     -8.36     -0.00
  -0.00000000  -0.00000000  -0.00002016         -0.00     -0.00     -2.97


     bfgs converged in   3 scf cycles and   2 bfgs steps
     (criteria: energy <  1.0E-04 Ry, force <  1.0E-03 Ry/Bohr)

     End of BFGS Geometry Optimization

     Final energy   =    -367.4303082143 Ry
Begin final coordinates

ATOMIC_POSITIONS (crystal)
Ca       0.500000000   0.500000000   0.500000000
Ca       0.000000000   0.000000000   0.000000000
C        0.250000000   0.250000000   0.250000000
C        0.750000000   0.750000000   0.750000000
O        0.506102713   0.993897287   0.250000000
O        0.993897287   0.250000000   0.506102713
O        0.250000000   0.506102713   0.993897287
O        0.006102713   0.750000000   0.493897287
O        0.750000000   0.493897287   0.006102713
O        0.493897287   0.006102713   0.750000000
End final coordinates



     Writing output data file CCO.save/
 
     init_run     :      3.74s CPU      4.33s WALL (       1 calls)
     electrons    :    238.70s CPU    269.55s WALL (       3 calls)
     update_pot   :      0.58s CPU      0.59s WALL (       2 calls)
     forces       :      1.59s CPU      1.69s WALL (       3 calls)
     stress       :      3.07s CPU      3.16s WALL (       3 calls)

     Called by init_run:
     wfcinit      :      3.04s CPU      3.50s WALL (       1 calls)
     potinit      :      0.13s CPU      0.14s WALL (       1 calls)
     hinit0       :      0.32s CPU      0.37s WALL (       1 calls)

     Called by electrons:
     c_bands      :    219.37s CPU    247.94s WALL (      25 calls)
     sum_band     :     16.93s CPU     18.43s WALL (      25 calls)
     v_of_rho     :      1.36s CPU      1.40s WALL (      27 calls)
     newd         :      0.86s CPU      1.31s WALL (      27 calls)
     mix_rho      :      0.17s CPU      0.18s WALL (      25 calls)

     Called by c_bands:
     init_us_2    :      0.45s CPU      0.55s WALL (    1824 calls)
     ccgdiagg     :    177.47s CPU    197.64s WALL (     800 calls)
     wfcrot       :     44.40s CPU     52.46s WALL (     704 calls)

     Called by sum_band:
     sum_band:bec :      0.20s CPU      0.22s WALL (     800 calls)
     addusdens    :      0.75s CPU      1.20s WALL (      25 calls)

     Called by *cgdiagg:
     h_psi        :    156.16s CPU    170.56s WALL (   80493 calls)
     s_psi        :     10.99s CPU     13.00s WALL (  160282 calls)
     cdiaghg      :     14.77s CPU     20.66s WALL (     704 calls)

     Called by h_psi:
     h_psi:pot    :    153.78s CPU    167.72s WALL (   80493 calls)
     h_psi:calbec :     15.21s CPU     16.82s WALL (   80493 calls)
     vloc_psi     :    128.00s CPU    139.32s WALL (   80493 calls)
     add_vuspsi   :      7.55s CPU      8.57s WALL (   80493 calls)
     hs_1psi      :    140.20s CPU    153.98s WALL (   79789 calls)
     s_1psi       :     17.76s CPU     20.69s WALL (   79789 calls)

     General routines
     calbec       :     22.75s CPU     26.03s WALL (  161562 calls)
     fft          :      1.34s CPU      1.39s WALL (     423 calls)
     ffts         :      0.06s CPU      0.06s WALL (      52 calls)
     fftw         :    134.96s CPU    146.32s WALL (  231514 calls)
     interpolate  :      0.13s CPU      0.13s WALL (      27 calls)
 
     Parallel routines
     fft_scatt_xy :      7.10s CPU      7.68s WALL (  231989 calls)
     fft_scatt_yz :     97.42s CPU    105.72s WALL (  231989 calls)
 
     PWSCF        :   4m 9.46s CPU   4m43.15s WALL

 
   This run was terminated on:   9:26:35   1May2022            

=------------------------------------------------------------------------------=
   JOB DONE.
=------------------------------------------------------------------------------=
