
     Program PWSCF v.6.4.1 starts on  1May2022 at  9:26:43 

     This program is part of the open-source Quantum ESPRESSO suite
     for quantum simulation of materials; please cite
         "P. Giannozzi et al., J. Phys.:Condens. Matter 21 395502 (2009);
         "P. Giannozzi et al., J. Phys.:Condens. Matter 29 465901 (2017);
          URL http://www.quantum-espresso.org", 
     in publications or presentations arising from this work. More details at
     http://www.quantum-espresso.org/quote

     Parallel version (MPI & OpenMP), running on      68 processor cores
     Number of MPI processes:                68
     Threads/MPI process:                     1

     MPI processes distributed on     1 nodes
     R & G space division:  proc/nbgrp/npool/nimage =      68
     Waiting for input...
     Reading input from standard input
Warning: card &CELL ignored
Warning: card  CELL_DYNAMICS = 'BFGS', ignored
Warning: card  PRESS=0.1D0, ignored
Warning: card / ignored

     Current dimensions of program PWSCF are:
     Max number of different atomic species (ntypx) = 10
     Max number of k-points (npk) =  40000
     Max angular momentum in pseudopotentials (lmaxx) =  3

     Subspace diagonalization in iterative solution of the eigenvalue problem:
     one sub-group per band group will be used
     scalapack distributed-memory algorithm (size of sub-group:  5*  5 procs)

 
     Parallelization info
     --------------------
     sticks:   dense  smooth     PW     G-vecs:    dense   smooth      PW
     Min          72      24      7                 2867      552      89
     Max          73      25      8                 2872      555      92
     Sum        4897    1635    485               195175    37645    6165
 


     bravais-lattice index     =            5
     lattice parameter (alat)  =      12.1600  a.u.
     unit-cell volume          =     786.4184 (a.u.)^3
     number of atoms/cell      =           10
     number of atomic types    =            3
     number of electrons       =        64.00
     number of Kohn-Sham states=           32
     kinetic-energy cutoff     =      50.0000  Ry
     charge density cutoff     =     600.0000  Ry
     convergence threshold     =      1.0E-08
     mixing beta               =       0.7000
     number of iterations used =            8  plain     mixing
     Exchange-correlation      = SLA  PW   PBE  PBE ( 1  4  3  4 0 0)
     nstep                     =           50


     celldm(1)=  12.160000  celldm(2)=   0.000000  celldm(3)=   0.000000
     celldm(4)=   0.720000  celldm(5)=   0.000000  celldm(6)=   0.000000

     crystal axes: (cart. coord. in units of alat)
               a(1) = (   0.374166  -0.216025   0.901850 )  
               a(2) = (   0.000000   0.432049   0.901850 )  
               a(3) = (  -0.374166  -0.216025   0.901850 )  

     reciprocal axes: (cart. coord. in units 2 pi/alat)
               b(1) = (  1.336306 -0.771517  0.369611 )  
               b(2) = (  0.000000  1.543033  0.369611 )  
               b(3) = ( -1.336306 -0.771517  0.369611 )  


     PseudoPot. # 1 for Ca read from file:
     ./Ca_PBE.UPF
     MD5 check sum: 403a4c14b9e4d4dfdc3024c9a3812218
     Pseudo is Ultrasoft + core correction, Zval = 10.0
     Generated by new atomic code, or converted to UPF format
     Using radial grid of  845 points,  6 beta functions with: 
                l(1) =   0
                l(2) =   0
                l(3) =   1
                l(4) =   1
                l(5) =   2
                l(6) =   2
     Q(r) pseudized with  8 coefficients,  rinner =    1.500   1.500   1.500
                                                       1.500   1.500

     PseudoPot. # 2 for C  read from file:
     ./C_PBE.UPF
     MD5 check sum: d1aef80898a10debaa0f26306b886e00
     Pseudo is Ultrasoft + core correction, Zval =  4.0
     Generated by new atomic code, or converted to UPF format
     Using radial grid of  721 points,  4 beta functions with: 
                l(1) =   0
                l(2) =   0
                l(3) =   1
                l(4) =   1
     Q(r) pseudized with  8 coefficients,  rinner =    1.100   1.100   1.100


     PseudoPot. # 3 for O  read from file:
     ./O_PBE.UPF
     MD5 check sum: 734c27235a0248c51dbae37a1fbe46ec
     Pseudo is Ultrasoft + core correction, Zval =  6.0
     Generated by new atomic code, or converted to UPF format
     Using radial grid of  737 points,  5 beta functions with: 
                l(1) =   0
                l(2) =   0
                l(3) =   1
                l(4) =   1
                l(5) =   2
     Q(r) pseudized with  8 coefficients,  rinner =    0.900   0.900   0.900
                                                       0.900   0.900

     atomic species   valence    mass     pseudopotential
        Ca            10.00    40.07800     Ca( 1.00)
        C              4.00    12.01070     C ( 1.00)
        O              6.00    16.00000     O ( 1.00)

     12 Sym. Ops., with inversion, found ( 6 have fractional translation)



   Cartesian axes

     site n.     atom                  positions (alat units)
         1           Ca  tau(   1) = (   0.0000000  -0.0000000   1.3527749  )
         2           Ca  tau(   2) = (   0.0000000   0.0000000   0.0000000  )
         3           C   tau(   3) = (   0.0000000  -0.0000000   0.6763875  )
         4           C   tau(   4) = (   0.0000000  -0.0000000   2.0291624  )
         5           O   tau(   5) = (   0.0961669   0.2654834   1.5782374  )
         6           O   tau(   6) = (   0.1818319  -0.2160247   1.5782374  )
         7           O   tau(   7) = (  -0.2779988  -0.0494587   1.5782374  )
         8           O   tau(   8) = (  -0.1818319   0.2160247   1.1273124  )
         9           O   tau(   9) = (   0.2779988   0.0494587   1.1273124  )
        10           O   tau(  10) = (  -0.0961669  -0.2654834   1.1273124  )

     number of k points=    32
                       cart. coord. in units 2pi/alat
        k(    1) = (   0.0000000   0.0000000   0.0000000), wk =   0.0092593
        k(    2) = (  -0.2227177  -0.1285861   0.0616018), wk =   0.0555556
        k(    3) = (  -0.4454354  -0.2571722   0.1232035), wk =   0.0555556
        k(    4) = (   0.6681531   0.3857584  -0.1848053), wk =   0.0277778
        k(    5) = (  -0.2227177   0.1285861   0.1232035), wk =   0.0555556
        k(    6) = (  -0.4454354  -0.0000000   0.1848053), wk =   0.1111111
        k(    7) = (   0.6681531   0.6429306  -0.1232035), wk =   0.1111111
        k(    8) = (   0.4454354   0.5143445  -0.0616018), wk =   0.1111111
        k(    9) = (   0.2227177   0.3857584   0.0000000), wk =   0.0555556
        k(   10) = (  -0.4454354   0.2571722   0.2464071), wk =   0.0555556
        k(   11) = (   0.6681531   0.9001029  -0.0616018), wk =   0.1111111
        k(   12) = (   0.4454354   0.7715167   0.0000000), wk =   0.0555556
        k(   13) = (   0.6681531  -0.3857584  -0.3696106), wk =   0.0277778
        k(   14) = (   0.0000000  -0.0000000   0.1848053), wk =   0.0185185
        k(   15) = (  -0.2227177  -0.1285861   0.2464071), wk =   0.0555556
        k(   16) = (   0.8908708   0.5143445  -0.0616018), wk =   0.0555556
        k(   17) = (   0.6681531   0.3857584   0.0000000), wk =   0.0555556
        k(   18) = (   0.4454354   0.2571722   0.0616018), wk =   0.0555556
        k(   19) = (  -0.2227177   0.1285861   0.3080089), wk =   0.0555556
        k(   20) = (   0.8908708   0.7715167   0.0000000), wk =   0.1111111
        k(   21) = (   0.6681531   0.6429306   0.0616018), wk =   0.1111111
        k(   22) = (   0.4454354   0.5143445   0.1232035), wk =   0.1111111
        k(   23) = (   0.8908708  -0.5143445  -0.3080089), wk =   0.0555556
        k(   24) = (   0.6681531  -0.6429306  -0.2464071), wk =   0.1111111
        k(   25) = (   0.4454354  -0.7715167  -0.1848053), wk =   0.0555556
        k(   26) = (   0.6681531  -0.3857584  -0.1848053), wk =   0.0555556
        k(   27) = (   0.0000000  -0.0000000   0.3696106), wk =   0.0185185
        k(   28) = (   1.1135885   0.6429306   0.0616018), wk =   0.0555556
        k(   29) = (   0.8908708   0.5143445   0.1232035), wk =   0.0555556
        k(   30) = (   1.1135885  -0.6429306  -0.2464071), wk =   0.0555556
        k(   31) = (   0.8908708  -0.7715167  -0.1848053), wk =   0.0555556
        k(   32) = (  -0.0000000   0.0000000  -0.5544160), wk =   0.0092593

     Dense  grid:   195175 G-vectors     FFT dimensions: (  96,  96,  96)

     Smooth grid:    37645 G-vectors     FFT dimensions: (  60,  60,  60)

     Estimated max dynamical RAM per process >      24.71 MB

     Estimated total dynamical RAM >       1.64 GB

     Check: negative core charge=   -0.000003

     Initial potential from superposition of free atoms

     starting charge   63.98899, renormalised to   64.00000
     Starting wfcs are   52 randomized atomic wfcs

     total cpu time spent up to now is        4.8 secs

     Self-consistent Calculation

     iteration #  1     ecut=    50.00 Ry     beta= 0.70
     CG style diagonalization
     ethr =  1.00E-02,  avg # of iterations =  2.7

     total cpu time spent up to now is       12.4 secs

     total energy              =    -366.61235075 Ry
     Harris-Foulkes estimate   =    -367.87691211 Ry
     estimated scf accuracy    <       1.82363732 Ry

     iteration #  2     ecut=    50.00 Ry     beta= 0.70
     CG style diagonalization
     ethr =  2.85E-03,  avg # of iterations =  4.2

     total cpu time spent up to now is       23.4 secs

     total energy              =    -367.07507441 Ry
     Harris-Foulkes estimate   =    -367.76397403 Ry
     estimated scf accuracy    <       1.35833070 Ry

     iteration #  3     ecut=    50.00 Ry     beta= 0.70
     CG style diagonalization
     ethr =  2.12E-03,  avg # of iterations =  3.6

     total cpu time spent up to now is       33.0 secs

     total energy              =    -367.34759130 Ry
     Harris-Foulkes estimate   =    -367.34991531 Ry
     estimated scf accuracy    <       0.01137447 Ry

     iteration #  4     ecut=    50.00 Ry     beta= 0.70
     CG style diagonalization
     ethr =  1.78E-05,  avg # of iterations =  4.4

     total cpu time spent up to now is       44.6 secs

     total energy              =    -367.36058408 Ry
     Harris-Foulkes estimate   =    -367.36216449 Ry
     estimated scf accuracy    <       0.00408147 Ry

     iteration #  5     ecut=    50.00 Ry     beta= 0.70
     CG style diagonalization
     ethr =  6.38E-06,  avg # of iterations =  3.6

     total cpu time spent up to now is       54.1 secs

     total energy              =    -367.36101946 Ry
     Harris-Foulkes estimate   =    -367.36113844 Ry
     estimated scf accuracy    <       0.00043281 Ry

     iteration #  6     ecut=    50.00 Ry     beta= 0.70
     CG style diagonalization
     ethr =  6.76E-07,  avg # of iterations =  3.6

     total cpu time spent up to now is       63.7 secs

     total energy              =    -367.36104181 Ry
     Harris-Foulkes estimate   =    -367.36107529 Ry
     estimated scf accuracy    <       0.00009308 Ry

     iteration #  7     ecut=    50.00 Ry     beta= 0.70
     CG style diagonalization
     ethr =  1.45E-07,  avg # of iterations =  3.6

     total cpu time spent up to now is       73.3 secs

     total energy              =    -367.36106159 Ry
     Harris-Foulkes estimate   =    -367.36106321 Ry
     estimated scf accuracy    <       0.00000303 Ry

     iteration #  8     ecut=    50.00 Ry     beta= 0.70
     CG style diagonalization
     ethr =  4.73E-09,  avg # of iterations =  4.4

     total cpu time spent up to now is       84.8 secs

     total energy              =    -367.36106376 Ry
     Harris-Foulkes estimate   =    -367.36106393 Ry
     estimated scf accuracy    <       0.00000042 Ry

     iteration #  9     ecut=    50.00 Ry     beta= 0.70
     CG style diagonalization
     ethr =  6.58E-10,  avg # of iterations =  3.8

     total cpu time spent up to now is       95.0 secs

     total energy              =    -367.36106387 Ry
     Harris-Foulkes estimate   =    -367.36106388 Ry
     estimated scf accuracy    <       0.00000002 Ry

     iteration # 10     ecut=    50.00 Ry     beta= 0.70
     CG style diagonalization
     ethr =  3.69E-11,  avg # of iterations =  4.0

     total cpu time spent up to now is      105.5 secs

     End of self-consistent calculation

          k = 0.0000 0.0000 0.0000 (  4669 PWs)   bands (ev):

   -32.5124 -32.4940 -17.2464 -17.2392 -14.3606 -14.3606 -13.6433 -13.6433
   -13.6373 -13.6373 -13.4923 -13.4322 -12.7325 -12.7325  -2.5283  -2.1101
    -1.5903  -1.0628  -1.0628  -0.6910  -0.6910  -0.3030   2.9803   2.9803
     3.5738   3.5738   3.7808   3.7808   4.2891   4.2891   4.6405   5.1197

          k =-0.2227-0.1286 0.0616 (  4703 PWs)   bands (ev):

   -32.5109 -32.4950 -17.2503 -17.2201 -14.3674 -14.2718 -14.0582 -13.8324
   -13.5746 -13.5687 -13.3402 -13.0865 -12.8610 -12.7489  -2.3910  -2.1263
    -1.4732  -1.0028  -0.9574  -0.7585  -0.6776  -0.4121   3.0486   3.1175
     3.4324   3.4810   3.5844   3.6482   4.1123   4.1430   4.8926   5.1512

          k =-0.4454-0.2572 0.1232 (  4700 PWs)   bands (ev):

   -32.5070 -32.4978 -17.2497 -17.1885 -14.3983 -14.2543 -14.1951 -14.0243
   -13.5556 -13.5356 -13.1232 -13.0268 -12.8861 -12.7860  -2.1403  -2.0849
    -1.2542  -0.9155  -0.8420  -0.7249  -0.7228  -0.5354   2.9720   3.0509
     3.3393   3.3427   3.3630   3.5004   3.8438   3.8992   5.2198   5.2333

          k = 0.6682 0.3858-0.1848 (  4702 PWs)   bands (ev):

   -32.5021 -32.5021 -17.2118 -17.2118 -14.2785 -14.2785 -14.2379 -14.2379
   -13.5336 -13.5336 -12.9608 -12.9608 -12.9000 -12.9000  -2.0262  -2.0262
    -1.0970  -1.0970  -0.6857  -0.6857  -0.6322  -0.6322   2.8080   2.8080
     3.2991   3.2991   3.4969   3.4969   3.7385   3.7385   5.3109   5.3109

          k =-0.2227 0.1286 0.1232 (  4690 PWs)   bands (ev):

   -32.5105 -32.4953 -17.2535 -17.2174 -14.3251 -14.3162 -13.9761 -13.9470
   -13.6239 -13.5262 -13.2323 -13.1456 -12.8137 -12.8032  -2.3786  -2.1568
    -1.4344  -0.9932  -0.9687  -0.7582  -0.6733  -0.4354   3.0499   3.1282
     3.4120   3.4387   3.6216   3.6828   4.0544   4.1766   4.8999   5.1357

          k =-0.4454-0.0000 0.1848 (  4698 PWs)   bands (ev):

   -32.5078 -32.4973 -17.2586 -17.1885 -14.3958 -14.3161 -14.0618 -13.9951
   -13.5766 -13.5396 -13.1733 -13.0959 -12.8321 -12.7791  -2.1798  -2.1378
    -1.2646  -0.9322  -0.8798  -0.7514  -0.6909  -0.5326   3.0239   3.1380
     3.3023   3.3184   3.4457   3.5282   3.8257   4.0158   5.1759   5.1902

          k = 0.6682 0.6429-0.1232 (  4699 PWs)   bands (ev):

   -32.5036 -32.5006 -17.2228 -17.2020 -14.4119 -14.2843 -14.2071 -14.0650
   -13.5436 -13.5299 -13.1760 -12.9810 -12.8703 -12.7508  -2.0400  -2.0056
    -1.1245  -1.0405  -0.8211  -0.6629  -0.6189  -0.5698   2.8318   2.9224
     3.1910   3.2506   3.3791   3.4606   3.7608   3.8654   5.3191   5.3352

          k = 0.4454 0.5143-0.0616 (  4710 PWs)   bands (ev):

   -32.5047 -32.4995 -17.2480 -17.1745 -14.4636 -14.2628 -14.2404 -13.9671
   -13.5600 -13.5096 -13.2371 -12.9852 -12.8922 -12.7041  -2.0658  -1.9747
    -1.1756  -0.9637  -0.7807  -0.7327  -0.6379  -0.5620   2.7757   3.0091
     3.1459   3.2739   3.3472   3.4716   3.8059   3.8608   5.2631   5.3933

          k = 0.2227 0.3858 0.0000 (  4698 PWs)   bands (ev):

   -32.5086 -32.4965 -17.2632 -17.1823 -14.3985 -14.3169 -14.0791 -13.9808
   -13.5623 -13.5504 -13.1526 -13.1208 -12.8298 -12.7762  -2.1730  -2.1237
    -1.3123  -0.9355  -0.8393  -0.8153  -0.6413  -0.5408   3.0291   3.2097
     3.2279   3.3312   3.4317   3.4974   3.8852   4.0200   5.1800   5.1952

          k =-0.4454 0.2572 0.2464 (  4693 PWs)   bands (ev):

   -32.5069 -32.4979 -17.2819 -17.1564 -14.4315 -14.4255 -13.9241 -13.9184
   -13.6136 -13.5321 -13.2250 -13.2249 -12.7803 -12.7097  -2.2168  -2.0269
    -1.1462  -1.0090  -0.8928  -0.6901  -0.6080  -0.5990   2.8150   3.0532
     3.1905   3.4445   3.4760   3.6240   3.6553   4.0096   5.1306   5.3148

          k = 0.6682 0.9001-0.0616 (  4691 PWs)   bands (ev):

   -32.5047 -32.4995 -17.2675 -17.1565 -14.5034 -14.3851 -14.0389 -13.8613
   -13.5641 -13.5292 -13.3925 -13.0987 -12.7917 -12.6553  -2.1413  -1.9061
    -1.0717  -1.0035  -0.9635  -0.6636  -0.6069  -0.4934   2.6702   2.9544
     3.1417   3.3627   3.3902   3.4005   3.7803   3.9219   5.2054   5.4460

          k = 0.4454 0.7715 0.0000 (  4690 PWs)   bands (ev):

   -32.5020 -32.5020 -17.2093 -17.2092 -14.4087 -14.3872 -14.1093 -14.0628
   -13.5746 -13.5253 -13.1537 -13.1216 -12.7506 -12.7427  -1.9668  -1.9652
    -1.1195  -1.0186  -0.8809  -0.6391  -0.6308  -0.4888   2.8300   2.8452
     3.1383   3.1493   3.3062   3.3288   3.8522   3.8870   5.3851   5.3887

          k = 0.6682-0.3858-0.3696 (  4714 PWs)   bands (ev):

   -32.5051 -32.4991 -17.2959 -17.1241 -14.5417 -14.5092 -13.6973 -13.6138
   -13.5850 -13.5793 -13.5357 -13.4690 -12.6819 -12.6108  -2.2433  -1.8002
    -1.0734  -0.9900  -0.9622  -0.6566  -0.6225  -0.4663   2.5240   2.9014
     3.1519   3.3502   3.4692   3.5226   3.8109   3.8797   5.1008   5.5127

          k = 0.0000-0.0000 0.1848 (  4687 PWs)   bands (ev):

   -32.5111 -32.4953 -17.2463 -17.2401 -14.3386 -14.3386 -13.8428 -13.8428
   -13.4875 -13.4355 -13.4255 -13.4255 -12.7672 -12.7672  -2.5188  -2.1866
    -1.4606  -1.0392  -1.0392  -0.7176  -0.7176  -0.3743   3.0239   3.0239
     3.5385   3.5385   3.8084   3.8084   4.2454   4.2454   4.6691   5.0795

          k =-0.2227-0.1286 0.2464 (  4688 PWs)   bands (ev):

   -32.5090 -32.4968 -17.2440 -17.2277 -14.3758 -14.2000 -14.1732 -13.7866
   -13.6084 -13.5144 -13.3409 -13.0168 -12.9430 -12.7490  -2.3967  -2.1836
    -1.3381  -0.9754  -0.9064  -0.7743  -0.7431  -0.4815   3.0848   3.1524
     3.4141   3.4688   3.5636   3.7171   4.0340   4.0940   4.9074   5.1163

          k = 0.8909 0.5143-0.0616 (  4696 PWs)   bands (ev):

   -32.5050 -32.4998 -17.2214 -17.2197 -14.3782 -14.3026 -14.1834 -13.9768
   -13.5642 -13.5221 -13.2199 -12.9643 -12.9019 -12.7687  -2.2105  -2.0370
    -1.1828  -0.9794  -0.8183  -0.7495  -0.6779  -0.5414   2.9541   3.0594
     3.2583   3.3653   3.4179   3.5682   3.7701   3.8559   5.1795   5.2623

          k = 0.6682 0.3858 0.0000 (  4707 PWs)   bands (ev):

   -32.5036 -32.5006 -17.2543 -17.1684 -14.4200 -14.3864 -14.0892 -14.0497
   -13.5647 -13.5020 -13.1368 -13.1223 -12.8018 -12.7491  -2.1357  -1.9145
    -1.1438  -1.0087  -0.7607  -0.7571  -0.5754  -0.5697   2.6731   2.9148
     3.1631   3.4203   3.4203   3.6230   3.6425   3.8079   5.2124   5.4083

          k = 0.4454 0.2572 0.0616 (  4711 PWs)   bands (ev):

   -32.5076 -32.4972 -17.2724 -17.1645 -14.4405 -14.3300 -14.0970 -13.9348
   -13.5898 -13.5282 -13.2165 -13.0386 -12.8879 -12.7236  -2.1516  -2.0717
    -1.2380  -0.9390  -0.8924  -0.6731  -0.6713  -0.5788   2.8725   3.1144
     3.1894   3.3817   3.4295   3.5872   3.7574   3.9884   5.1715   5.2831

          k =-0.2227 0.1286 0.3080 (  4694 PWs)   bands (ev):

   -32.5082 -32.4977 -17.2525 -17.2203 -14.3506 -14.2271 -14.1162 -13.9180
   -13.6089 -13.5026 -13.1910 -13.0827 -12.9013 -12.8088  -2.3606  -2.2476
    -1.2533  -0.9496  -0.9387  -0.7702  -0.7413  -0.5379   3.0996   3.1803
     3.3397   3.4176   3.6402   3.7796   3.9422   4.1218   4.9316   5.0773

          k = 0.8909 0.7715 0.0000 (  4694 PWs)   bands (ev):

   -32.5056 -32.4995 -17.2454 -17.2050 -14.3817 -14.3258 -14.0324 -14.0093
   -13.5962 -13.5416 -13.1685 -13.0875 -12.8292 -12.7897  -2.1906  -2.1669
    -1.1427  -0.9235  -0.9113  -0.8010  -0.6633  -0.5457   3.0228   3.0774
     3.3043   3.3612   3.4588   3.5873   3.7592   3.9586   5.1696   5.1793

          k = 0.6682 0.6429 0.0616 (  4685 PWs)   bands (ev):

   -32.5021 -32.5021 -17.2321 -17.1946 -14.4171 -14.3329 -14.1733 -13.9822
   -13.5733 -13.5519 -13.2025 -13.0252 -12.8324 -12.7272  -2.0998  -1.9512
    -1.0862  -1.0425  -0.8552  -0.7664  -0.5315  -0.5238   2.7768   2.8952
     3.1801   3.3135   3.3696   3.4540   3.7737   3.8487   5.2742   5.3782

          k = 0.4454 0.5143 0.1232 (  4697 PWs)   bands (ev):

   -32.5051 -32.4991 -17.2644 -17.1578 -14.5083 -14.3274 -14.1593 -13.8320
   -13.5713 -13.5064 -13.3869 -13.0018 -12.8753 -12.6535  -2.1153  -1.9258
    -1.1567  -0.9500  -0.8725  -0.7082  -0.6040  -0.5440   2.7051   3.0318
     3.0869   3.3323   3.3617   3.4621   3.7825   3.9080   5.2204   5.4346

          k = 0.8909-0.5143-0.3080 (  4693 PWs)   bands (ev):

   -32.5050 -32.4998 -17.2752 -17.1658 -14.4659 -14.3767 -14.0294 -13.7690
   -13.6102 -13.5095 -13.3991 -13.1512 -12.7493 -12.7213  -2.2565  -2.0097
    -1.0682  -0.9686  -0.9118  -0.8187  -0.5673  -0.5648   2.8147   3.0144
     3.2572   3.4303   3.4670   3.5629   3.7109   3.9472   5.1170   5.3188

          k = 0.6682-0.6429-0.2464 (  4688 PWs)   bands (ev):

   -32.5036 -32.5006 -17.2560 -17.1704 -14.4439 -14.4134 -14.0156 -13.9480
   -13.5799 -13.5779 -13.2174 -13.1638 -12.7541 -12.7039  -2.1364  -1.9158
    -1.0708  -1.0118  -0.9177  -0.7721  -0.5368  -0.4787   2.6961   2.9096
     3.1944   3.3121   3.3915   3.4147   3.8045   3.8687   5.2261   5.4249

          k = 0.4454-0.7715-0.1848 (  4698 PWs)   bands (ev):

   -32.5020 -32.5020 -17.2092 -17.2092 -14.3986 -14.3986 -14.0860 -14.0860
   -13.5500 -13.5500 -13.1371 -13.1371 -12.7466 -12.7466  -1.9660  -1.9660
    -1.0818  -1.0818  -0.7793  -0.7793  -0.5279  -0.5279   2.8374   2.8374
     3.1445   3.1445   3.3165   3.3165   3.8701   3.8701   5.3869   5.3869

          k = 0.6682-0.3858-0.1848 (  4703 PWs)   bands (ev):

   -32.5047 -32.4995 -17.2849 -17.1361 -14.5106 -14.4780 -13.8728 -13.8289
   -13.5871 -13.4788 -13.3549 -13.3532 -12.7125 -12.6462  -2.2146  -1.8311
    -1.1250  -0.9604  -0.8963  -0.7376  -0.5700  -0.4965   2.5651   2.9276
     3.1180   3.4008   3.4958   3.4979   3.7672   3.8551   5.1329   5.4837

          k = 0.0000-0.0000 0.3696 (  4678 PWs)   bands (ev):

   -32.5078 -32.4986 -17.2457 -17.2421 -14.2734 -14.2734 -14.0210 -14.0210
   -13.4751 -13.4451 -13.2133 -13.2133 -12.8671 -12.8671  -2.4855  -2.3142
    -1.1832  -0.9738  -0.9738  -0.7887  -0.7887  -0.5750   3.1408   3.1408
     3.4389   3.4389   3.8862   3.8862   4.1350   4.1350   4.7477   4.9794

          k = 1.1136 0.6429 0.0616 (  4698 PWs)   bands (ev):

   -32.5056 -32.5003 -17.2378 -17.2358 -14.3494 -14.2508 -14.1250 -13.9048
   -13.5484 -13.4875 -13.2690 -13.0237 -12.9496 -12.7978  -2.3816  -2.2643
    -1.1147  -0.9284  -0.8562  -0.8513  -0.7780  -0.6258   3.1481   3.2251
     3.3409   3.3658   3.6656   3.8338   3.8908   4.0156   4.9453   5.0523

          k = 0.8909 0.5143 0.1232 (  4690 PWs)   bands (ev):

   -32.5024 -32.5024 -17.2533 -17.1892 -14.4488 -14.2877 -14.1739 -13.8082
   -13.5849 -13.5027 -13.3886 -13.0298 -12.8386 -12.7171  -2.2548  -2.0133
    -1.0450  -1.0382  -0.8384  -0.8326  -0.5972  -0.5501   2.8660   3.0429
     3.2772   3.3766   3.4191   3.6389   3.7271   3.8474   5.1362   5.2976

          k = 1.1136-0.6429-0.2464 (  4696 PWs)   bands (ev):

   -32.5045 -32.5014 -17.2469 -17.2272 -14.3458 -14.2255 -14.1244 -13.9621
   -13.5467 -13.4871 -13.2177 -13.0078 -12.9577 -12.8305  -2.3317  -2.3257
    -1.0312  -0.9051  -0.9007  -0.8770  -0.7537  -0.6752   3.1963   3.2150
     3.3025   3.3401   3.7164   3.8259   3.8782   4.0071   4.9855   5.0055

          k = 0.8909-0.7715-0.1848 (  4688 PWs)   bands (ev):

   -32.5025 -32.5025 -17.2261 -17.2261 -14.3536 -14.3536 -14.0151 -14.0151
   -13.5779 -13.5779 -13.1234 -13.1234 -12.8101 -12.8101  -2.1884  -2.1884
    -0.9990  -0.9990  -0.8868  -0.8868  -0.5923  -0.5923   3.0399   3.0399
     3.3310   3.3310   3.5301   3.5301   3.8464   3.8464   5.1705   5.1705

          k =-0.0000 0.0000-0.5544 (  4728 PWs)   bands (ev):

   -32.5032 -32.5032 -17.2443 -17.2443 -14.1664 -14.1664 -14.1664 -14.1664
   -13.4594 -13.4594 -13.0212 -13.0212 -13.0212 -13.0212  -2.4186  -2.4186
    -0.8827  -0.8827  -0.8827  -0.8827  -0.8649  -0.8649   3.2942   3.2942
     3.2942   3.2942   4.0022   4.0022   4.0022   4.0022   4.8585   4.8585

     highest occupied level (ev):     5.5127

!    total energy              =    -367.36106387 Ry
     Harris-Foulkes estimate   =    -367.36106388 Ry
     estimated scf accuracy    <          4.9E-09 Ry

     The total energy is the sum of the following terms:

     one-electron contribution =    -142.38742239 Ry
     hartree contribution      =     102.62703251 Ry
     xc contribution           =     -75.96240083 Ry
     ewald contribution        =    -251.63827316 Ry

     convergence has been achieved in  10 iterations

     Forces acting on atoms (cartesian axes, Ry/au):

     atom    1 type  1   force =     0.00000000    0.00000000    0.00000000
     atom    2 type  1   force =     0.00000000    0.00000000    0.00000000
     atom    3 type  2   force =    -0.00000000   -0.00000000    0.00000000
     atom    4 type  2   force =     0.00000000   -0.00000000    0.00000000
     atom    5 type  3   force =     0.08211447   -0.14222643   -0.00000000
     atom    6 type  3   force =    -0.16422894   -0.00000000    0.00000000
     atom    7 type  3   force =     0.08211447    0.14222643    0.00000000
     atom    8 type  3   force =     0.16422894    0.00000000   -0.00000000
     atom    9 type  3   force =    -0.08211447   -0.14222643   -0.00000000
     atom   10 type  3   force =    -0.08211447    0.14222643    0.00000000

     Total force =     0.402277     Total SCF correction =     0.000246


     Computing stress (Cartesian axis) and pressure

          total   stress  (Ry/bohr**3)                   (kbar)     P=  201.62
   0.00195618  -0.00000000   0.00000000        287.76     -0.00      0.00
  -0.00000000   0.00195618   0.00000000         -0.00    287.76      0.00
   0.00000000   0.00000000   0.00019949          0.00      0.00     29.35


     BFGS Geometry Optimization

     number of scf cycles    =   1
     number of bfgs steps    =   0

     energy   new            =    -367.3610638721 Ry

     new trust radius        =       0.1642289372 bohr
     new conv_thr            =       0.0000000100 Ry


ATOMIC_POSITIONS (crystal)
Ca       0.500000000   0.500000000   0.500000000
Ca       0.000000000   0.000000000   0.000000000
C        0.250000000   0.250000000   0.250000000
C        0.750000000   0.750000000   0.750000000
O        0.525064665   0.974935335   0.250000000
O        0.974935335   0.250000000   0.525064665
O        0.250000000   0.525064665   0.974935335
O        0.025064665   0.750000000   0.474935335
O        0.750000000   0.474935335   0.025064665
O        0.474935335   0.025064665   0.750000000



     Writing output data file CCO.save/
     NEW-OLD atomic charge density approx. for the potential

     Check: negative core charge=   -0.000003

     total cpu time spent up to now is      107.6 secs

     Self-consistent Calculation

     iteration #  1     ecut=    50.00 Ry     beta= 0.70
     CG style diagonalization
     c_bands:  2 eigenvalues not converged
     c_bands:  4 eigenvalues not converged
     c_bands:  4 eigenvalues not converged
     ethr =  1.00E-06,  avg # of iterations = 18.1

     total cpu time spent up to now is      153.2 secs

     total energy              =    -367.34826452 Ry
     Harris-Foulkes estimate   =    -367.42168391 Ry
     estimated scf accuracy    <       0.09866719 Ry

     iteration #  2     ecut=    50.00 Ry     beta= 0.70
     CG style diagonalization
     ethr =  1.54E-04,  avg # of iterations =  3.9

     total cpu time spent up to now is      163.7 secs

     total energy              =    -367.37599024 Ry
     Harris-Foulkes estimate   =    -367.39982015 Ry
     estimated scf accuracy    <       0.04231898 Ry

     iteration #  3     ecut=    50.00 Ry     beta= 0.70
     CG style diagonalization
     ethr =  6.61E-05,  avg # of iterations =  3.6

     total cpu time spent up to now is      173.2 secs

     total energy              =    -367.38617829 Ry
     Harris-Foulkes estimate   =    -367.38627972 Ry
     estimated scf accuracy    <       0.00039770 Ry

     iteration #  4     ecut=    50.00 Ry     beta= 0.70
     CG style diagonalization
     ethr =  6.21E-07,  avg # of iterations =  4.4

     total cpu time spent up to now is      184.9 secs

     total energy              =    -367.38666678 Ry
     Harris-Foulkes estimate   =    -367.38673337 Ry
     estimated scf accuracy    <       0.00019357 Ry

     iteration #  5     ecut=    50.00 Ry     beta= 0.70
     CG style diagonalization
     ethr =  3.02E-07,  avg # of iterations =  3.3

     total cpu time spent up to now is      193.7 secs

     total energy              =    -367.38666821 Ry
     Harris-Foulkes estimate   =    -367.38668479 Ry
     estimated scf accuracy    <       0.00004157 Ry

     iteration #  6     ecut=    50.00 Ry     beta= 0.70
     CG style diagonalization
     ethr =  6.49E-08,  avg # of iterations =  3.2

     total cpu time spent up to now is      202.2 secs

     total energy              =    -367.38666689 Ry
     Harris-Foulkes estimate   =    -367.38667150 Ry
     estimated scf accuracy    <       0.00000978 Ry

     iteration #  7     ecut=    50.00 Ry     beta= 0.70
     CG style diagonalization
     ethr =  1.53E-08,  avg # of iterations =  3.9

     total cpu time spent up to now is      212.6 secs

     total energy              =    -367.38666883 Ry
     Harris-Foulkes estimate   =    -367.38666902 Ry
     estimated scf accuracy    <       0.00000043 Ry

     iteration #  8     ecut=    50.00 Ry     beta= 0.70
     CG style diagonalization
     ethr =  6.75E-10,  avg # of iterations =  4.1

     total cpu time spent up to now is      223.4 secs

     total energy              =    -367.38666894 Ry
     Harris-Foulkes estimate   =    -367.38666900 Ry
     estimated scf accuracy    <       0.00000010 Ry

     iteration #  9     ecut=    50.00 Ry     beta= 0.70
     CG style diagonalization
     ethr =  1.54E-10,  avg # of iterations =  4.0

     total cpu time spent up to now is      234.0 secs

     total energy              =    -367.38666897 Ry
     Harris-Foulkes estimate   =    -367.38666899 Ry
     estimated scf accuracy    <       0.00000004 Ry

     iteration # 10     ecut=    50.00 Ry     beta= 0.70
     CG style diagonalization
     ethr =  6.44E-11,  avg # of iterations =  3.5

     total cpu time spent up to now is      243.5 secs

     End of self-consistent calculation

          k = 0.0000 0.0000 0.0000 (  4669 PWs)   bands (ev):

   -32.2441 -32.2232 -16.2061 -16.0907 -14.1081 -14.1081 -13.4037 -13.4037
   -13.2616 -13.0627 -13.0627 -13.0354 -12.1218 -12.1218  -2.7517  -2.4172
    -0.9799  -0.8831  -0.8831  -0.4725  -0.4725   0.5511   2.9057   2.9057
     3.6983   3.6983   3.8471   3.8471   4.1548   4.3358   4.3358   4.7001

          k =-0.2227-0.1286 0.0616 (  4703 PWs)   bands (ev):

   -32.2424 -32.2243 -16.1527 -16.1196 -14.1114 -14.0045 -13.7047 -13.4928
   -13.3260 -13.2681 -12.8661 -12.5542 -12.2676 -12.1473  -2.6230  -2.4411
    -0.8589  -0.8106  -0.7389  -0.5436  -0.4430   0.4011   2.9828   3.0750
     3.5130   3.5534   3.6763   3.6954   4.0586   4.1516   4.5501   4.7591

          k =-0.4454-0.2572 0.1232 (  4700 PWs)   bands (ev):

   -32.2380 -32.2276 -16.1360 -16.0714 -14.1393 -13.9617 -13.9149 -13.7313
   -13.2608 -13.2356 -12.6080 -12.4730 -12.3256 -12.2123  -2.4123  -2.4048
    -0.7822  -0.6628  -0.4766  -0.4264  -0.4078   0.1586   3.0061   3.0633
     3.3439   3.3573   3.3675   3.5357   3.8118   3.8695   4.8575   4.8881

          k = 0.6682 0.3858-0.1848 (  4702 PWs)   bands (ev):

   -32.2325 -32.2325 -16.0881 -16.0881 -14.0179 -14.0179 -13.9522 -13.9522
   -13.2233 -13.2233 -12.4209 -12.4209 -12.3462 -12.3462  -2.3365  -2.3365
    -0.7421  -0.7421  -0.3665  -0.3665  -0.0671  -0.0671   2.8351   2.8351
     3.3185   3.3185   3.4834   3.4834   3.6957   3.6957   4.9641   4.9641

          k =-0.2227 0.1286 0.1232 (  4690 PWs)   bands (ev):

   -32.2421 -32.2247 -16.1466 -16.1278 -14.0604 -14.0556 -13.6299 -13.5399
   -13.3833 -13.2961 -12.7354 -12.6202 -12.2164 -12.2036  -2.6091  -2.4633
    -0.8182  -0.7983  -0.7580  -0.5430  -0.4409   0.3717   2.9919   3.0764
     3.4754   3.5332   3.6600   3.7731   4.0181   4.1865   4.5435   4.7434

          k =-0.4454-0.0000 0.1848 (  4698 PWs)   bands (ev):

   -32.2390 -32.2270 -16.1501 -16.0776 -14.1344 -14.0396 -13.7327 -13.6737
   -13.3041 -13.2816 -12.6519 -12.5667 -12.2548 -12.1891  -2.4586  -2.4297
    -0.7578  -0.6531  -0.6266  -0.4312  -0.4103   0.1856   3.0156   3.1167
     3.3207   3.3717   3.4733   3.5654   3.8049   3.9921   4.8086   4.8463

          k = 0.6682 0.6429-0.1232 (  4699 PWs)   bands (ev):

   -32.2343 -32.2308 -16.1018 -16.0791 -14.1661 -13.9990 -13.9182 -13.7595
   -13.2511 -13.2348 -12.6743 -12.4348 -12.3139 -12.1642  -2.3370  -2.3255
    -0.7307  -0.7066  -0.4660  -0.3765  -0.1253   0.0408   2.8518   2.9361
     3.2085   3.2774   3.3536   3.4531   3.7287   3.8251   4.9745   4.9993

          k = 0.4454 0.5143-0.0616 (  4710 PWs)   bands (ev):

   -32.2355 -32.2296 -16.1432 -16.0305 -14.2215 -13.9922 -13.9571 -13.6432
   -13.2984 -13.1819 -12.7360 -12.4415 -12.3379 -12.1131  -2.3956  -2.2624
    -0.8047  -0.6084  -0.4505  -0.3615  -0.2180   0.0566   2.7981   3.0407
     3.1308   3.3004   3.3403   3.4664   3.7863   3.8164   4.9149   5.0575

          k = 0.2227 0.3858 0.0000 (  4698 PWs)   bands (ev):

   -32.2399 -32.2260 -16.1539 -16.0699 -14.1318 -14.0512 -13.7736 -13.6254
   -13.3354 -13.2571 -12.6167 -12.6034 -12.2511 -12.1866  -2.4549  -2.4214
    -0.7863  -0.6567  -0.5593  -0.5464  -0.3935   0.2183   3.0282   3.2073
     3.2103   3.3832   3.4766   3.5468   3.8584   3.9982   4.8133   4.8515

          k =-0.4454 0.2572 0.2464 (  4693 PWs)   bands (ev):

   -32.2380 -32.2276 -16.1979 -16.0105 -14.1715 -14.1673 -13.5906 -13.5167
   -13.3815 -13.3047 -12.7204 -12.7168 -12.1917 -12.1000  -2.5411  -2.2805
    -0.8084  -0.6214  -0.5069  -0.3992  -0.2866   0.0733   2.8035   3.0033
     3.2374   3.4593   3.5183   3.6203   3.6627   3.9908   4.7676   4.9681

          k = 0.6682 0.9001-0.0616 (  4691 PWs)   bands (ev):

   -32.2355 -32.2296 -16.1820 -15.9968 -14.2742 -14.1072 -13.6916 -13.5317
   -13.3175 -13.2363 -12.9332 -12.5793 -12.2012 -12.0451  -2.4703  -2.1894
    -0.7914  -0.6218  -0.4586  -0.3928  -0.0938   0.0395   2.6591   2.9109
     3.1669   3.3649   3.3892   3.4455   3.7501   3.8888   4.8577   5.1142

          k = 0.4454 0.7715 0.0000 (  4690 PWs)   bands (ev):

   -32.2324 -32.2324 -16.0857 -16.0851 -14.1684 -14.1235 -13.8009 -13.6844
   -13.3445 -13.2392 -12.6578 -12.6125 -12.1601 -12.1478  -2.2827  -2.2822
    -0.7486  -0.6382  -0.5320  -0.3624  -0.0211   0.0389   2.8298   2.8542
     3.1712   3.1795   3.2761   3.2939   3.8142   3.8542   5.0545   5.0618

          k = 0.6682-0.3858-0.3696 (  4714 PWs)   bands (ev):

   -32.2359 -32.2291 -16.2312 -15.9298 -14.3244 -14.2572 -13.3820 -13.3469
   -13.3083 -13.1485 -13.0897 -13.0071 -12.0789 -11.9910  -2.5774  -2.0820
    -0.8693  -0.5432  -0.3925  -0.3479  -0.0673  -0.0484   2.5008   2.8312
     3.1831   3.3268   3.4951   3.5851   3.7965   3.8415   4.7356   5.1785

          k = 0.0000-0.0000 0.1848 (  4687 PWs)   bands (ev):

   -32.2427 -32.2246 -16.1994 -16.0996 -14.0824 -14.0824 -13.5278 -13.5278
   -13.2449 -13.0491 -12.9231 -12.9231 -12.1637 -12.1637  -2.7414  -2.4587
    -0.8690  -0.8572  -0.8572  -0.5021  -0.5021   0.4507   2.9594   2.9594
     3.6402   3.6402   3.8829   3.8829   4.1900   4.2955   4.2955   4.6561

          k =-0.2227-0.1286 0.2464 (  4688 PWs)   bands (ev):

   -32.2403 -32.2264 -16.1562 -16.1178 -14.1131 -13.9327 -13.8607 -13.4379
   -13.3655 -13.1805 -12.8491 -12.4823 -12.3662 -12.1535  -2.6309  -2.4666
    -0.7865  -0.7843  -0.6443  -0.5422  -0.4956   0.2878   3.0267   3.1213
     3.4710   3.5434   3.6381   3.7621   4.0463   4.0577   4.5537   4.7220

          k = 0.8909 0.5143-0.0616 (  4696 PWs)   bands (ev):

   -32.2358 -32.2298 -16.1236 -16.0898 -14.1028 -14.0253 -13.9176 -13.6652
   -13.2939 -13.1968 -12.6927 -12.4129 -12.3643 -12.1853  -2.4864  -2.3445
    -0.7241  -0.7106  -0.5340  -0.4185  -0.2674   0.1072   2.9539   3.0841
     3.2840   3.3915   3.4383   3.5480   3.7444   3.8192   4.8343   4.9020

          k = 0.6682 0.3858 0.0000 (  4707 PWs)   bands (ev):

   -32.2342 -32.2308 -16.1612 -16.0113 -14.1817 -14.1210 -13.7905 -13.7474
   -13.2925 -13.1559 -12.6298 -12.6179 -12.2232 -12.1644  -2.4582  -2.2114
    -0.8272  -0.6097  -0.4526  -0.3060  -0.1085  -0.0271   2.6787   2.9327
     3.1572   3.4231   3.4758   3.5923   3.6241   3.7523   4.8623   5.0649

          k = 0.4454 0.2572 0.0616 (  4711 PWs)   bands (ev):

   -32.2388 -32.2268 -16.1754 -16.0295 -14.1863 -14.0620 -13.7833 -13.5940
   -13.3327 -13.2504 -12.7123 -12.5045 -12.3146 -12.1248  -2.4840  -2.3285
    -0.8042  -0.6313  -0.5029  -0.4064  -0.3923   0.1389   2.8801   3.0951
     3.2098   3.4030   3.4686   3.6165   3.7358   3.9627   4.8076   4.9371

          k =-0.2227 0.1286 0.3080 (  4694 PWs)   bands (ev):

   -32.2394 -32.2274 -16.1392 -16.1389 -14.0879 -13.9520 -13.7856 -13.5681
   -13.3290 -13.2488 -12.6761 -12.5586 -12.3120 -12.2196  -2.5909  -2.5221
    -0.7583  -0.7508  -0.6455  -0.5129  -0.4920   0.2069   3.0628   3.1324
     3.3773   3.4972   3.6693   3.8556   3.9485   4.1365   4.5526   4.6841

          k = 0.8909 0.7715 0.0000 (  4694 PWs)   bands (ev):

   -32.2364 -32.2295 -16.1386 -16.0970 -14.1218 -14.0386 -13.7184 -13.6586
   -13.3568 -13.2601 -12.6588 -12.5553 -12.2528 -12.1999  -2.4642  -2.4477
    -0.7108  -0.6728  -0.6065  -0.4630  -0.2641   0.0835   3.0071   3.0584
     3.3323   3.4063   3.4703   3.6014   3.7530   3.9336   4.8055   4.8319

          k = 0.6682 0.6429 0.0616 (  4685 PWs)   bands (ev):

   -32.2326 -32.2325 -16.1298 -16.0573 -14.1616 -14.0740 -13.8575 -13.6227
   -13.3167 -13.2798 -12.7059 -12.5135 -12.2493 -12.1288  -2.4072  -2.2582
    -0.7681  -0.6172  -0.5396  -0.3793  -0.0315   0.0159   2.7755   2.8799
     3.2156   3.3221   3.3710   3.4550   3.7363   3.8000   4.9371   5.0412

          k = 0.4454 0.5143 0.1232 (  4697 PWs)   bands (ev):

   -32.2360 -32.2291 -16.1725 -16.0000 -14.2763 -14.0538 -13.8592 -13.4845
   -13.3415 -13.1748 -12.9115 -12.4707 -12.3030 -12.0483  -2.4479  -2.2086
    -0.8169  -0.5733  -0.4609  -0.3827  -0.1815   0.0511   2.7094   3.0015
     3.1158   3.3409   3.4001   3.4500   3.7631   3.8696   4.8703   5.1010

          k = 0.8909-0.5143-0.3080 (  4693 PWs)   bands (ev):

   -32.2358 -32.2298 -16.1964 -16.0179 -14.2098 -14.1103 -13.6672 -13.4652
   -13.3657 -13.2224 -12.8930 -12.6510 -12.1459 -12.1248  -2.5655  -2.2701
    -0.8077  -0.6109  -0.4597  -0.4503  -0.1572  -0.0134   2.7994   2.9702
     3.3038   3.4246   3.4949   3.5803   3.6948   3.9332   4.7607   4.9691

          k = 0.6682-0.6429-0.2464 (  4688 PWs)   bands (ev):

   -32.2342 -32.2308 -16.1671 -16.0188 -14.2067 -14.1402 -13.6790 -13.5407
   -13.3464 -13.3424 -12.7444 -12.6544 -12.1583 -12.0979  -2.4559  -2.2081
    -0.7814  -0.6232  -0.4551  -0.4359  -0.0255   0.0243   2.6826   2.8725
     3.2256   3.2937   3.4081   3.4519   3.7575   3.8336   4.8850   5.0924

          k = 0.4454-0.7715-0.1848 (  4698 PWs)   bands (ev):

   -32.2324 -32.2324 -16.0854 -16.0854 -14.1481 -14.1481 -13.7452 -13.7452
   -13.2880 -13.2880 -12.6345 -12.6345 -12.1538 -12.1538  -2.2824  -2.2824
    -0.7092  -0.7092  -0.4347  -0.4347   0.0121   0.0121   2.8414   2.8414
     3.1789   3.1789   3.2811   3.2811   3.8350   3.8350   5.0581   5.0581

          k = 0.6682-0.3858-0.1848 (  4703 PWs)   bands (ev):

   -32.2355 -32.2296 -16.2128 -15.9522 -14.2879 -14.2226 -13.5313 -13.5164
   -13.3436 -13.1077 -12.9151 -12.8548 -12.1159 -12.0356  -2.5457  -2.1171
    -0.8626  -0.5211  -0.4627  -0.3248  -0.0882  -0.0304   2.5502   2.8785
     3.1410   3.4021   3.4914   3.5632   3.7510   3.8065   4.7740   5.1463

          k = 0.0000-0.0000 0.3696 (  4678 PWs)   bands (ev):

   -32.2389 -32.2284 -16.1804 -16.1229 -14.0062 -14.0062 -13.7170 -13.7170
   -13.2005 -13.0876 -12.6914 -12.6914 -12.2840 -12.2840  -2.7066  -2.5503
    -0.7853  -0.7853  -0.5810  -0.5810  -0.5796   0.1764   3.1052   3.1052
     3.4964   3.4964   3.9641   3.9641   4.1947   4.1947   4.2847   4.5470

          k = 1.1136 0.6429 0.0616 (  4698 PWs)   bands (ev):

   -32.2364 -32.2304 -16.1555 -16.1221 -14.0727 -13.9634 -13.8519 -13.5870
   -13.2813 -13.1568 -12.7356 -12.4673 -12.4078 -12.2145  -2.6209  -2.5162
    -0.7353  -0.6825  -0.6293  -0.5741  -0.3596   0.0470   3.1145   3.2138
     3.3815   3.3843   3.7379   3.8723   3.9095   4.0197   4.5689   4.6575

          k = 0.8909 0.5143 0.1232 (  4690 PWs)   bands (ev):

   -32.2328 -32.2328 -16.1696 -16.0471 -14.1869 -14.0214 -13.8613 -13.4909
   -13.3497 -13.1738 -12.8691 -12.5212 -12.2568 -12.1221  -2.5462  -2.2939
    -0.7803  -0.6172  -0.5481  -0.4150  -0.1267  -0.0113   2.8565   3.0167
     3.3386   3.3797   3.4413   3.6269   3.6960   3.8300   4.7871   4.9422

          k = 1.1136-0.6429-0.2464 (  4696 PWs)   bands (ev):

   -32.2351 -32.2316 -16.1496 -16.1302 -14.0771 -13.9217 -13.8329 -13.6671
   -13.2487 -13.1902 -12.6931 -12.4393 -12.4129 -12.2535  -2.5830  -2.5614
    -0.7144  -0.6863  -0.6247  -0.5798  -0.2616  -0.0615   3.1914   3.2039
     3.2924   3.3724   3.7563   3.8638   3.9294   4.0284   4.5940   4.6157

          k = 0.8909-0.7715-0.1848 (  4688 PWs)   bands (ev):

   -32.2330 -32.2330 -16.1197 -16.1197 -14.0805 -14.0805 -13.6774 -13.6774
   -13.3192 -13.3192 -12.6052 -12.6052 -12.2263 -12.2263  -2.4618  -2.4618
    -0.6898  -0.6898  -0.5330  -0.5330  -0.0794  -0.0794   3.0250   3.0250
     3.3445   3.3445   3.5600   3.5600   3.8271   3.8271   4.8148   4.8148

          k =-0.0000 0.0000-0.5544 (  4728 PWs)   bands (ev):

   -32.2337 -32.2337 -16.1527 -16.1527 -13.8822 -13.8822 -13.8822 -13.8822
   -13.1426 -13.1426 -12.4674 -12.4674 -12.4674 -12.4674  -2.6416  -2.6416
    -0.6849  -0.6849  -0.6849  -0.6849  -0.1992  -0.1992   3.3020   3.3020
     3.3020   3.3020   4.0737   4.0737   4.0737   4.0737   4.4129   4.4129

     highest occupied level (ev):     5.1785

!    total energy              =    -367.38666897 Ry
     Harris-Foulkes estimate   =    -367.38666897 Ry
     estimated scf accuracy    <          2.2E-09 Ry

     The total energy is the sum of the following terms:

     one-electron contribution =    -130.37650885 Ry
     hartree contribution      =      96.78205598 Ry
     xc contribution           =     -75.32214102 Ry
     ewald contribution        =    -258.47007509 Ry

     convergence has been achieved in  10 iterations

     Forces acting on atoms (cartesian axes, Ry/au):

     atom    1 type  1   force =     0.00000000    0.00000000    0.00000000
     atom    2 type  1   force =     0.00000000    0.00000000    0.00000000
     atom    3 type  2   force =    -0.00000000   -0.00000000   -0.00000000
     atom    4 type  2   force =     0.00000000   -0.00000000   -0.00000000
     atom    5 type  3   force =    -0.04442424    0.07694504    0.00000000
     atom    6 type  3   force =     0.08884848   -0.00000000    0.00000000
     atom    7 type  3   force =    -0.04442424   -0.07694504   -0.00000000
     atom    8 type  3   force =    -0.08884848    0.00000000   -0.00000000
     atom    9 type  3   force =     0.04442424    0.07694504    0.00000000
     atom   10 type  3   force =     0.04442424   -0.07694504   -0.00000000

     Total force =     0.217633     Total SCF correction =     0.000015


     Computing stress (Cartesian axis) and pressure

          total   stress  (Ry/bohr**3)                   (kbar)     P=   25.63
   0.00001876  -0.00000000   0.00000000          2.76     -0.00      0.00
  -0.00000000   0.00001876   0.00000000         -0.00      2.76      0.00
   0.00000000   0.00000000   0.00048513          0.00      0.00     71.37


     number of scf cycles    =   2
     number of bfgs steps    =   1

     energy   old            =    -367.3610638721 Ry
     energy   new            =    -367.3866689729 Ry

     CASE: energy  _new < energy  _old

     new trust radius        =       0.0576562378 bohr
     new conv_thr            =       0.0000000089 Ry


ATOMIC_POSITIONS (crystal)
Ca       0.500000000   0.500000000   0.500000000
Ca       0.000000000   0.000000000   0.000000000
C        0.250000000   0.250000000   0.250000000
C        0.750000000   0.750000000   0.750000000
O        0.518728613   0.981271387   0.250000000
O        0.981271387   0.250000000   0.518728613
O        0.250000000   0.518728613   0.981271387
O        0.018728613   0.750000000   0.481271387
O        0.750000000   0.481271387   0.018728613
O        0.481271387   0.018728613   0.750000000



     Writing output data file CCO.save/
     NEW-OLD atomic charge density approx. for the potential

     Check: negative core charge=   -0.000003

     total cpu time spent up to now is      245.5 secs

     Self-consistent Calculation

     iteration #  1     ecut=    50.00 Ry     beta= 0.70
     CG style diagonalization
     c_bands:  5 eigenvalues not converged
     c_bands:  5 eigenvalues not converged
     c_bands:  2 eigenvalues not converged
     c_bands:  1 eigenvalues not converged
     c_bands:  5 eigenvalues not converged
     c_bands:  5 eigenvalues not converged
     c_bands:  4 eigenvalues not converged
     c_bands:  4 eigenvalues not converged
     c_bands:  4 eigenvalues not converged
     c_bands:  2 eigenvalues not converged
     c_bands:  2 eigenvalues not converged
     c_bands:  4 eigenvalues not converged
     c_bands:  4 eigenvalues not converged
     c_bands:  3 eigenvalues not converged
     c_bands:  4 eigenvalues not converged
     c_bands:  4 eigenvalues not converged
     c_bands:  5 eigenvalues not converged
     c_bands:  4 eigenvalues not converged
     ethr =  1.00E-06,  avg # of iterations = 12.9

     total cpu time spent up to now is      279.0 secs

     total energy              =    -367.40080134 Ry
     Harris-Foulkes estimate   =    -367.40908102 Ry
     estimated scf accuracy    <       0.01134275 Ry

     iteration #  2     ecut=    50.00 Ry     beta= 0.70
     CG style diagonalization
     ethr =  1.77E-05,  avg # of iterations =  4.0

     total cpu time spent up to now is      289.5 secs

     total energy              =    -367.40385376 Ry
     Harris-Foulkes estimate   =    -367.40656820 Ry
     estimated scf accuracy    <       0.00483319 Ry

     iteration #  3     ecut=    50.00 Ry     beta= 0.70
     CG style diagonalization
     ethr =  7.55E-06,  avg # of iterations =  3.6

     total cpu time spent up to now is      299.0 secs

     total energy              =    -367.40508506 Ry
     Harris-Foulkes estimate   =    -367.40512856 Ry
     estimated scf accuracy    <       0.00009627 Ry

     iteration #  4     ecut=    50.00 Ry     beta= 0.70
     CG style diagonalization
     ethr =  1.50E-07,  avg # of iterations =  4.3

     total cpu time spent up to now is      310.4 secs

     total energy              =    -367.40515247 Ry
     Harris-Foulkes estimate   =    -367.40517874 Ry
     estimated scf accuracy    <       0.00006640 Ry

     iteration #  5     ecut=    50.00 Ry     beta= 0.70
     CG style diagonalization
     ethr =  1.04E-07,  avg # of iterations =  3.5

     total cpu time spent up to now is      319.6 secs

     total energy              =    -367.40515971 Ry
     Harris-Foulkes estimate   =    -367.40516147 Ry
     estimated scf accuracy    <       0.00000323 Ry

     iteration #  6     ecut=    50.00 Ry     beta= 0.70
     CG style diagonalization
     ethr =  5.05E-09,  avg # of iterations =  4.0

     total cpu time spent up to now is      330.3 secs

     total energy              =    -367.40516081 Ry
     Harris-Foulkes estimate   =    -367.40516090 Ry
     estimated scf accuracy    <       0.00000021 Ry

     iteration #  7     ecut=    50.00 Ry     beta= 0.70
     CG style diagonalization
     ethr =  3.21E-10,  avg # of iterations =  4.0

     total cpu time spent up to now is      340.9 secs

     total energy              =    -367.40516090 Ry
     Harris-Foulkes estimate   =    -367.40516093 Ry
     estimated scf accuracy    <       0.00000005 Ry

     iteration #  8     ecut=    50.00 Ry     beta= 0.70
     CG style diagonalization
     ethr =  7.03E-11,  avg # of iterations =  3.9

     total cpu time spent up to now is      351.3 secs

     End of self-consistent calculation

          k = 0.0000 0.0000 0.0000 (  4669 PWs)   bands (ev):

   -32.3372 -32.3173 -16.5409 -16.4739 -14.1863 -14.1863 -13.4842 -13.4842
   -13.3404 -13.2522 -13.2522 -13.1850 -12.3320 -12.3320  -2.6746  -2.3115
    -1.1778  -0.9460  -0.9460  -0.5498  -0.5498   0.2679   2.9310   2.9310
     3.6514   3.6514   3.8225   3.8225   4.3162   4.3169   4.3169   4.8369

          k =-0.2227-0.1286 0.0616 (  4703 PWs)   bands (ev):

   -32.3356 -32.3184 -16.4982 -16.4949 -14.1908 -14.0882 -13.8181 -13.5945
   -13.4112 -13.3784 -13.0353 -12.7401 -12.4720 -12.3541  -2.5419  -2.3317
    -1.0550  -0.8778  -0.8189  -0.6203  -0.5262   0.1325   3.0053   3.0883
     3.4826   3.5260   3.6417   3.6786   4.0889   4.1473   4.6447   4.8846

          k =-0.4454-0.2572 0.1232 (  4700 PWs)   bands (ev):

   -32.3314 -32.3215 -16.5036 -16.4383 -14.2191 -14.0541 -14.0022 -13.8193
   -13.3676 -13.3439 -12.7871 -12.6635 -12.5188 -12.4093  -2.3106  -2.2978
    -0.9059  -0.7427  -0.6082  -0.5432  -0.5274  -0.0834   2.9916   3.0599
     3.3464   3.3511   3.3576   3.5200   3.8246   3.8793   4.9716   4.9944

          k = 0.6682 0.3858-0.1848 (  4702 PWs)   bands (ev):

   -32.3262 -32.3262 -16.4590 -16.4590 -14.0964 -14.0964 -14.0414 -14.0414
   -13.3364 -13.3364 -12.6056 -12.6056 -12.5374 -12.5374  -2.2265  -2.2265
    -0.8434  -0.8434  -0.4743  -0.4743  -0.2803  -0.2803   2.8232   2.8232
     3.3119   3.3119   3.4852   3.4852   3.7107   3.7107   5.0725   5.0725

          k =-0.2227 0.1286 0.1232 (  4690 PWs)   bands (ev):

   -32.3353 -32.3187 -16.5008 -16.4935 -14.1432 -14.1367 -13.7392 -13.6754
   -13.4677 -13.3745 -12.9083 -12.8046 -12.4221 -12.4099  -2.5283  -2.3556
    -1.0177  -0.8666  -0.8336  -0.6199  -0.5236   0.1055   3.0113   3.0936
     3.4512   3.4972   3.6461   3.7393   4.0402   4.1818   4.6452   4.8690

          k =-0.4454-0.0000 0.1848 (  4698 PWs)   bands (ev):

   -32.3323 -32.3209 -16.5155 -16.4415 -14.2156 -14.1268 -13.8367 -13.7749
   -13.4012 -13.3732 -12.8326 -12.7503 -12.4531 -12.3927  -2.3483  -2.3381
    -0.8808  -0.7622  -0.7256  -0.5582  -0.5050  -0.0616   3.0194   3.1230
     3.3135   3.3503   3.4616   3.5485   3.8137   4.0001   4.9246   4.9510

          k = 0.6682 0.6429-0.1232 (  4699 PWs)   bands (ev):

   -32.3278 -32.3245 -16.4716 -16.4491 -14.2407 -14.0876 -14.0088 -13.8539
   -13.3569 -13.3417 -12.8469 -12.6226 -12.5056 -12.3661  -2.2309  -2.2129
    -0.8374  -0.8057  -0.5907  -0.4766  -0.3120  -0.1844   2.8427   2.9307
     3.2020   3.2667   3.3610   3.4521   3.7392   3.8390   5.0821   5.1033

          k = 0.4454 0.5143-0.0616 (  4710 PWs)   bands (ev):

   -32.3290 -32.3233 -16.5066 -16.4094 -14.2949 -14.0749 -14.0454 -13.7438
   -13.3914 -13.3019 -12.9100 -12.6281 -12.5285 -12.3165  -2.2796  -2.1597
    -0.9087  -0.7101  -0.5519  -0.4660  -0.4217  -0.1674   2.7881   3.0284
     3.1354   3.2964   3.3343   3.4654   3.7924   3.8315   5.0239   5.1617

          k = 0.2227 0.3858 0.0000 (  4698 PWs)   bands (ev):

   -32.3332 -32.3200 -16.5198 -16.4342 -14.2156 -14.1338 -13.8676 -13.7417
   -13.4130 -13.3627 -12.8033 -12.7825 -12.4496 -12.3900  -2.3423  -2.3305
    -0.9211  -0.7601  -0.6737  -0.6507  -0.4831  -0.0343   3.0295   3.2065
     3.2144   3.3617   3.4607   3.5254   3.8699   4.0052   4.9293   4.9559

          k =-0.4454 0.2572 0.2464 (  4693 PWs)   bands (ev):

   -32.3314 -32.3215 -16.5529 -16.3891 -14.2543 -14.2471 -13.6935 -13.6508
   -13.4616 -13.3825 -12.8973 -12.8925 -12.3943 -12.3103  -2.4270  -2.1893
    -0.8842  -0.7104  -0.6998  -0.4908  -0.4130  -0.1658   2.8071   3.0199
     3.2191   3.4517   3.5041   3.6212   3.6571   3.9962   4.8818   5.0755

          k = 0.6682 0.9001-0.0616 (  4691 PWs)   bands (ev):

   -32.3290 -32.3233 -16.5372 -16.3820 -14.3432 -14.1956 -13.8022 -13.6309
   -13.4029 -13.3431 -13.0948 -12.7587 -12.4049 -12.2553  -2.3545  -2.0879
    -0.8706  -0.7403  -0.6199  -0.4839  -0.2781  -0.1728   2.6622   2.9254
     3.1566   3.3695   3.3837   3.4250   3.7597   3.8994   4.9661   5.2169

          k = 0.4454 0.7715 0.0000 (  4690 PWs)   bands (ev):

   -32.3260 -32.3260 -16.4561 -16.4558 -14.2409 -14.2057 -13.8967 -13.8099
   -13.4236 -13.3424 -12.8279 -12.7883 -12.3634 -12.3529  -2.1707  -2.1699
    -0.8608  -0.7262  -0.6735  -0.4582  -0.2416  -0.1603   2.8291   2.8500
     3.1580   3.1675   3.2841   3.3038   3.8267   3.8652   5.1569   5.1626

          k = 0.6682-0.3858-0.3696 (  4714 PWs)   bands (ev):

   -32.3294 -32.3229 -16.5782 -16.3304 -14.3891 -14.3351 -13.4620 -13.4267
   -13.3861 -13.3257 -13.2307 -13.1949 -12.2867 -12.2045  -2.4599  -1.9812
    -0.9434  -0.6685  -0.5403  -0.4741  -0.2691  -0.2267   2.5082   2.8549
     3.1702   3.3348   3.4825   3.5638   3.7987   3.8541   4.8510   5.2822

          k = 0.0000-0.0000 0.1848 (  4687 PWs)   bands (ev):

   -32.3359 -32.3186 -16.5370 -16.4791 -14.1618 -14.1618 -13.6232 -13.6232
   -13.3288 -13.1943 -13.0989 -13.0989 -12.3713 -12.3713  -2.6640  -2.3600
    -1.0653  -0.9209  -0.9209  -0.5783  -0.5783   0.1773   2.9811   2.9811
     3.6027   3.6027   3.8542   3.8542   4.2751   4.2751   4.3489   4.7943

          k =-0.2227-0.1286 0.2464 (  4688 PWs)   bands (ev):

   -32.3336 -32.3204 -16.5039 -16.4908 -14.1948 -14.0156 -13.9593 -13.5442
   -13.4484 -13.3039 -13.0247 -12.6673 -12.5648 -12.3582  -2.5482  -2.3648
    -0.9490  -0.8513  -0.7490  -0.6306  -0.5798   0.0300   3.0472   3.1310
     3.4499   3.5164   3.6086   3.7450   4.0402   4.0794   4.6547   4.8480

          k = 0.8909 0.5143-0.0616 (  4696 PWs)   bands (ev):

   -32.3293 -32.3236 -16.4829 -16.4636 -14.1893 -14.1106 -13.9986 -13.7622
   -13.3900 -13.3164 -12.8751 -12.6030 -12.5490 -12.3860  -2.3881  -2.2357
    -0.8365  -0.8037  -0.6418  -0.5255  -0.4304  -0.1270   2.9541   3.0741
     3.2731   3.3820   3.4286   3.5524   3.7526   3.8333   4.9406   5.0152

          k = 0.6682 0.3858 0.0000 (  4707 PWs)   bands (ev):

   -32.3278 -32.3245 -16.5195 -16.3961 -14.2533 -14.2031 -13.8812 -13.8412
   -13.3896 -13.2836 -12.7997 -12.7962 -12.4223 -12.3656  -2.3444  -2.1057
    -0.9200  -0.7165  -0.5647  -0.4294  -0.3148  -0.2323   2.6752   2.9247
     3.1580   3.4196   3.4554   3.6025   3.6287   3.7722   4.9717   5.1721

          k = 0.4454 0.2572 0.0616 (  4711 PWs)   bands (ev):

   -32.3322 -32.3207 -16.5360 -16.4036 -14.2657 -14.1451 -13.8827 -13.6987
   -13.4236 -13.3508 -12.8889 -12.6885 -12.5119 -12.3311  -2.3677  -2.2369
    -0.9062  -0.7162  -0.6858  -0.4993  -0.4972  -0.1060   2.8761   3.1067
     3.1946   3.3935   3.4546   3.6031   3.7443   3.9709   4.9223   5.0440

          k =-0.2227 0.1286 0.3080 (  4694 PWs)   bands (ev):

   -32.3327 -32.3213 -16.5066 -16.4906 -14.1694 -14.0384 -13.8911 -13.6773
   -13.4318 -13.3378 -12.8561 -12.7396 -12.5151 -12.4224  -2.5089  -2.4227
    -0.8762  -0.8207  -0.7777  -0.6187  -0.5759  -0.0438   3.0749   3.1496
     3.3630   3.4676   3.6573   3.8267   3.9501   4.1298   4.6671   4.8094

          k = 0.8909 0.7715 0.0000 (  4694 PWs)   bands (ev):

   -32.3299 -32.3233 -16.5027 -16.4601 -14.2017 -14.1302 -13.8116 -13.7780
   -13.4388 -13.3616 -12.8348 -12.7399 -12.4511 -12.4036  -2.3597  -2.3539
    -0.7913  -0.7671  -0.7391  -0.5667  -0.4247  -0.1462   3.0132   3.0646
     3.3219   3.3902   3.4640   3.5922   3.7550   3.9422   4.9197   4.9385

          k = 0.6682 0.6429 0.0616 (  4685 PWs)   bands (ev):

   -32.3262 -32.3261 -16.4913 -16.4335 -14.2405 -14.1536 -13.9577 -13.7373
   -13.4074 -13.3780 -12.8774 -12.6893 -12.4505 -12.3349  -2.2980  -2.1493
    -0.8631  -0.7059  -0.6828  -0.4999  -0.2202  -0.1957   2.7750   2.8845
     3.2013   3.3193   3.3709   3.4486   3.7488   3.8172   5.0414   5.1458

          k = 0.4454 0.5143 0.1232 (  4697 PWs)   bands (ev):

   -32.3294 -32.3229 -16.5306 -16.3846 -14.3462 -14.1391 -13.9530 -13.5917
   -13.4201 -13.2965 -13.0792 -12.6530 -12.5003 -12.2567  -2.3310  -2.1075
    -0.9112  -0.6862  -0.5722  -0.5112  -0.3538  -0.1711   2.7066   3.0117
     3.1034   3.3410   3.3809   3.4518   3.7688   3.8821   4.9799   5.2044

          k = 0.8909-0.5143-0.3080 (  4693 PWs)   bands (ev):

   -32.3293 -32.3236 -16.5489 -16.3978 -14.2890 -14.1954 -13.7824 -13.5561
   -13.4508 -13.3265 -13.0698 -12.8251 -12.3542 -12.3302  -2.4560  -2.1758
    -0.8838  -0.6994  -0.6118  -0.5715  -0.3243  -0.2269   2.8046   2.9848
     3.2863   3.4245   3.4875   3.5720   3.6975   3.9367   4.8718   5.0778

          k = 0.6682-0.6429-0.2464 (  4688 PWs)   bands (ev):

   -32.3278 -32.3245 -16.5234 -16.4007 -14.2788 -14.2267 -13.7846 -13.6770
   -13.4265 -13.4238 -12.9082 -12.8309 -12.3638 -12.3068  -2.3430  -2.1036
    -0.8656  -0.7367  -0.5908  -0.5600  -0.2214  -0.1720   2.6866   2.8849
     3.2135   3.2991   3.4070   3.4294   3.7741   3.8450   4.9907   5.1953

          k = 0.4454-0.7715-0.1848 (  4698 PWs)   bands (ev):

   -32.3260 -32.3260 -16.4559 -16.4559 -14.2247 -14.2247 -13.8543 -13.8543
   -13.3813 -13.3813 -12.8075 -12.8075 -12.3580 -12.3580  -2.1703  -2.1703
    -0.8184  -0.8184  -0.5483  -0.5483  -0.1935  -0.1935   2.8391   2.8391
     3.1648   3.1648   3.2916   3.2916   3.8466   3.8466   5.1598   5.1598

          k = 0.6682-0.3858-0.1848 (  4703 PWs)   bands (ev):

   -32.3290 -32.3233 -16.5627 -16.3483 -14.3544 -14.3015 -13.6325 -13.6117
   -13.4282 -13.2454 -13.0702 -13.0284 -12.3214 -12.2458  -2.4292  -2.0150
    -0.9436  -0.6483  -0.5531  -0.5007  -0.2558  -0.2393   2.5545   2.8951
     3.1307   3.4014   3.4894   3.5400   3.7549   3.8229   4.8868   5.2513

          k = 0.0000-0.0000 0.3696 (  4678 PWs)   bands (ev):

   -32.3322 -32.3223 -16.5261 -16.4927 -14.0892 -14.0892 -13.8112 -13.8112
   -13.2982 -13.2207 -12.8716 -12.8716 -12.4845 -12.4845  -2.6279  -2.4622
    -0.8515  -0.8515  -0.7817  -0.6542  -0.6542  -0.0727   3.1169   3.1169
     3.4755   3.4755   3.9336   3.9336   4.1705   4.1705   4.4375   4.6884

          k = 1.1136 0.6429 0.0616 (  4698 PWs)   bands (ev):

   -32.3299 -32.3241 -16.5084 -16.4891 -14.1596 -14.0528 -13.9361 -13.6866
   -13.3756 -13.2785 -12.9210 -12.6591 -12.5941 -12.4152  -2.5350  -2.4239
    -0.8034  -0.7933  -0.7070  -0.6612  -0.5370  -0.1877   3.1268   3.2170
     3.3667   3.3781   3.7092   3.8560   3.9012   4.0219   4.6830   4.7828

          k = 0.8909 0.5143 0.1232 (  4690 PWs)   bands (ev):

   -32.3265 -32.3264 -16.5236 -16.4253 -14.2683 -14.1046 -13.9587 -13.5902
   -13.4306 -13.2949 -13.0494 -12.6963 -12.4575 -12.3270  -2.4424  -2.1930
    -0.8595  -0.7134  -0.6733  -0.5388  -0.3104  -0.2228   2.8596   3.0252
     3.3144   3.3769   3.4353   3.6297   3.7052   3.8350   4.8950   5.0533

          k = 1.1136-0.6429-0.2464 (  4696 PWs)   bands (ev):

   -32.3286 -32.3253 -16.5096 -16.4892 -14.1606 -14.0176 -13.9249 -13.7577
   -13.3563 -13.2976 -12.8745 -12.6359 -12.6004 -12.4520  -2.4916  -2.4758
    -0.7908  -0.7586  -0.7183  -0.6692  -0.4610  -0.2842   3.1925   3.2085
     3.2962   3.3607   3.7389   3.8501   3.9093   4.0199   4.7164   4.7382

          k = 0.8909-0.7715-0.1848 (  4688 PWs)   bands (ev):

   -32.3266 -32.3266 -16.4828 -16.4828 -14.1657 -14.1657 -13.7857 -13.7857
   -13.4107 -13.4107 -12.7844 -12.7844 -12.4277 -12.4277  -2.3635  -2.3635
    -0.7690  -0.7690  -0.6560  -0.6560  -0.2782  -0.2782   3.0302   3.0302
     3.3407   3.3407   3.5455   3.5455   3.8334   3.8334   4.9252   4.9252

          k =-0.0000 0.0000-0.5544 (  4728 PWs)   bands (ev):

   -32.3273 -32.3273 -16.5101 -16.5101 -13.9706 -13.9706 -13.9706 -13.9706
   -13.2584 -13.2584 -12.6579 -12.6579 -12.6579 -12.6579  -2.5599  -2.5599
    -0.7545  -0.7545  -0.7545  -0.7545  -0.4207  -0.4207   3.2987   3.2987
     3.2987   3.2987   4.0452   4.0452   4.0452   4.0452   4.5592   4.5592

     highest occupied level (ev):     5.2822

!    total energy              =    -367.40516091 Ry
     Harris-Foulkes estimate   =    -367.40516091 Ry
     estimated scf accuracy    <          2.8E-09 Ry

     The total energy is the sum of the following terms:

     one-electron contribution =    -134.14807321 Ry
     hartree contribution      =      98.60835860 Ry
     xc contribution           =     -75.53074782 Ry
     ewald contribution        =    -256.33469848 Ry

     convergence has been achieved in   8 iterations

     Forces acting on atoms (cartesian axes, Ry/au):

     atom    1 type  1   force =     0.00000000    0.00000000    0.00000000
     atom    2 type  1   force =     0.00000000    0.00000000    0.00000000
     atom    3 type  2   force =    -0.00000000   -0.00000000    0.00000000
     atom    4 type  2   force =     0.00000000   -0.00000000   -0.00000000
     atom    5 type  3   force =    -0.00781230    0.01353130    0.00000000
     atom    6 type  3   force =     0.01562460   -0.00000000    0.00000000
     atom    7 type  3   force =    -0.00781230   -0.01353130   -0.00000000
     atom    8 type  3   force =    -0.01562460    0.00000000   -0.00000000
     atom    9 type  3   force =     0.00781230    0.01353130    0.00000000
     atom   10 type  3   force =     0.00781230   -0.01353130   -0.00000000

     Total force =     0.038272     Total SCF correction =     0.000009


     Computing stress (Cartesian axis) and pressure

          total   stress  (Ry/bohr**3)                   (kbar)     P=   76.18
   0.00058664  -0.00000000   0.00000000         86.30     -0.00      0.00
   0.00000000   0.00058664   0.00000000          0.00     86.30      0.00
   0.00000000   0.00000000   0.00038041          0.00      0.00     55.96


     number of scf cycles    =   3
     number of bfgs steps    =   2

     energy   old            =    -367.3866689729 Ry
     energy   new            =    -367.4051609121 Ry

     CASE: energy  _new < energy  _old

     new trust radius        =       0.0123027596 bohr
     new conv_thr            =       0.0000000016 Ry


ATOMIC_POSITIONS (crystal)
Ca       0.500000000   0.500000000   0.500000000
Ca       0.000000000   0.000000000   0.000000000
C        0.250000000   0.250000000   0.250000000
C        0.750000000   0.750000000   0.750000000
O        0.517376618   0.982623382   0.250000000
O        0.982623382   0.250000000   0.517376618
O        0.250000000   0.517376618   0.982623382
O        0.017376618   0.750000000   0.482623382
O        0.750000000   0.482623382   0.017376618
O        0.482623382   0.017376618   0.750000000



     Writing output data file CCO.save/
     NEW-OLD atomic charge density approx. for the potential

     Check: negative core charge=   -0.000003

     total cpu time spent up to now is      353.4 secs

     Self-consistent Calculation

     iteration #  1     ecut=    50.00 Ry     beta= 0.70
     CG style diagonalization
     c_bands:  1 eigenvalues not converged
     c_bands:  1 eigenvalues not converged
     c_bands:  1 eigenvalues not converged
     c_bands:  2 eigenvalues not converged
     c_bands:  1 eigenvalues not converged
     c_bands:  1 eigenvalues not converged
     ethr =  1.00E-06,  avg # of iterations =  6.0

     total cpu time spent up to now is      369.3 secs

     total energy              =    -367.40544571 Ry
     Harris-Foulkes estimate   =    -367.40584433 Ry
     estimated scf accuracy    <       0.00054134 Ry

     iteration #  2     ecut=    50.00 Ry     beta= 0.70
     CG style diagonalization
     ethr =  8.46E-07,  avg # of iterations =  3.9

     total cpu time spent up to now is      379.5 secs

     total energy              =    -367.40561047 Ry
     Harris-Foulkes estimate   =    -367.40573359 Ry
     estimated scf accuracy    <       0.00021693 Ry

     iteration #  3     ecut=    50.00 Ry     beta= 0.70
     CG style diagonalization
     ethr =  3.39E-07,  avg # of iterations =  3.6

     total cpu time spent up to now is      389.0 secs

     total energy              =    -367.40566491 Ry
     Harris-Foulkes estimate   =    -367.40566580 Ry
     estimated scf accuracy    <       0.00000258 Ry

     iteration #  4     ecut=    50.00 Ry     beta= 0.70
     CG style diagonalization
     ethr =  4.04E-09,  avg # of iterations =  4.5

     total cpu time spent up to now is      400.9 secs

     total energy              =    -367.40566744 Ry
     Harris-Foulkes estimate   =    -367.40566855 Ry
     estimated scf accuracy    <       0.00000308 Ry

     iteration #  5     ecut=    50.00 Ry     beta= 0.70
     CG style diagonalization
     ethr =  4.04E-09,  avg # of iterations =  3.5

     total cpu time spent up to now is      410.3 secs

     total energy              =    -367.40566762 Ry
     Harris-Foulkes estimate   =    -367.40566776 Ry
     estimated scf accuracy    <       0.00000029 Ry

     iteration #  6     ecut=    50.00 Ry     beta= 0.70
     CG style diagonalization
     ethr =  4.60E-10,  avg # of iterations =  3.6

     total cpu time spent up to now is      419.9 secs

     total energy              =    -367.40566767 Ry
     Harris-Foulkes estimate   =    -367.40566767 Ry
     estimated scf accuracy    <       0.00000002 Ry

     iteration #  7     ecut=    50.00 Ry     beta= 0.70
     CG style diagonalization
     ethr =  3.49E-11,  avg # of iterations =  3.9

     total cpu time spent up to now is      430.2 secs

     total energy              =    -367.40566767 Ry
     Harris-Foulkes estimate   =    -367.40566767 Ry
     estimated scf accuracy    <          3.4E-09 Ry

     iteration #  8     ecut=    50.00 Ry     beta= 0.70
     CG style diagonalization
     ethr =  5.38E-12,  avg # of iterations =  4.0

     total cpu time spent up to now is      440.8 secs

     End of self-consistent calculation

          k = 0.0000 0.0000 0.0000 (  4669 PWs)   bands (ev):

   -32.3571 -32.3374 -16.6167 -16.5585 -14.2042 -14.2042 -13.5014 -13.5014
   -13.3573 -13.2946 -13.2946 -13.2152 -12.3775 -12.3775  -2.6579  -2.2885
    -1.2222  -0.9595  -0.9595  -0.5662  -0.5662   0.2053   2.9364   2.9364
     3.6417   3.6417   3.8174   3.8174   4.3132   4.3132   4.3518   4.8675

          k =-0.2227-0.1286 0.0616 (  4703 PWs)   bands (ev):

   -32.3555 -32.3384 -16.5781 -16.5762 -14.2090 -14.1072 -13.8435 -13.6180
   -13.4295 -13.4010 -13.0715 -12.7800 -12.5163 -12.3989  -2.5245  -2.3081
    -1.0998  -0.8922  -0.8353  -0.6365  -0.5437   0.0728   3.0102   3.0913
     3.4763   3.5203   3.6346   3.6749   4.0933   4.1465   4.6688   4.9130

          k =-0.4454-0.2572 0.1232 (  4700 PWs)   bands (ev):

   -32.3513 -32.3415 -16.5853 -16.5203 -14.2375 -14.0749 -14.0221 -13.8399
   -13.3897 -13.3664 -12.8257 -12.7048 -12.5606 -12.4520  -2.2906  -2.2732
    -0.9373  -0.7604  -0.6392  -0.5660  -0.5489  -0.1364   2.9888   3.0590
     3.3474   3.3497   3.3556   3.5170   3.8271   3.8815   4.9977   5.0191

          k = 0.6682 0.3858-0.1848 (  4702 PWs)   bands (ev):

   -32.3461 -32.3461 -16.5415 -16.5415 -14.1147 -14.1147 -14.0617 -14.0617
   -13.3597 -13.3597 -12.6458 -12.6458 -12.5787 -12.5787  -2.2031  -2.2031
    -0.8669  -0.8669  -0.4972  -0.4972  -0.3256  -0.3256   2.8209   2.8209
     3.3104   3.3104   3.4860   3.4860   3.7139   3.7139   5.0974   5.0974

          k =-0.2227 0.1286 0.1232 (  4690 PWs)   bands (ev):

   -32.3552 -32.3387 -16.5836 -16.5718 -14.1620 -14.1553 -13.7638 -13.7050
   -13.4855 -13.3914 -12.9457 -12.8441 -12.4667 -12.4546  -2.5109  -2.3325
    -1.0628  -0.8812  -0.8494  -0.6361  -0.5411   0.0463   3.0155   3.0974
     3.4463   3.4898   3.6431   3.7322   4.0432   4.1810   4.6705   4.8974

          k =-0.4454-0.0000 0.1848 (  4698 PWs)   bands (ev):

   -32.3522 -32.3409 -16.5969 -16.5230 -14.2341 -14.1465 -13.8602 -13.7978
   -13.4215 -13.3924 -12.8716 -12.7900 -12.4961 -12.4367  -2.3262  -2.3172
    -0.9157  -0.7857  -0.7428  -0.5826  -0.5250  -0.1160   3.0201   3.1245
     3.3121   3.3461   3.4593   3.5454   3.8153   4.0018   4.9511   4.9756

          k = 0.6682 0.6429-0.1232 (  4699 PWs)   bands (ev):

   -32.3478 -32.3445 -16.5540 -16.5316 -14.2580 -14.1079 -14.0293 -13.8755
   -13.3789 -13.3638 -12.8844 -12.6633 -12.5471 -12.4098  -2.2084  -2.1889
    -0.8629  -0.8283  -0.6182  -0.4977  -0.3502  -0.2327   2.8410   2.9295
     3.2006   3.2645   3.3627   3.4523   3.7415   3.8420   5.1069   5.1273

          k = 0.4454 0.5143-0.0616 (  4710 PWs)   bands (ev):

   -32.3489 -32.3433 -16.5877 -16.4935 -14.3120 -14.0940 -14.0655 -13.7667
   -13.4109 -13.3266 -12.9476 -12.6686 -12.5698 -12.3605  -2.2548  -2.1380
    -0.9331  -0.7336  -0.5733  -0.4919  -0.4610  -0.2155   2.7863   3.0258
     3.1365   3.2944   3.3344   3.4656   3.7938   3.8348   5.0489   5.1857

          k = 0.2227 0.3858 0.0000 (  4698 PWs)   bands (ev):

   -32.3531 -32.3400 -16.6013 -16.5158 -14.2346 -14.1527 -13.8892 -13.7673
   -13.4297 -13.3847 -12.8435 -12.8212 -12.4927 -12.4340  -2.3198  -2.3094
    -0.9576  -0.7827  -0.6950  -0.6700  -0.5019  -0.0904   3.0296   3.2063
     3.2160   3.3575   3.4572   3.5213   3.8720   4.0067   4.9558   4.9805

          k =-0.4454 0.2572 0.2464 (  4693 PWs)   bands (ev):

   -32.3513 -32.3415 -16.6324 -16.4734 -14.2728 -14.2654 -13.7167 -13.6803
   -13.4788 -13.3993 -12.9353 -12.9306 -12.4382 -12.3558  -2.4025  -2.1700
    -0.9005  -0.7450  -0.7297  -0.5103  -0.4374  -0.2184   2.8079   3.0235
     3.2153   3.4504   3.5010   3.6214   3.6563   3.9975   4.9079   5.1003

          k = 0.6682 0.9001-0.0616 (  4691 PWs)   bands (ev):

   -32.3489 -32.3433 -16.6168 -16.4674 -14.3593 -14.2155 -13.8271 -13.6538
   -13.4211 -13.3651 -13.1297 -12.7975 -12.4489 -12.3007  -2.3297  -2.0664
    -0.8875  -0.7676  -0.6580  -0.5031  -0.3169  -0.2164   2.6629   2.9286
     3.1546   3.3703   3.3829   3.4211   3.7618   3.9017   4.9911   5.2406

          k = 0.4454 0.7715 0.0000 (  4690 PWs)   bands (ev):

   -32.3460 -32.3460 -16.5386 -16.5384 -14.2579 -14.2245 -13.9186 -13.8373
   -13.4405 -13.3638 -12.8649 -12.8263 -12.4073 -12.3972  -2.1469  -2.1460
    -0.8862  -0.7445  -0.7069  -0.4784  -0.2891  -0.2016   2.8290   2.8492
     3.1554   3.1651   3.2861   3.3063   3.8294   3.8676   5.1806   5.1860

          k = 0.6682-0.3858-0.3696 (  4714 PWs)   bands (ev):

   -32.3493 -32.3429 -16.6561 -16.4186 -14.4043 -14.3530 -13.4791 -13.4439
   -13.4029 -13.3657 -13.2594 -13.2370 -12.3316 -12.2506  -2.4348  -1.9599
    -0.9588  -0.6967  -0.5864  -0.4914  -0.3167  -0.2575   2.5099   2.8601
     3.1677   3.3364   3.4802   3.5591   3.7996   3.8568   4.8773   5.3061

          k = 0.0000-0.0000 0.1848 (  4687 PWs)   bands (ev):

   -32.3558 -32.3387 -16.6134 -16.5630 -14.1800 -14.1800 -13.6450 -13.6450
   -13.3468 -13.2237 -13.1370 -13.1370 -12.4163 -12.4163  -2.6472  -2.3390
    -1.1090  -0.9346  -0.9346  -0.5944  -0.5944   0.1168   2.9859   2.9859
     3.5949   3.5949   3.8484   3.8484   4.2711   4.2711   4.3840   4.8251

          k =-0.2227-0.1286 0.2464 (  4688 PWs)   bands (ev):

   -32.3535 -32.3404 -16.5822 -16.5736 -14.2135 -14.0345 -13.9816 -13.5684
   -13.4663 -13.3291 -13.0623 -12.7072 -12.6078 -12.4026  -2.5305  -2.3432
    -0.9893  -0.8656  -0.7689  -0.6480  -0.5978  -0.0270   3.0515   3.1332
     3.4454   3.5107   3.6027   3.7414   4.0391   4.0824   4.6798   4.8765

          k = 0.8909 0.5143-0.0616 (  4696 PWs)   bands (ev):

   -32.3492 -32.3436 -16.5634 -16.5466 -14.2089 -14.1303 -14.0173 -13.7842
   -13.4101 -13.3409 -12.9146 -12.6442 -12.5890 -12.4295  -2.3672  -2.2124
    -0.8683  -0.8212  -0.6639  -0.5489  -0.4628  -0.1775   2.9541   3.0721
     3.2711   3.3800   3.4268   3.5537   3.7544   3.8360   4.9653   5.0411

          k = 0.6682 0.3858 0.0000 (  4707 PWs)   bands (ev):

   -32.3477 -32.3445 -16.5997 -16.4813 -14.2701 -14.2220 -13.9022 -13.8626
   -13.4099 -13.3098 -12.8366 -12.8350 -12.4654 -12.4092  -2.3201  -2.0833
    -0.9411  -0.7423  -0.5882  -0.4600  -0.3549  -0.2753   2.6746   2.9232
     3.1583   3.4191   3.4511   3.6047   3.6298   3.7763   4.9968   5.1968

          k = 0.4454 0.2572 0.0616 (  4711 PWs)   bands (ev):

   -32.3521 -32.3407 -16.6165 -16.4869 -14.2838 -14.1641 -13.9051 -13.7228
   -13.4428 -13.3716 -12.9268 -12.7284 -12.5546 -12.3758  -2.3428  -2.2174
    -0.9326  -0.7348  -0.7235  -0.5187  -0.5181  -0.1601   2.8754   3.1087
     3.1922   3.3917   3.4517   3.6006   3.7459   3.9727   4.9485   5.0687

          k =-0.2227 0.1286 0.3080 (  4694 PWs)   bands (ev):

   -32.3526 -32.3413 -16.5883 -16.5698 -14.1881 -14.0580 -13.9147 -13.7022
   -13.4528 -13.3566 -12.8948 -12.7788 -12.5591 -12.4664  -2.4915  -2.4016
    -0.9115  -0.8356  -0.8008  -0.6378  -0.5939  -0.0992   3.0776   3.1532
     3.3601   3.4614   3.6549   3.8208   3.9496   4.1285   4.6943   4.8378

          k = 0.8909 0.7715 0.0000 (  4694 PWs)   bands (ev):

   -32.3498 -32.3433 -16.5839 -16.5414 -14.2201 -14.1507 -13.8332 -13.8039
   -13.4565 -13.3827 -12.8729 -12.7798 -12.4941 -12.4476  -2.3384  -2.3331
    -0.8153  -0.7921  -0.7603  -0.5900  -0.4562  -0.1956   3.0144   3.0659
     3.3197   3.3867   3.4630   3.5908   3.7553   3.9440   4.9459   4.9633

          k = 0.6682 0.6429 0.0616 (  4685 PWs)   bands (ev):

   -32.3461 -32.3461 -16.5722 -16.5171 -14.2586 -14.1719 -13.9803 -13.7631
   -13.4265 -13.3983 -12.9146 -12.7274 -12.4940 -12.3795  -2.2748  -2.1261
    -0.8845  -0.7298  -0.7115  -0.5273  -0.2590  -0.2396   2.7750   2.8856
     3.1985   3.3188   3.3707   3.4480   3.7515   3.8208   5.0655   5.1699

          k = 0.4454 0.5143 0.1232 (  4697 PWs)   bands (ev):

   -32.3494 -32.3429 -16.6106 -16.4698 -14.3626 -14.1585 -13.9743 -13.6160
   -13.4371 -13.3215 -13.1153 -12.6926 -12.5430 -12.3018  -2.3060  -2.0861
    -0.9329  -0.7119  -0.6017  -0.5369  -0.3866  -0.2186   2.7061   3.0139
     3.1009   3.3410   3.3771   3.4525   3.7702   3.8849   5.0051   5.2282

          k = 0.8909-0.5143-0.3080 (  4693 PWs)   bands (ev):

   -32.3492 -32.3436 -16.6279 -16.4822 -14.3072 -14.2144 -13.8083 -13.5770
   -13.4689 -13.3480 -13.1083 -12.8625 -12.3991 -12.3746  -2.4326  -2.1559
    -0.9002  -0.7187  -0.6512  -0.5973  -0.3564  -0.2717   2.8057   2.9881
     3.2827   3.4247   3.4854   3.5705   3.6984   3.9376   4.8974   5.1029

          k = 0.6682-0.6429-0.2464 (  4688 PWs)   bands (ev):

   -32.3477 -32.3445 -16.6032 -16.4854 -14.2955 -14.2463 -13.8084 -13.7067
   -13.4437 -13.4412 -12.9436 -12.8690 -12.4082 -12.3519  -2.3189  -2.0815
    -0.8841  -0.7629  -0.6264  -0.5839  -0.2618  -0.2120   2.6875   2.8876
     3.2110   3.3003   3.4070   3.4248   3.7776   3.8475   5.0152   5.2190

          k = 0.4454-0.7715-0.1848 (  4698 PWs)   bands (ev):

   -32.3460 -32.3460 -16.5385 -16.5385 -14.2424 -14.2424 -13.8787 -13.8787
   -13.4008 -13.4008 -12.8451 -12.8451 -12.4022 -12.4022  -2.1465  -2.1465
    -0.8434  -0.8434  -0.5736  -0.5736  -0.2363  -0.2363   2.8387   2.8387
     3.1620   3.1620   3.2941   3.2941   3.8491   3.8491   5.1833   5.1833

          k = 0.6682-0.3858-0.1848 (  4703 PWs)   bands (ev):

   -32.3489 -32.3433 -16.6412 -16.4356 -14.3700 -14.3196 -13.6562 -13.6334
   -13.4463 -13.2736 -13.1035 -13.0661 -12.3658 -12.2913  -2.4043  -1.9933
    -0.9613  -0.6775  -0.5730  -0.5433  -0.2875  -0.2830   2.5555   2.8987
     3.1288   3.4012   3.4895   3.5350   3.7559   3.8265   4.9126   5.2755

          k = 0.0000-0.0000 0.3696 (  4678 PWs)   bands (ev):

   -32.3522 -32.3423 -16.6040 -16.5749 -14.1081 -14.1081 -13.8327 -13.8327
   -13.3187 -13.2477 -12.9106 -12.9106 -12.5280 -12.5280  -2.6111  -2.4437
    -0.8656  -0.8656  -0.8264  -0.6698  -0.6698  -0.1279   3.1195   3.1195
     3.4710   3.4710   3.9275   3.9275   4.1657   4.1657   4.4714   4.7199

          k = 1.1136 0.6429 0.0616 (  4698 PWs)   bands (ev):

   -32.3498 -32.3441 -16.5876 -16.5709 -14.1793 -14.0732 -13.9554 -13.7090
   -13.3954 -13.3035 -12.9611 -12.7007 -12.6345 -12.4587  -2.5167  -2.4045
    -0.8216  -0.8179  -0.7236  -0.6804  -0.5718  -0.2391   3.1294   3.2178
     3.3635   3.3767   3.7034   3.8529   3.8996   4.0216   4.7100   4.8113

          k = 0.8909 0.5143 0.1232 (  4690 PWs)   bands (ev):

   -32.3464 -32.3464 -16.6030 -16.5093 -14.2870 -14.1235 -13.9810 -13.6124
   -13.4479 -13.3197 -13.0886 -12.7343 -12.5009 -12.3713  -2.4203  -2.1716
    -0.8769  -0.7409  -0.6966  -0.5678  -0.3479  -0.2664   2.8603   3.0271
     3.3095   3.3765   3.4336   3.6304   3.7074   3.8361   4.9200   5.0788

          k = 1.1136-0.6429-0.2464 (  4696 PWs)   bands (ev):

   -32.3486 -32.3453 -16.5900 -16.5696 -14.1797 -14.0393 -13.9457 -13.7784
   -13.3786 -13.3199 -12.9139 -12.6783 -12.6411 -12.4950  -2.4723  -2.4577
    -0.8083  -0.7741  -0.7401  -0.6893  -0.5022  -0.3324   3.1928   3.2094
     3.2969   3.3582   3.7356   3.8471   3.9053   4.0182   4.7447   4.7663

          k = 0.8909-0.7715-0.1848 (  4688 PWs)   bands (ev):

   -32.3465 -32.3465 -16.5640 -16.5640 -14.1851 -14.1851 -13.8099 -13.8099
   -13.4299 -13.4299 -12.8231 -12.8231 -12.4713 -12.4713  -2.3426  -2.3426
    -0.7865  -0.7865  -0.6847  -0.6847  -0.3193  -0.3193   3.0313   3.0313
     3.3397   3.3397   3.5429   3.5429   3.8348   3.8348   4.9507   4.9507

          k =-0.0000 0.0000-0.5544 (  4728 PWs)   bands (ev):

   -32.3472 -32.3472 -16.5901 -16.5901 -13.9908 -13.9908 -13.9908 -13.9908
   -13.2822 -13.2822 -12.6992 -12.6992 -12.6992 -12.6992  -2.5427  -2.5427
    -0.7694  -0.7694  -0.7694  -0.7694  -0.4698  -0.4698   3.2980   3.2980
     3.2980   3.2980   4.0395   4.0395   4.0395   4.0395   4.5917   4.5917

     highest occupied level (ev):     5.3061

!    total energy              =    -367.40566767 Ry
     Harris-Foulkes estimate   =    -367.40566767 Ry
     estimated scf accuracy    <          1.4E-10 Ry

     The total energy is the sum of the following terms:

     one-electron contribution =    -135.01318375 Ry
     hartree contribution      =      99.02863643 Ry
     xc contribution           =     -75.57746703 Ry
     ewald contribution        =    -255.84365332 Ry

     convergence has been achieved in   8 iterations

     Forces acting on atoms (cartesian axes, Ry/au):

     atom    1 type  1   force =     0.00000000    0.00000000    0.00000000
     atom    2 type  1   force =     0.00000000    0.00000000    0.00000000
     atom    3 type  2   force =     0.00000000    0.00000000   -0.00000000
     atom    4 type  2   force =    -0.00000000   -0.00000000   -0.00000000
     atom    5 type  3   force =     0.00100011   -0.00173224   -0.00000000
     atom    6 type  3   force =    -0.00200022   -0.00000000   -0.00000000
     atom    7 type  3   force =     0.00100011    0.00173224    0.00000000
     atom    8 type  3   force =     0.00200022    0.00000000    0.00000000
     atom    9 type  3   force =    -0.00100011   -0.00173224   -0.00000000
     atom   10 type  3   force =    -0.00100011    0.00173224    0.00000000

     Total force =     0.004900     Total SCF correction =     0.000015


     Computing stress (Cartesian axis) and pressure

          total   stress  (Ry/bohr**3)                   (kbar)     P=   88.42
   0.00072228  -0.00000000   0.00000000        106.25     -0.00      0.00
  -0.00000000   0.00072228   0.00000000         -0.00    106.25      0.00
   0.00000000   0.00000000   0.00035857          0.00      0.00     52.75


     number of scf cycles    =   4
     number of bfgs steps    =   3

     energy   old            =    -367.4051609121 Ry
     energy   new            =    -367.4056676712 Ry

     CASE: energy  _new < energy  _old

     new trust radius        =       0.0013962234 bohr
     new conv_thr            =       0.0000000002 Ry


ATOMIC_POSITIONS (crystal)
Ca       0.500000000   0.500000000   0.500000000
Ca       0.000000000   0.000000000   0.000000000
C        0.250000000   0.250000000   0.250000000
C        0.750000000   0.750000000   0.750000000
O        0.517530054   0.982469946   0.250000000
O        0.982469946   0.250000000   0.517530054
[...]



     Writing output data file CCO.save/
     NEW-OLD atomic charge density approx. for the potential

     Check: negative core charge=   -0.000003

     total cpu time spent up to now is      442.8 secs

     Self-consistent Calculation

     iteration #  1     ecut=    50.00 Ry     beta= 0.70
     CG style diagonalization
     ethr =  1.00E-06,  avg # of iterations =  2.9

     Threshold (ethr) on eigenvalues was too large:
     Diagonalizing with lowered threshold

     CG style diagonalization
     c_bands:  1 eigenvalues not converged
     c_bands:  1 eigenvalues not converged
     c_bands:  1 eigenvalues not converged
     c_bands:  1 eigenvalues not converged
     c_bands:  1 eigenvalues not converged
     c_bands:  1 eigenvalues not converged
     c_bands:  1 eigenvalues not converged
     c_bands:  1 eigenvalues not converged
     c_bands:  2 eigenvalues not converged
     c_bands:  1 eigenvalues not converged
     ethr =  8.84E-09,  avg # of iterations =  5.0

     total cpu time spent up to now is      464.0 secs

     total energy              =    -367.40567307 Ry
     Harris-Foulkes estimate   =    -367.40567825 Ry
     estimated scf accuracy    <       0.00000704 Ry

     iteration #  2     ecut=    50.00 Ry     beta= 0.70
     CG style diagonalization
     ethr =  1.10E-08,  avg # of iterations =  4.0

     total cpu time spent up to now is      474.6 secs

     total energy              =    -367.40567517 Ry
     Harris-Foulkes estimate   =    -367.40567680 Ry
     estimated scf accuracy    <       0.00000289 Ry

     iteration #  3     ecut=    50.00 Ry     beta= 0.70
     CG style diagonalization
     ethr =  4.51E-09,  avg # of iterations =  3.6

     total cpu time spent up to now is      484.2 secs

     total energy              =    -367.40567587 Ry
     Harris-Foulkes estimate   =    -367.40567589 Ry
     estimated scf accuracy    <       0.00000005 Ry

     iteration #  4     ecut=    50.00 Ry     beta= 0.70
     CG style diagonalization
     ethr =  7.33E-11,  avg # of iterations =  4.4

     total cpu time spent up to now is      495.9 secs

     total energy              =    -367.40567590 Ry
     Harris-Foulkes estimate   =    -367.40567592 Ry
     estimated scf accuracy    <       0.00000005 Ry

     iteration #  5     ecut=    50.00 Ry     beta= 0.70
     CG style diagonalization
     ethr =  7.33E-11,  avg # of iterations =  3.5

     total cpu time spent up to now is      505.2 secs

     total energy              =    -367.40567591 Ry
     Harris-Foulkes estimate   =    -367.40567591 Ry
     estimated scf accuracy    <          2.7E-09 Ry

     iteration #  6     ecut=    50.00 Ry     beta= 0.70
     CG style diagonalization
     ethr =  4.16E-12,  avg # of iterations =  3.9

     total cpu time spent up to now is      515.6 secs

     End of self-consistent calculation

          k = 0.0000 0.0000 0.0000 (  4669 PWs)   bands (ev):

   -32.3548 -32.3350 -16.6080 -16.5489 -14.2021 -14.2021 -13.4994 -13.4994
   -13.3554 -13.2898 -13.2898 -13.2117 -12.3723 -12.3723  -2.6598  -2.2911
    -1.2171  -0.9580  -0.9580  -0.5643  -0.5643   0.2125   2.9358   2.9358
     3.6428   3.6428   3.8180   3.8180   4.3136   4.3136   4.3477   4.8640

          k =-0.2227-0.1286 0.0616 (  4703 PWs)   bands (ev):

   -32.3532 -32.3361 -16.5686 -16.5673 -14.2069 -14.1050 -13.8406 -13.6153
   -13.4274 -13.3984 -13.0674 -12.7755 -12.5112 -12.3938  -2.5265  -2.3108
    -1.0946  -0.8906  -0.8334  -0.6346  -0.5418   0.0796   3.0096   3.0910
     3.4770   3.5209   3.6354   3.6753   4.0928   4.1465   4.6660   4.9097

          k =-0.4454-0.2572 0.1232 (  4700 PWs)   bands (ev):

   -32.3490 -32.3392 -16.5760 -16.5109 -14.2354 -14.0725 -14.0198 -13.8375
   -13.3872 -13.3638 -12.8213 -12.7000 -12.5558 -12.4472  -2.2929  -2.2760
    -0.9336  -0.7584  -0.6357  -0.5635  -0.5465  -0.1304   2.9891   3.0591
     3.3473   3.3499   3.3558   3.5174   3.8268   3.8812   4.9947   5.0163

          k = 0.6682 0.3858-0.1848 (  4702 PWs)   bands (ev):

   -32.3438 -32.3438 -16.5321 -16.5321 -14.1126 -14.1126 -14.0594 -14.0594
   -13.3570 -13.3570 -12.6412 -12.6412 -12.5740 -12.5740  -2.2058  -2.2058
    -0.8642  -0.8642  -0.4946  -0.4946  -0.3205  -0.3205   2.8211   2.8211
     3.3105   3.3105   3.4859   3.4859   3.7135   3.7135   5.0945   5.0945

          k =-0.2227 0.1286 0.1232 (  4690 PWs)   bands (ev):

   -32.3528 -32.3364 -16.5742 -16.5629 -14.1598 -14.1531 -13.7610 -13.7016
   -13.4834 -13.3895 -12.9414 -12.8396 -12.4616 -12.4495  -2.5129  -2.3351
    -1.0576  -0.8795  -0.8476  -0.6343  -0.5392   0.0531   3.0150   3.0969
     3.4468   3.4907   3.6435   3.7330   4.0429   4.1810   4.6676   4.8941

          k =-0.4454-0.0000 0.1848 (  4698 PWs)   bands (ev):

   -32.3499 -32.3385 -16.5876 -16.5137 -14.2320 -14.1443 -13.8575 -13.7951
   -13.4192 -13.3902 -12.8672 -12.7854 -12.4912 -12.4317  -2.3287  -2.3196
    -0.9116  -0.7831  -0.7409  -0.5799  -0.5227  -0.1098   3.0200   3.1243
     3.3123   3.3465   3.4595   3.5457   3.8151   4.0016   4.9480   4.9727

          k = 0.6682 0.6429-0.1232 (  4699 PWs)   bands (ev):

   -32.3454 -32.3422 -16.5446 -16.5222 -14.2560 -14.1056 -14.0269 -13.8730
   -13.3763 -13.3612 -12.8801 -12.6587 -12.5424 -12.4048  -2.2110  -2.1916
    -0.8599  -0.8257  -0.6151  -0.4953  -0.3460  -0.2272   2.8412   2.9296
     3.2008   3.2647   3.3625   3.4523   3.7412   3.8416   5.1040   5.1246

          k = 0.4454 0.5143-0.0616 (  4710 PWs)   bands (ev):

   -32.3466 -32.3410 -16.5784 -16.4839 -14.3100 -14.0918 -14.0631 -13.7641
   -13.4086 -13.3237 -12.9434 -12.6640 -12.5651 -12.3555  -2.2576  -2.1405
    -0.9303  -0.7309  -0.5709  -0.4887  -0.4569  -0.2101   2.7865   3.0261
     3.1363   3.2946   3.3344   3.4655   3.7936   3.8344   5.0460   5.1829

          k = 0.2227 0.3858 0.0000 (  4698 PWs)   bands (ev):

   -32.3508 -32.3377 -16.5920 -16.5065 -14.2325 -14.1505 -13.8867 -13.7644
   -13.4278 -13.3822 -12.8389 -12.8168 -12.4878 -12.4290  -2.3222  -2.3119
    -0.9533  -0.7802  -0.6926  -0.6678  -0.4998  -0.0840   3.0296   3.2063
     3.2158   3.3579   3.4576   3.5217   3.8717   4.0065   4.9527   4.9776

          k =-0.4454 0.2572 0.2464 (  4693 PWs)   bands (ev):

   -32.3490 -32.3392 -16.6233 -16.4638 -14.2707 -14.2633 -13.7140 -13.6769
   -13.4768 -13.3973 -12.9309 -12.9263 -12.4332 -12.3506  -2.4053  -2.1722
    -0.8986  -0.7398  -0.7275  -0.5081  -0.4347  -0.2124   2.8078   3.0231
     3.2157   3.4505   3.5013   3.6214   3.6563   3.9974   4.9049   5.0974

          k = 0.6682 0.9001-0.0616 (  4691 PWs)   bands (ev):

   -32.3466 -32.3410 -16.6077 -16.4577 -14.3575 -14.2132 -13.8242 -13.6512
   -13.4190 -13.3625 -13.1258 -12.7931 -12.4439 -12.2956  -2.3325  -2.0688
    -0.8856  -0.7644  -0.6536  -0.5009  -0.3125  -0.2115   2.6628   2.9282
     3.1548   3.3702   3.3830   3.4215   3.7616   3.9014   4.9882   5.2379

          k = 0.4454 0.7715 0.0000 (  4690 PWs)   bands (ev):

   -32.3437 -32.3437 -16.5292 -16.5289 -14.2559 -14.2223 -13.9161 -13.8342
   -13.4385 -13.3613 -12.8607 -12.8220 -12.4023 -12.3922  -2.1496  -2.1488
    -0.8833  -0.7425  -0.7030  -0.4761  -0.2837  -0.1970   2.8290   2.8493
     3.1556   3.1654   3.2859   3.3060   3.8291   3.8673   5.1778   5.1833

          k = 0.6682-0.3858-0.3696 (  4714 PWs)   bands (ev):

   -32.3470 -32.3406 -16.6472 -16.4085 -14.4026 -14.3509 -13.4771 -13.4419
   -13.4009 -13.3611 -13.2562 -13.2322 -12.3265 -12.2454  -2.4377  -1.9623
    -0.9571  -0.6934  -0.5811  -0.4894  -0.3113  -0.2541   2.5097   2.8595
     3.1680   3.3362   3.4805   3.5596   3.7995   3.8565   4.8742   5.3033

          k = 0.0000-0.0000 0.1848 (  4687 PWs)   bands (ev):

   -32.3535 -32.3364 -16.6047 -16.5535 -14.1779 -14.1779 -13.6425 -13.6425
   -13.3447 -13.2204 -13.1327 -13.1327 -12.4112 -12.4112  -2.6492  -2.3414
    -1.1040  -0.9330  -0.9330  -0.5926  -0.5926   0.1237   2.9853   2.9853
     3.5958   3.5958   3.8491   3.8491   4.2716   4.2716   4.3800   4.8216

          k =-0.2227-0.1286 0.2464 (  4688 PWs)   bands (ev):

   -32.3512 -32.3381 -16.5733 -16.5642 -14.2113 -14.0323 -13.9790 -13.5656
   -13.4642 -13.3262 -13.0581 -12.7027 -12.6029 -12.3975  -2.5325  -2.3456
    -0.9846  -0.8640  -0.7667  -0.6460  -0.5957  -0.0205   3.0510   3.1329
     3.4459   3.5113   3.6034   3.7418   4.0392   4.0821   4.6769   4.8732

          k = 0.8909 0.5143-0.0616 (  4696 PWs)   bands (ev):

   -32.3469 -32.3412 -16.5542 -16.5372 -14.2067 -14.1280 -14.0152 -13.7817
   -13.4078 -13.3381 -12.9101 -12.6395 -12.5844 -12.4245  -2.3696  -2.2151
    -0.8646  -0.8192  -0.6614  -0.5463  -0.4592  -0.1718   2.9541   3.0723
     3.2713   3.3802   3.4270   3.5536   3.7542   3.8357   4.9624   5.0381

          k = 0.6682 0.3858 0.0000 (  4707 PWs)   bands (ev):

   -32.3454 -32.3422 -16.5905 -16.4715 -14.2682 -14.2198 -13.8998 -13.8601
   -13.4076 -13.3068 -12.8324 -12.8305 -12.4605 -12.4042  -2.3229  -2.0858
    -0.9387  -0.7393  -0.5856  -0.4564  -0.3505  -0.2705   2.6747   2.9233
     3.1583   3.4192   3.4516   3.6045   3.6297   3.7758   4.9939   5.1939

          k = 0.4454 0.2572 0.0616 (  4711 PWs)   bands (ev):

   -32.3497 -32.3384 -16.6073 -16.4774 -14.2817 -14.1619 -13.9025 -13.7200
   -13.4405 -13.3692 -12.9225 -12.7238 -12.5497 -12.3707  -2.3456  -2.2196
    -0.9295  -0.7327  -0.7193  -0.5165  -0.5158  -0.1539   2.8755   3.1085
     3.1925   3.3919   3.4520   3.6008   3.7457   3.9725   4.9455   5.0659

          k =-0.2227 0.1286 0.3080 (  4694 PWs)   bands (ev):

   -32.3503 -32.3389 -16.5790 -16.5607 -14.1859 -14.0557 -13.9120 -13.6993
   -13.4504 -13.3544 -12.8904 -12.7743 -12.5541 -12.4613  -2.4935  -2.4040
    -0.9073  -0.8340  -0.7983  -0.6357  -0.5918  -0.0928   3.0772   3.1528
     3.3604   3.4621   3.6552   3.8214   3.9497   4.1287   4.6911   4.8345

          k = 0.8909 0.7715 0.0000 (  4694 PWs)   bands (ev):

   -32.3475 -32.3409 -16.5746 -16.5321 -14.2180 -14.1484 -13.8307 -13.8009
   -13.4544 -13.3802 -12.8686 -12.7752 -12.4892 -12.4426  -2.3408  -2.3355
    -0.8122  -0.7895  -0.7581  -0.5873  -0.4527  -0.1900   3.0142   3.0658
     3.3200   3.3871   3.4631   3.5909   3.7553   3.9438   4.9429   4.9605

          k = 0.6682 0.6429 0.0616 (  4685 PWs)   bands (ev):

   -32.3438 -32.3438 -16.5629 -16.5076 -14.2565 -14.1698 -13.9777 -13.7601
   -13.4243 -13.3960 -12.9103 -12.7231 -12.4890 -12.3744  -2.2774  -2.1288
    -0.8820  -0.7268  -0.7086  -0.5242  -0.2547  -0.2347   2.7750   2.8854
     3.1988   3.3188   3.3707   3.4481   3.7512   3.8204   5.0627   5.1671

          k = 0.4454 0.5143 0.1232 (  4697 PWs)   bands (ev):

   -32.3471 -32.3406 -16.6015 -16.4601 -14.3607 -14.1563 -13.9719 -13.6132
   -13.4351 -13.3186 -13.1112 -12.6881 -12.5381 -12.2966  -2.3088  -2.0885
    -0.9304  -0.7090  -0.5982  -0.5341  -0.3829  -0.2132   2.7061   3.0137
     3.1012   3.3409   3.3775   3.4524   3.7700   3.8846   5.0022   5.2255

          k = 0.8909-0.5143-0.3080 (  4693 PWs)   bands (ev):

   -32.3469 -32.3413 -16.6189 -16.4726 -14.3051 -14.2122 -13.8053 -13.5745
   -13.4668 -13.3456 -13.1039 -12.8583 -12.3940 -12.3696  -2.4353  -2.1581
    -0.8983  -0.7165  -0.6467  -0.5943  -0.3528  -0.2667   2.8055   2.9877
     3.2831   3.4247   3.4857   3.5706   3.6983   3.9375   4.8944   5.1000

          k = 0.6682-0.6429-0.2464 (  4688 PWs)   bands (ev):

   -32.3454 -32.3422 -16.5941 -16.4757 -14.2936 -14.2440 -13.8057 -13.7033
   -13.4417 -13.4392 -12.9396 -12.8647 -12.4031 -12.3468  -2.3216  -2.0840
    -0.8820  -0.7599  -0.6223  -0.5812  -0.2573  -0.2076   2.6874   2.8873
     3.2113   3.3002   3.4070   3.4253   3.7771   3.8472   5.0123   5.2163

          k = 0.4454-0.7715-0.1848 (  4698 PWs)   bands (ev):

   -32.3437 -32.3437 -16.5291 -16.5291 -14.2404 -14.2404 -13.8759 -13.8759
   -13.3985 -13.3985 -12.8408 -12.8408 -12.3971 -12.3971  -2.1492  -2.1492
    -0.8405  -0.8405  -0.5707  -0.5707  -0.2315  -0.2315   2.8387   2.8387
     3.1623   3.1623   3.2938   3.2938   3.8488   3.8488   5.1805   5.1805

          k = 0.6682-0.3858-0.1848 (  4703 PWs)   bands (ev):

   -32.3466 -32.3410 -16.6322 -16.4257 -14.3682 -14.3175 -13.6534 -13.6309
   -13.4442 -13.2703 -13.0997 -13.0618 -12.3607 -12.2861  -2.4071  -1.9958
    -0.9593  -0.6741  -0.5707  -0.5384  -0.2840  -0.2781   2.5554   2.8983
     3.1290   3.4012   3.4895   3.5356   3.7558   3.8261   4.9096   5.2727

          k = 0.0000-0.0000 0.3696 (  4678 PWs)   bands (ev):

   -32.3498 -32.3400 -16.5951 -16.5656 -14.1059 -14.1059 -13.8302 -13.8302
   -13.3164 -13.2446 -12.9062 -12.9062 -12.5230 -12.5230  -2.6130  -2.4458
    -0.8640  -0.8640  -0.8213  -0.6681  -0.6681  -0.1216   3.1192   3.1192
     3.4715   3.4715   3.9281   3.9281   4.1662   4.1662   4.4675   4.7163

          k = 1.1136 0.6429 0.0616 (  4698 PWs)   bands (ev):

   -32.3475 -32.3418 -16.5786 -16.5615 -14.1771 -14.0708 -13.9531 -13.7064
   -13.3931 -13.3006 -12.9566 -12.6960 -12.6299 -12.4537  -2.5188  -2.4067
    -0.8183  -0.8163  -0.7217  -0.6782  -0.5679  -0.2332   3.1291   3.2177
     3.3638   3.3768   3.7041   3.8532   3.8997   4.0217   4.7069   4.8080

          k = 0.8909 0.5143 0.1232 (  4690 PWs)   bands (ev):

   -32.3441 -32.3441 -16.5939 -16.4997 -14.2848 -14.1214 -13.9784 -13.6098
   -13.4459 -13.3168 -13.0841 -12.7299 -12.4959 -12.3662  -2.4228  -2.1740
    -0.8750  -0.7376  -0.6940  -0.5644  -0.3437  -0.2616   2.8602   3.0269
     3.3100   3.3765   3.4338   3.6303   3.7071   3.8360   4.9171   5.0759

          k = 1.1136-0.6429-0.2464 (  4696 PWs)   bands (ev):

   -32.3463 -32.3430 -16.5808 -16.5604 -14.1775 -14.0368 -13.9433 -13.7760
   -13.3760 -13.3173 -12.9094 -12.6735 -12.6364 -12.4901  -2.4744  -2.4598
    -0.8063  -0.7724  -0.7376  -0.6870  -0.4976  -0.3269   3.1927   3.2093
     3.2968   3.3584   3.7360   3.8474   3.9057   4.0184   4.7414   4.7631

          k = 0.8909-0.7715-0.1848 (  4688 PWs)   bands (ev):

   -32.3442 -32.3442 -16.5547 -16.5547 -14.1829 -14.1829 -13.8071 -13.8071
   -13.4277 -13.4277 -12.8187 -12.8187 -12.4663 -12.4663  -2.3450  -2.3450
    -0.7845  -0.7845  -0.6814  -0.6814  -0.3147  -0.3147   3.0311   3.0311
     3.3398   3.3398   3.5432   3.5432   3.8346   3.8346   4.9477   4.9477

          k =-0.0000 0.0000-0.5544 (  4728 PWs)   bands (ev):

   -32.3449 -32.3449 -16.5810 -16.5810 -13.9885 -13.9885 -13.9885 -13.9885
   -13.2795 -13.2795 -12.6945 -12.6945 -12.6945 -12.6945  -2.5446  -2.5446
    -0.7677  -0.7677  -0.7677  -0.7677  -0.4642  -0.4642   3.2981   3.2981
     3.2981   3.2981   4.0401   4.0401   4.0401   4.0401   4.5880   4.5880

     highest occupied level (ev):     5.3033

!    total energy              =    -367.40567591 Ry
     Harris-Foulkes estimate   =    -367.40567591 Ry
     estimated scf accuracy    <          1.6E-10 Ry

     The total energy is the sum of the following terms:

     one-electron contribution =    -134.91391408 Ry
     hartree contribution      =      98.98039604 Ry
     xc contribution           =     -75.57213213 Ry
     ewald contribution        =    -255.90002574 Ry

     convergence has been achieved in   6 iterations

     Forces acting on atoms (cartesian axes, Ry/au):

     atom    1 type  1   force =     0.00000000   -0.00000000    0.00000000
     atom    2 type  1   force =     0.00000000   -0.00000000   -0.00000000
     atom    3 type  2   force =     0.00000000    0.00000000    0.00000000
     atom    4 type  2   force =     0.00000000    0.00000000    0.00000000
     atom    5 type  3   force =    -0.00001367    0.00002367    0.00000000
     atom    6 type  3   force =     0.00002733   -0.00000000    0.00000000
     atom    7 type  3   force =    -0.00001367   -0.00002367   -0.00000000
     atom    8 type  3   force =    -0.00002733   -0.00000000    0.00000000
     atom    9 type  3   force =     0.00001367    0.00002367    0.00000000
     atom   10 type  3   force =     0.00001367   -0.00002367   -0.00000000

     Total force =     0.000067     Total SCF correction =     0.000034
     SCF correction compared to forces is large: reduce conv_thr to get better values


     Computing stress (Cartesian axis) and pressure

          total   stress  (Ry/bohr**3)                   (kbar)     P=   87.00
   0.00070660  -0.00000000   0.00000000        103.94     -0.00      0.00
  -0.00000000   0.00070660   0.00000000         -0.00    103.94      0.00
   0.00000000   0.00000000   0.00036100          0.00      0.00     53.10


     bfgs converged in   5 scf cycles and   4 bfgs steps
     (criteria: energy <  1.0E-04 Ry, force <  1.0E-03 Ry/Bohr)

     End of BFGS Geometry Optimization

     Final energy   =    -367.4056759092 Ry
Begin final coordinates

ATOMIC_POSITIONS (crystal)
Ca       0.500000000   0.500000000   0.500000000
Ca       0.000000000   0.000000000   0.000000000
C        0.250000000   0.250000000   0.250000000
C        0.750000000   0.750000000   0.750000000
O        0.517530054   0.982469946   0.250000000
O        0.982469946   0.250000000   0.517530054
O        0.250000000   0.517530054   0.982469946
O        0.017530054   0.750000000   0.482469946
O        0.750000000   0.482469946   0.017530054
O        0.482469946   0.017530054   0.750000000
End final coordinates



     Writing output data file CCO.save/
 
     init_run     :      3.66s CPU      4.26s WALL (       1 calls)
     electrons    :    447.95s CPU    502.98s WALL (       5 calls)
     update_pot   :      1.07s CPU      1.08s WALL (       4 calls)
     forces       :      2.49s CPU      2.59s WALL (       5 calls)
     stress       :      4.81s CPU      4.85s WALL (       5 calls)

     Called by init_run:
     wfcinit      :      3.01s CPU      3.48s WALL (       1 calls)
     potinit      :      0.12s CPU      0.13s WALL (       1 calls)
     hinit0       :      0.29s CPU      0.35s WALL (       1 calls)

     Called by electrons:
     c_bands      :    415.65s CPU    468.11s WALL (      43 calls)
     sum_band     :     28.37s CPU     30.25s WALL (      43 calls)
     v_of_rho     :      2.34s CPU      2.38s WALL (      47 calls)
     newd         :      1.30s CPU      1.40s WALL (      47 calls)
     mix_rho      :      0.28s CPU      0.29s WALL (      43 calls)

     Called by c_bands:
     init_us_2    :      0.74s CPU      0.88s WALL (    3104 calls)
     ccgdiagg     :    340.31s CPU    377.59s WALL (    1414 calls)
     wfcrot       :     77.44s CPU     91.44s WALL (    1254 calls)

     Called by sum_band:
     sum_band:bec :      0.34s CPU      0.37s WALL (    1376 calls)
     addusdens    :      1.22s CPU      1.32s WALL (      43 calls)

     Called by *cgdiagg:
     h_psi        :    295.25s CPU    321.94s WALL (  156482 calls)
     s_psi        :     19.99s CPU     23.18s WALL (  311710 calls)
     cdiaghg      :     25.90s CPU     36.17s WALL (    1254 calls)

     Called by h_psi:
     h_psi:pot    :    290.81s CPU    316.65s WALL (  156482 calls)
     h_psi:calbec :     28.58s CPU     31.49s WALL (  156482 calls)
     vloc_psi     :    242.83s CPU    263.94s WALL (  156482 calls)
     add_vuspsi   :     13.78s CPU     15.44s WALL (  156482 calls)
     hs_1psi      :    269.09s CPU    294.89s WALL (  155228 calls)
     s_1psi       :     32.18s CPU     37.13s WALL (  155228 calls)

     General routines
     calbec       :     41.72s CPU     47.35s WALL (  313886 calls)
     fft          :      2.22s CPU      2.30s WALL (     731 calls)
     ffts         :      0.10s CPU      0.11s WALL (      90 calls)
     fftw         :    252.86s CPU    273.92s WALL (  436024 calls)
     interpolate  :      0.21s CPU      0.24s WALL (      47 calls)
 
     Parallel routines
     fft_scatt_xy :     13.56s CPU     14.56s WALL (  436845 calls)
     fft_scatt_yz :    181.50s CPU    196.71s WALL (  436845 calls)
 
     PWSCF        :   7m42.10s CPU   8m40.24s WALL

 
   This run was terminated on:   9:35:23   1May2022            

=------------------------------------------------------------------------------=
   JOB DONE.
=------------------------------------------------------------------------------=
