
     Program PWSCF v.6.4.1 starts on  1May2022 at  9:16:17 

     This program is part of the open-source Quantum ESPRESSO suite
     for quantum simulation of materials; please cite
         "P. Giannozzi et al., J. Phys.:Condens. Matter 21 395502 (2009);
         "P. Giannozzi et al., J. Phys.:Condens. Matter 29 465901 (2017);
          URL http://www.quantum-espresso.org", 
     in publications or presentations arising from this work. More details at
     http://www.quantum-espresso.org/quote

     Parallel version (MPI & OpenMP), running on      68 processor cores
     Number of MPI processes:                68
     Threads/MPI process:                     1

     MPI processes distributed on     1 nodes
     R & G space division:  proc/nbgrp/npool/nimage =      68
     Waiting for input...
     Reading input from standard input
Warning: card &CELL ignored
Warning: card  CELL_DYNAMICS = 'BFGS', ignored
Warning: card  PRESS=0.1D0, ignored
Warning: card / ignored

     Current dimensions of program PWSCF are:
     Max number of different atomic species (ntypx) = 10
     Max number of k-points (npk) =  40000
     Max angular momentum in pseudopotentials (lmaxx) =  3

     Subspace diagonalization in iterative solution of the eigenvalue problem:
     one sub-group per band group will be used
     scalapack distributed-memory algorithm (size of sub-group:  5*  5 procs)

 
     Parallelization info
     --------------------
     sticks:   dense  smooth     PW     G-vecs:    dense   smooth      PW
     Min          79      26      7                 3484      669     104
     Max          80      27      8                 3486      673     109
     Sum        5381    1787    523               236969    45611    7275
 


     bravais-lattice index     =            5
     lattice parameter (alat)  =      12.1600  a.u.
     unit-cell volume          =     954.4050 (a.u.)^3
     number of atoms/cell      =           10
     number of atomic types    =            3
     number of electrons       =        64.00
     number of Kohn-Sham states=           32
     kinetic-energy cutoff     =      50.0000  Ry
     charge density cutoff     =     600.0000  Ry
     convergence threshold     =      1.0E-08
     mixing beta               =       0.7000
     number of iterations used =            8  plain     mixing
     Exchange-correlation      = SLA  PW   PBE  PBE ( 1  4  3  4 0 0)
     nstep                     =           50


     celldm(1)=  12.160000  celldm(2)=   0.000000  celldm(3)=   0.000000
     celldm(4)=   0.650000  celldm(5)=   0.000000  celldm(6)=   0.000000

     crystal axes: (cart. coord. in units of alat)
               a(1) = (   0.418330  -0.241523   0.875595 )  
               a(2) = (   0.000000   0.483046   0.875595 )  
               a(3) = (  -0.418330  -0.241523   0.875595 )  

     reciprocal axes: (cart. coord. in units 2 pi/alat)
               b(1) = (  1.195229 -0.690066  0.380693 )  
               b(2) = ( -0.000000  1.380131  0.380693 )  
               b(3) = ( -1.195229 -0.690066  0.380693 )  


     PseudoPot. # 1 for Ca read from file:
     ./Ca_PBE.UPF
     MD5 check sum: 403a4c14b9e4d4dfdc3024c9a3812218
     Pseudo is Ultrasoft + core correction, Zval = 10.0
     Generated by new atomic code, or converted to UPF format
     Using radial grid of  845 points,  6 beta functions with: 
                l(1) =   0
                l(2) =   0
                l(3) =   1
                l(4) =   1
                l(5) =   2
                l(6) =   2
     Q(r) pseudized with  8 coefficients,  rinner =    1.500   1.500   1.500
                                                       1.500   1.500

     PseudoPot. # 2 for C  read from file:
     ./C_PBE.UPF
     MD5 check sum: d1aef80898a10debaa0f26306b886e00
     Pseudo is Ultrasoft + core correction, Zval =  4.0
     Generated by new atomic code, or converted to UPF format
     Using radial grid of  721 points,  4 beta functions with: 
                l(1) =   0
                l(2) =   0
                l(3) =   1
                l(4) =   1
     Q(r) pseudized with  8 coefficients,  rinner =    1.100   1.100   1.100


     PseudoPot. # 3 for O  read from file:
     ./O_PBE.UPF
     MD5 check sum: 734c27235a0248c51dbae37a1fbe46ec
     Pseudo is Ultrasoft + core correction, Zval =  6.0
     Generated by new atomic code, or converted to UPF format
     Using radial grid of  737 points,  5 beta functions with: 
                l(1) =   0
                l(2) =   0
                l(3) =   1
                l(4) =   1
                l(5) =   2
     Q(r) pseudized with  8 coefficients,  rinner =    0.900   0.900   0.900
                                                       0.900   0.900

     atomic species   valence    mass     pseudopotential
        Ca            10.00    40.07800     Ca( 1.00)
        C              4.00    12.01070     C ( 1.00)
        O              6.00    16.00000     O ( 1.00)

     12 Sym. Ops., with inversion, found ( 6 have fractional translation)



   Cartesian axes

     site n.     atom                  positions (alat units)
         1           Ca  tau(   1) = (   0.0000000  -0.0000000   1.3133926  )
         2           Ca  tau(   2) = (   0.0000000   0.0000000   0.0000000  )
         3           C   tau(   3) = (   0.0000000  -0.0000000   0.6566963  )
         4           C   tau(   4) = (   0.0000000  -0.0000000   1.9700888  )
         5           O   tau(   5) = (   0.1075179   0.2968194   1.5322913  )
         6           O   tau(   6) = (   0.2032942  -0.2415229   1.5322913  )
         7           O   tau(   7) = (  -0.3108121  -0.0552965   1.5322913  )
         8           O   tau(   8) = (  -0.2032942   0.2415229   1.0944938  )
         9           O   tau(   9) = (   0.3108121   0.0552965   1.0944938  )
        10           O   tau(  10) = (  -0.1075179  -0.2968194   1.0944938  )

     number of k points=    32
                       cart. coord. in units 2pi/alat
        k(    1) = (   0.0000000   0.0000000   0.0000000), wk =   0.0092593
        k(    2) = (  -0.1992048  -0.1150109   0.0634489), wk =   0.0555556
        k(    3) = (  -0.3984095  -0.2300219   0.1268978), wk =   0.0555556
        k(    4) = (   0.5976143   0.3450328  -0.1903467), wk =   0.0277778
        k(    5) = (  -0.1992048   0.1150109   0.1268978), wk =   0.0555556
        k(    6) = (  -0.3984095  -0.0000000   0.1903467), wk =   0.1111111
        k(    7) = (   0.5976143   0.5750546  -0.1268978), wk =   0.1111111
        k(    8) = (   0.3984095   0.4600437  -0.0634489), wk =   0.1111111
        k(    9) = (   0.1992048   0.3450328   0.0000000), wk =   0.0555556
        k(   10) = (  -0.3984095   0.2300219   0.2537957), wk =   0.0555556
        k(   11) = (   0.5976143   0.8050765  -0.0634489), wk =   0.1111111
        k(   12) = (   0.3984095   0.6900656   0.0000000), wk =   0.0555556
        k(   13) = (   0.5976143  -0.3450328  -0.3806935), wk =   0.0277778
        k(   14) = (  -0.0000000  -0.0000000   0.1903467), wk =   0.0185185
        k(   15) = (  -0.1992048  -0.1150109   0.2537957), wk =   0.0555556
        k(   16) = (   0.7968191   0.4600437  -0.0634489), wk =   0.0555556
        k(   17) = (   0.5976143   0.3450328   0.0000000), wk =   0.0555556
        k(   18) = (   0.3984095   0.2300219   0.0634489), wk =   0.0555556
        k(   19) = (  -0.1992048   0.1150109   0.3172446), wk =   0.0555556
        k(   20) = (   0.7968191   0.6900656   0.0000000), wk =   0.1111111
        k(   21) = (   0.5976143   0.5750546   0.0634489), wk =   0.1111111
        k(   22) = (   0.3984095   0.4600437   0.1268978), wk =   0.1111111
        k(   23) = (   0.7968191  -0.4600437  -0.3172446), wk =   0.0555556
        k(   24) = (   0.5976143  -0.5750546  -0.2537957), wk =   0.1111111
        k(   25) = (   0.3984095  -0.6900656  -0.1903467), wk =   0.0555556
        k(   26) = (   0.5976143  -0.3450328  -0.1903467), wk =   0.0555556
        k(   27) = (  -0.0000000  -0.0000000   0.3806935), wk =   0.0185185
        k(   28) = (   0.9960238   0.5750546   0.0634489), wk =   0.0555556
        k(   29) = (   0.7968191   0.4600437   0.1268978), wk =   0.0555556
        k(   30) = (   0.9960238  -0.5750546  -0.2537957), wk =   0.0555556
        k(   31) = (   0.7968191  -0.6900656  -0.1903467), wk =   0.0555556
        k(   32) = (   0.0000000   0.0000000  -0.5710402), wk =   0.0092593

     Dense  grid:   236969 G-vectors     FFT dimensions: (  96,  96,  96)

     Smooth grid:    45611 G-vectors     FFT dimensions: (  60,  60,  60)

     Estimated max dynamical RAM per process >      27.25 MB

     Estimated total dynamical RAM >       1.81 GB

     Check: negative core charge=   -0.000003

     Initial potential from superposition of free atoms

     starting charge   63.98899, renormalised to   64.00000
     Starting wfcs are   52 randomized atomic wfcs

     total cpu time spent up to now is        8.1 secs

     Self-consistent Calculation

     iteration #  1     ecut=    50.00 Ry     beta= 0.70
     CG style diagonalization
     ethr =  1.00E-02,  avg # of iterations =  2.4

     total cpu time spent up to now is       15.7 secs

     total energy              =    -366.45433540 Ry
     Harris-Foulkes estimate   =    -367.74340502 Ry
     estimated scf accuracy    <       1.81991362 Ry

     iteration #  2     ecut=    50.00 Ry     beta= 0.70
     CG style diagonalization
     ethr =  2.84E-03,  avg # of iterations =  4.4

     total cpu time spent up to now is       27.8 secs

     total energy              =    -366.84194091 Ry
     Harris-Foulkes estimate   =    -368.02267740 Ry
     estimated scf accuracy    <       2.63252234 Ry

     iteration #  3     ecut=    50.00 Ry     beta= 0.70
     CG style diagonalization
     ethr =  2.84E-03,  avg # of iterations =  3.8

     total cpu time spent up to now is       38.3 secs

     total energy              =    -367.30679739 Ry
     Harris-Foulkes estimate   =    -367.31298826 Ry
     estimated scf accuracy    <       0.01692456 Ry

     iteration #  4     ecut=    50.00 Ry     beta= 0.70
     CG style diagonalization
     ethr =  2.64E-05,  avg # of iterations =  4.5

     total cpu time spent up to now is       50.7 secs

     total energy              =    -367.32219763 Ry
     Harris-Foulkes estimate   =    -367.32494145 Ry
     estimated scf accuracy    <       0.00661870 Ry

     iteration #  5     ecut=    50.00 Ry     beta= 0.70
     CG style diagonalization
     ethr =  1.03E-05,  avg # of iterations =  3.6

     total cpu time spent up to now is       60.5 secs

     total energy              =    -367.32319348 Ry
     Harris-Foulkes estimate   =    -367.32323416 Ry
     estimated scf accuracy    <       0.00020406 Ry

     iteration #  6     ecut=    50.00 Ry     beta= 0.70
     CG style diagonalization
     ethr =  3.19E-07,  avg # of iterations =  4.2

     total cpu time spent up to now is       72.1 secs

     total energy              =    -367.32328371 Ry
     Harris-Foulkes estimate   =    -367.32328932 Ry
     estimated scf accuracy    <       0.00001356 Ry

     iteration #  7     ecut=    50.00 Ry     beta= 0.70
     CG style diagonalization
     ethr =  2.12E-08,  avg # of iterations =  4.3

     total cpu time spent up to now is       84.0 secs

     total energy              =    -367.32329298 Ry
     Harris-Foulkes estimate   =    -367.32329348 Ry
     estimated scf accuracy    <       0.00000110 Ry

     iteration #  8     ecut=    50.00 Ry     beta= 0.70
     CG style diagonalization
     ethr =  1.71E-09,  avg # of iterations =  4.2

     total cpu time spent up to now is       95.5 secs

     total energy              =    -367.32329347 Ry
     Harris-Foulkes estimate   =    -367.32329352 Ry
     estimated scf accuracy    <       0.00000010 Ry

     iteration #  9     ecut=    50.00 Ry     beta= 0.70
     CG style diagonalization
     ethr =  1.51E-10,  avg # of iterations =  4.4

     total cpu time spent up to now is      107.5 secs

     End of self-consistent calculation

          k = 0.0000 0.0000 0.0000 (  5711 PWs)   bands (ev):

   -35.2364 -35.2290 -16.9500 -16.7740 -16.3839 -16.3839 -16.2332 -16.2332
   -16.2054 -15.8794 -14.1907 -14.1907 -13.8955 -13.8955  -4.2905  -4.1771
    -2.0210  -2.0210  -1.8893  -1.8893  -1.7700  -0.4934   1.6263   1.6263
     1.9060   1.9060   2.0177   2.0177   2.7341   2.7666   2.7666   3.1365

          k =-0.1992-0.1150 0.0634 (  5708 PWs)   bands (ev):

   -35.2359 -35.2295 -16.9067 -16.8626 -16.3804 -16.3226 -16.2529 -16.2212
   -16.1525 -15.9546 -14.1696 -14.1303 -13.9571 -13.9147  -4.2250  -4.1825
    -1.9969  -1.9855  -1.9170  -1.8771  -1.6586  -0.6042   1.6451   1.6930
     1.8267   1.8341   1.9475   1.9597   2.6293   2.6619   2.9258   3.1247

          k =-0.3984-0.2300 0.1269 (  5694 PWs)   bands (ev):

   -35.2345 -35.2308 -16.9317 -16.8495 -16.3663 -16.3134 -16.3084 -16.2571
   -16.0210 -16.0042 -14.1204 -14.0554 -14.0468 -13.9704  -4.1584  -4.1182
    -2.0273  -1.9525  -1.8708  -1.8410  -1.3890  -0.8236   1.4941   1.5682
     1.6916   1.7354   1.9780   2.0673   2.4606   2.4744   3.1214   3.1256

          k = 0.5976 0.3450-0.1903 (  5700 PWs)   bands (ev):

   -35.2326 -35.2326 -16.8951 -16.8951 -16.3227 -16.3227 -16.3142 -16.3142
   -15.9911 -15.9911 -14.0695 -14.0695 -14.0346 -14.0346  -4.1030  -4.1030
    -2.0116  -2.0116  -1.8183  -1.8183  -1.0790  -1.0790   1.3998   1.3998
     1.6926   1.6926   2.0879   2.0879   2.3749   2.3749   3.1635   3.1635

          k =-0.1992 0.1150 0.1269 (  5713 PWs)   bands (ev):

   -35.2358 -35.2296 -16.8999 -16.8770 -16.3600 -16.3451 -16.2309 -16.2127
   -16.1568 -15.9728 -14.1510 -14.1372 -13.9513 -13.9305  -4.2200  -4.1916
    -1.9984  -1.9845  -1.9251  -1.8615  -1.6359  -0.6276   1.6554   1.6712
     1.8088   1.8356   1.9144   2.0443   2.5719   2.7002   2.9203   3.1106

          k =-0.3984-0.0000 0.1903 (  5703 PWs)   bands (ev):

   -35.2348 -35.2305 -16.9419 -16.8475 -16.3653 -16.3382 -16.2537 -16.2318
   -16.0461 -16.0286 -14.1216 -14.1003 -14.0019 -13.9628  -4.1816  -4.1326
    -2.0211  -1.9426  -1.9066  -1.8323  -1.4379  -0.7887   1.5295   1.6293
     1.7235   1.7502   1.9103   2.1001   2.4036   2.5831   3.0922   3.1053

          k = 0.5976 0.5751-0.1269 (  5699 PWs)   bands (ev):

   -35.2332 -35.2320 -16.9150 -16.8885 -16.3670 -16.3111 -16.2836 -16.2677
   -16.0104 -16.0000 -14.1241 -14.0766 -14.0291 -13.9810  -4.1090  -4.0973
    -2.0063  -1.9970  -1.8516  -1.8054  -1.1649  -0.9778   1.3867   1.4300
     1.6845   1.6921   1.9872   2.0730   2.3650   2.4604   3.1663   3.1786

          k = 0.3984 0.4600-0.0634 (  5699 PWs)   bands (ev):

   -35.2337 -35.2315 -16.9623 -16.8216 -16.3762 -16.3231 -16.3171 -16.2352
   -16.0607 -15.9466 -14.1419 -14.0790 -14.0111 -13.9793  -4.1446  -4.0592
    -2.0620  -1.9201  -1.8598  -1.8113  -1.2291  -0.9322   1.3449   1.4934
     1.6388   1.7143   1.9425   2.1086   2.4049   2.4554   3.1315   3.2166

          k = 0.1992 0.3450 0.0000 (  5705 PWs)   bands (ev):

   -35.2351 -35.2302 -16.9451 -16.8345 -16.3561 -16.3558 -16.2724 -16.2169
   -16.0521 -16.0217 -14.1251 -14.1087 -13.9948 -13.9565  -4.1823  -4.1257
    -2.0346  -1.9203  -1.9066  -1.8420  -1.4989  -0.7448   1.5366   1.6699
     1.7099   1.7379   1.8711   2.0728   2.4803   2.5796   3.0979   3.1121

          k =-0.3984 0.2300 0.2538 (  5702 PWs)   bands (ev):

   -35.2345 -35.2308 -17.0093 -16.7647 -16.3896 -16.3324 -16.2262 -16.2131
   -16.1595 -15.9524 -14.1526 -14.0858 -13.9990 -13.9600  -4.2153  -4.0639
    -2.0835  -1.9248  -1.8450  -1.7988  -1.3594  -0.8677   1.3923   1.5973
     1.7038   1.8319   1.8734   2.2185   2.2308   2.5967   3.0471   3.1744

          k = 0.5976 0.8051-0.0634 (  5698 PWs)   bands (ev):

   -35.2337 -35.2315 -17.0098 -16.7815 -16.4005 -16.2921 -16.2440 -16.2288
   -16.1571 -15.9230 -14.1800 -14.0753 -14.0125 -13.9496  -4.1773  -4.0272
    -2.0740  -1.9476  -1.8321  -1.7773  -1.1967  -0.9552   1.2861   1.4684
     1.7215   1.7926   1.8988   2.0083   2.3502   2.5278   3.0820   3.2504

          k = 0.3984 0.6901 0.0000 (  5690 PWs)   bands (ev):

   -35.2326 -35.2326 -16.9130 -16.9105 -16.3664 -16.3163 -16.2768 -16.2147
   -16.0274 -16.0128 -14.1283 -14.1271 -13.9834 -13.9823  -4.0836  -4.0835
    -2.0307  -1.9721  -1.8561  -1.7863  -1.0549  -1.0437   1.3374   1.3443
     1.6876   1.7187   1.9220   1.9743   2.4170   2.4715   3.2021   3.2052

          k = 0.5976-0.3450-0.3807 (  5686 PWs)   bands (ev):

   -35.2338 -35.2314 -17.0605 -16.6394 -16.4174 -16.4117 -16.2224 -16.2137
   -16.2124 -15.8487 -14.2150 -14.1081 -13.9718 -13.9332  -4.2249  -3.9761
    -2.1310  -1.9065  -1.7946  -1.7619  -1.2074  -0.9784   1.2276   1.4706
     1.7757   1.8571   1.8969   1.9479   2.3524   2.5368   3.0053   3.2956

          k =-0.0000-0.0000 0.1903 (  5691 PWs)   bands (ev):

   -35.2359 -35.2295 -16.9431 -16.7943 -16.3750 -16.3750 -16.2446 -16.2446
   -16.1749 -15.8961 -14.1697 -14.1697 -13.9142 -13.9142  -4.2903  -4.1936
    -2.0105  -2.0105  -1.8967  -1.8967  -1.6805  -0.5756   1.6394   1.6394
     1.8630   1.8630   2.0855   2.0855   2.7143   2.7143   2.7567   3.1014

          k =-0.1992-0.1150 0.2538 (  5716 PWs)   bands (ev):

   -35.2352 -35.2302 -16.9130 -16.8601 -16.3774 -16.3161 -16.2917 -16.2200
   -16.1224 -15.9527 -14.1531 -14.1026 -13.9860 -13.9302  -4.2348  -4.1908
    -1.9962  -1.9589  -1.9123  -1.9025  -1.5306  -0.7122   1.6354   1.7001
     1.7816   1.8171   1.9594   2.1188   2.5398   2.6080   2.9293   3.0913

          k = 0.7968 0.4600-0.0634 (  5688 PWs)   bands (ev):

   -35.2337 -35.2316 -16.9200 -16.8727 -16.3611 -16.3223 -16.3047 -16.2442
   -16.0560 -15.9661 -14.1084 -14.0769 -14.0416 -13.9708  -4.1629  -4.1219
    -2.0177  -1.9550  -1.8616  -1.8576  -1.2726  -0.9104   1.4852   1.5434
     1.7272   1.7367   1.9597   2.1733   2.3378   2.4547   3.0872   3.1440

          k = 0.5976 0.3450 0.0000 (  5701 PWs)   bands (ev):

   -35.2332 -35.2320 -16.9829 -16.7896 -16.3702 -16.3612 -16.2715 -16.2666
   -16.0844 -15.9148 -14.1389 -14.0733 -14.0037 -13.9971  -4.1644  -4.0403
    -2.0878  -1.9049  -1.8573  -1.7931  -1.1453  -1.0200   1.3120   1.4744
     1.6482   1.7734   1.9521   2.2402   2.2641   2.4327   3.0970   3.2249

          k = 0.3984 0.2300 0.0634 (  5716 PWs)   bands (ev):

   -35.2348 -35.2305 -16.9810 -16.7896 -16.3706 -16.3554 -16.2605 -16.2290
   -16.0927 -15.9728 -14.1432 -14.0635 -14.0246 -13.9615  -4.1923  -4.0815
    -2.0684  -1.9230  -1.8428  -1.8365  -1.4252  -0.8102   1.4291   1.6357
     1.6703   1.7883   1.8504   2.1655   2.3773   2.5668   3.0853   3.1554

          k =-0.1992 0.1150 0.3172 (  5701 PWs)   bands (ev):

   -35.2348 -35.2306 -16.8958 -16.8922 -16.3647 -16.3220 -16.2491 -16.2379
   -16.0976 -15.9976 -14.1209 -14.1041 -13.9743 -13.9693  -4.2200  -4.2137
    -2.0031  -1.9613  -1.9290  -1.8629  -1.4677  -0.7768   1.6540   1.6579
     1.7815   1.7859   2.0206   2.1817   2.4371   2.6413   2.9344   3.0568

          k = 0.7968 0.6901 0.0000 (  5698 PWs)   bands (ev):

   -35.2339 -35.2314 -16.9306 -16.8776 -16.3640 -16.3160 -16.2616 -16.2188
   -16.0472 -16.0346 -14.1092 -14.0866 -14.0130 -13.9808  -4.1774  -4.1492
    -2.0029  -1.9731  -1.8902  -1.8289  -1.2851  -0.9131   1.5182   1.5620
     1.7491   1.8081   1.9429   2.1617   2.3014   2.5284   3.0813   3.0914

          k = 0.5976 0.5751 0.0634 (  5683 PWs)   bands (ev):

   -35.2326 -35.2326 -16.9521 -16.8639 -16.3545 -16.3322 -16.2601 -16.2288
   -16.0767 -15.9724 -14.1382 -14.0820 -14.0222 -13.9714  -4.1364  -4.0715
    -2.0549  -1.9423  -1.8551  -1.7976  -1.0830  -1.0486   1.3527   1.4151
     1.7130   1.7656   1.9274   2.0565   2.3727   2.4366   3.1345   3.2036

          k = 0.3984 0.4600 0.1269 (  5687 PWs)   bands (ev):

   -35.2338 -35.2314 -16.9970 -16.7794 -16.3978 -16.3255 -16.2854 -16.2167
   -16.1166 -15.9214 -14.1732 -14.0458 -14.0423 -13.9532  -4.1695  -4.0334
    -2.0822  -1.9116  -1.8324  -1.8130  -1.2401  -0.9252   1.3037   1.5039
     1.6516   1.7567   1.8950   2.1091   2.3673   2.5029   3.0984   3.2432

          k = 0.7968-0.4600-0.3172 (  5694 PWs)   bands (ev):

   -35.2337 -35.2316 -17.0089 -16.7776 -16.4027 -16.2892 -16.2306 -16.2251
   -16.1710 -15.9375 -14.1416 -14.1046 -13.9797 -13.9762  -4.2192  -4.0681
    -2.0844  -1.9175  -1.8464  -1.8016  -1.2202  -0.9799   1.3894   1.5419
     1.7811   1.8399   1.9482   2.0656   2.2842   2.5402   3.0321   3.1765

          k = 0.5976-0.5751-0.2538 (  5683 PWs)   bands (ev):

   -35.2332 -35.2320 -16.9950 -16.8161 -16.3768 -16.3156 -16.2182 -16.2161
   -16.1564 -15.9432 -14.1610 -14.0955 -13.9949 -13.9657  -4.1655  -4.0415
    -2.0692  -1.9520  -1.8194  -1.7943  -1.1263  -1.0102   1.3023   1.4340
     1.7717   1.8078   1.8974   1.9622   2.3705   2.4809   3.0966   3.2353

          k = 0.3984-0.6901-0.1903 (  5694 PWs)   bands (ev):

   -35.2326 -35.2326 -16.9118 -16.9118 -16.3484 -16.3484 -16.2392 -16.2392
   -16.0196 -16.0196 -14.1277 -14.1277 -13.9828 -13.9828  -4.0835  -4.0835
    -2.0068  -2.0068  -1.8159  -1.8159  -1.0492  -1.0492   1.3408   1.3408
     1.7027   1.7027   1.9472   1.9472   2.4458   2.4458   3.2036   3.2036

          k = 0.5976-0.3450-0.1903 (  5682 PWs)   bands (ev):

   -35.2337 -35.2315 -17.0405 -16.6883 -16.4049 -16.3960 -16.2341 -16.2284
   -16.1734 -15.8656 -14.1941 -14.0985 -13.9803 -13.9501  -4.2088  -3.9935
    -2.1231  -1.8930  -1.8037  -1.7904  -1.1920  -0.9871   1.2495   1.4824
     1.6991   1.8364   1.8899   2.0896   2.3286   2.4988   3.0336   3.2753

          k =-0.0000-0.0000 0.3807 (  5712 PWs)   bands (ev):

   -35.2346 -35.2309 -16.9221 -16.8398 -16.3498 -16.3498 -16.2748 -16.2748
   -16.1016 -15.9442 -14.1132 -14.1132 -13.9660 -13.9660  -4.2849  -4.2306
    -1.9833  -1.9833  -1.9178  -1.9178  -1.4400  -0.8027   1.6770   1.6770
     1.7975   1.7975   2.2229   2.2229   2.5761   2.5761   2.8196   3.0145

          k = 0.9960 0.5751 0.0634 (  5708 PWs)   bands (ev):

   -35.2338 -35.2316 -16.9155 -16.8688 -16.3579 -16.3232 -16.3012 -16.2349
   -16.0764 -15.9770 -14.1079 -14.0625 -14.0286 -13.9714  -4.2409  -4.2067
    -1.9918  -1.9252  -1.9222  -1.9163  -1.2950  -0.9302   1.6350   1.6875
     1.7586   1.7739   2.0834   2.3074   2.3669   2.5078   2.9462   3.0326

          k = 0.7968 0.4600 0.1269 (  5701 PWs)   bands (ev):

   -35.2326 -35.2326 -16.9776 -16.8172 -16.3917 -16.3021 -16.2741 -16.2179
   -16.1239 -15.9383 -14.1126 -14.1111 -14.0078 -13.9707  -4.2005  -4.0896
    -2.0650  -1.9045  -1.8528  -1.8470  -1.1239  -1.0546   1.4206   1.5357
     1.7992   1.8029   1.8962   2.1675   2.3225   2.4332   3.0492   3.1629

          k = 0.9960-0.5751-0.2538 (  5702 PWs)   bands (ev):

   -35.2333 -35.2321 -16.9101 -16.8815 -16.3641 -16.2975 -16.2830 -16.2607
   -16.0309 -16.0287 -14.0882 -14.0494 -14.0321 -13.9991  -4.2339  -4.2176
    -1.9969  -1.9364  -1.9319  -1.8837  -1.2068  -1.0191   1.6435   1.6660
     1.7591   1.7671   2.1691   2.2669   2.3430   2.5022   2.9752   2.9927

          k = 0.7968-0.6901-0.1903 (  5692 PWs)   bands (ev):

   -35.2326 -35.2326 -16.9085 -16.9085 -16.3415 -16.3415 -16.2317 -16.2317
   -16.0427 -16.0427 -14.0917 -14.0917 -14.0039 -14.0039  -4.1664  -4.1664
    -1.9925  -1.9925  -1.8523  -1.8523  -1.0929  -1.0929   1.5232   1.5232
     1.7953   1.7953   2.0454   2.0454   2.4073   2.4073   3.0803   3.0803

          k = 0.0000 0.0000-0.5710 (  5742 PWs)   bands (ev):

   -35.2327 -35.2327 -16.8865 -16.8865 -16.3136 -16.3136 -16.3136 -16.3136
   -16.0171 -16.0171 -14.0384 -14.0384 -14.0384 -14.0384  -4.2655  -4.2655
    -1.9490  -1.9490  -1.9490  -1.9490  -1.1182  -1.1182   1.7327   1.7327
     1.7327   1.7327   2.3969   2.3969   2.3969   2.3969   2.9114   2.9114

     highest occupied level (ev):     3.2956

!    total energy              =    -367.32329352 Ry
     Harris-Foulkes estimate   =    -367.32329353 Ry
     estimated scf accuracy    <          7.9E-09 Ry

     The total energy is the sum of the following terms:

     one-electron contribution =    -155.13041141 Ry
     hartree contribution      =     104.47821894 Ry
     xc contribution           =     -74.40366321 Ry
     ewald contribution        =    -242.26743785 Ry

     convergence has been achieved in   9 iterations

     Forces acting on atoms (cartesian axes, Ry/au):

     atom    1 type  1   force =     0.00000000   -0.00000000    0.00000000
     atom    2 type  1   force =     0.00000000    0.00000000   -0.00000000
     atom    3 type  2   force =    -0.00000000   -0.00000000   -0.00000000
     atom    4 type  2   force =     0.00000000   -0.00000000   -0.00000000
     atom    5 type  3   force =    -0.07168973    0.12417025    0.00000000
     atom    6 type  3   force =     0.14337946    0.00000000   -0.00000000
     atom    7 type  3   force =    -0.07168973   -0.12417025   -0.00000000
     atom    8 type  3   force =    -0.14337946    0.00000000    0.00000000
     atom    9 type  3   force =     0.07168973    0.12417025    0.00000000
     atom   10 type  3   force =     0.07168973   -0.12417025   -0.00000000

     Total force =     0.351207     Total SCF correction =     0.000305


     Computing stress (Cartesian axis) and pressure

          total   stress  (Ry/bohr**3)                   (kbar)     P= -171.22
  -0.00167251  -0.00000000   0.00000000       -246.04     -0.00      0.00
   0.00000000  -0.00167251  -0.00000000          0.00   -246.04     -0.00
   0.00000000  -0.00000000  -0.00014669          0.00     -0.00    -21.58


     BFGS Geometry Optimization

     number of scf cycles    =   1
     number of bfgs steps    =   0

     energy   new            =    -367.3232935245 Ry

     new trust radius        =       0.1433794570 bohr
     new conv_thr            =       0.0000000100 Ry


ATOMIC_POSITIONS (crystal)
Ca       0.500000000   0.500000000   0.500000000
Ca       0.000000000   0.000000000  -0.000000000
C        0.250000000   0.250000000   0.250000000
C        0.750000000   0.750000000   0.750000000
O        0.492923926   1.007076074   0.250000000
O        1.007076074   0.250000000   0.492923926
O        0.250000000   0.492923926   1.007076074
O       -0.007076074   0.750000000   0.507076074
O        0.750000000   0.507076074  -0.007076074
O        0.507076074  -0.007076074   0.750000000



     Writing output data file CCO.save/
     NEW-OLD atomic charge density approx. for the potential

     Check: negative core charge=   -0.000003

     total cpu time spent up to now is      110.6 secs

     Self-consistent Calculation

     iteration #  1     ecut=    50.00 Ry     beta= 0.70
     CG style diagonalization
     c_bands:  2 eigenvalues not converged
     c_bands:  2 eigenvalues not converged
     c_bands:  2 eigenvalues not converged
     c_bands:  4 eigenvalues not converged
     c_bands:  5 eigenvalues not converged
     c_bands:  5 eigenvalues not converged
     c_bands:  3 eigenvalues not converged
     c_bands:  1 eigenvalues not converged
     c_bands:  2 eigenvalues not converged
     c_bands:  5 eigenvalues not converged
     c_bands:  4 eigenvalues not converged
     c_bands:  5 eigenvalues not converged
     c_bands:  5 eigenvalues not converged
     c_bands:  2 eigenvalues not converged
     c_bands:  5 eigenvalues not converged
     c_bands:  5 eigenvalues not converged
     ethr =  1.00E-06,  avg # of iterations = 14.5

     total cpu time spent up to now is      149.1 secs

     total energy              =    -367.36403347 Ry
     Harris-Foulkes estimate   =    -367.41358672 Ry
     estimated scf accuracy    <       0.06829692 Ry

     iteration #  2     ecut=    50.00 Ry     beta= 0.70
     CG style diagonalization
     ethr =  1.07E-04,  avg # of iterations =  4.0

     total cpu time spent up to now is      160.2 secs

     total energy              =    -367.38162954 Ry
     Harris-Foulkes estimate   =    -367.40237352 Ry
     estimated scf accuracy    <       0.03854903 Ry

     iteration #  3     ecut=    50.00 Ry     beta= 0.70
     CG style diagonalization
     ethr =  6.02E-05,  avg # of iterations =  3.6

     total cpu time spent up to now is      170.0 secs

     total energy              =    -367.39080707 Ry
     Harris-Foulkes estimate   =    -367.39124277 Ry
     estimated scf accuracy    <       0.00094049 Ry

     iteration #  4     ecut=    50.00 Ry     beta= 0.70
     CG style diagonalization
     ethr =  1.47E-06,  avg # of iterations =  4.2

     total cpu time spent up to now is      181.4 secs

     total energy              =    -367.39137161 Ry
     Harris-Foulkes estimate   =    -367.39144801 Ry
     estimated scf accuracy    <       0.00021295 Ry

     iteration #  5     ecut=    50.00 Ry     beta= 0.70
     CG style diagonalization
     ethr =  3.33E-07,  avg # of iterations =  3.5

     total cpu time spent up to now is      191.2 secs

     total energy              =    -367.39140455 Ry
     Harris-Foulkes estimate   =    -367.39140827 Ry
     estimated scf accuracy    <       0.00000732 Ry

     iteration #  6     ecut=    50.00 Ry     beta= 0.70
     CG style diagonalization
     ethr =  1.14E-08,  avg # of iterations =  4.2

     total cpu time spent up to now is      202.8 secs

     total energy              =    -367.39140747 Ry
     Harris-Foulkes estimate   =    -367.39140856 Ry
     estimated scf accuracy    <       0.00000174 Ry

     iteration #  7     ecut=    50.00 Ry     beta= 0.70
     CG style diagonalization
     ethr =  2.72E-09,  avg # of iterations =  3.9

     total cpu time spent up to now is      213.5 secs

     total energy              =    -367.39140800 Ry
     Harris-Foulkes estimate   =    -367.39140804 Ry
     estimated scf accuracy    <       0.00000010 Ry

     iteration #  8     ecut=    50.00 Ry     beta= 0.70
     CG style diagonalization
     ethr =  1.59E-10,  avg # of iterations =  4.0

     total cpu time spent up to now is      224.6 secs

     total energy              =    -367.39140802 Ry
     Harris-Foulkes estimate   =    -367.39140803 Ry
     estimated scf accuracy    <       0.00000001 Ry

     iteration #  9     ecut=    50.00 Ry     beta= 0.70
     CG style diagonalization
     ethr =  1.65E-11,  avg # of iterations =  3.7

     total cpu time spent up to now is      234.7 secs

     End of self-consistent calculation

          k = 0.0000 0.0000 0.0000 (  5711 PWs)   bands (ev):

   -35.4601 -35.4534 -17.6412 -17.6353 -16.5588 -16.5588 -16.4370 -16.4370
   -16.4188 -16.3169 -14.5723 -14.5723 -14.3288 -14.3288  -4.0483  -3.8426
    -2.1928  -2.1702  -2.1702  -2.0524  -2.0524  -1.0929   1.6922   1.6922
     1.9139   1.9139   2.0303   2.0303   2.7975   2.7975   3.1018   3.4630

          k =-0.1992-0.1150 0.0634 (  5708 PWs)   bands (ev):

   -35.4597 -35.4538 -17.6645 -17.6158 -16.5569 -16.5215 -16.4569 -16.4319
   -16.4075 -16.3567 -14.5548 -14.5235 -14.3803 -14.3438  -3.9739  -3.8488
    -2.1816  -2.1530  -2.1021  -2.0463  -2.0325  -1.1772   1.6905   1.7284
     1.8525   1.8545   1.9725   1.9951   2.6973   2.7057   3.2367   3.4459

          k =-0.3984-0.2300 0.1269 (  5694 PWs)   bands (ev):

   -35.4584 -35.4550 -17.6810 -17.6032 -16.5486 -16.5052 -16.5043 -16.4603
   -16.3701 -16.3408 -14.5141 -14.4620 -14.4529 -14.3874  -3.8411  -3.8306
    -2.2184  -2.1250  -2.0562  -2.0258  -1.8200  -1.3486   1.5246   1.5914
     1.7242   1.7459   2.0500   2.1111   2.5219   2.5366   3.4281   3.4343

          k = 0.5976 0.3450-0.1903 (  5700 PWs)   bands (ev):

   -35.4567 -35.4567 -17.6448 -17.6448 -16.5106 -16.5106 -16.5077 -16.5077
   -16.3429 -16.3429 -14.4727 -14.4727 -14.4401 -14.4401  -3.7943  -3.7943
    -2.1972  -2.1972  -2.0145  -2.0145  -1.5561  -1.5561   1.4306   1.4306
     1.7142   1.7142   2.1501   2.1501   2.4400   2.4400   3.4680   3.4680

          k =-0.1992 0.1150 0.1269 (  5713 PWs)   bands (ev):

   -35.4595 -35.4540 -17.6683 -17.6131 -16.5401 -16.5376 -16.4350 -16.4280
   -16.4209 -16.3698 -14.5395 -14.5284 -14.3762 -14.3569  -3.9685  -3.8607
    -2.1593  -2.1439  -2.1363  -2.0300  -2.0184  -1.1961   1.7040   1.7071
     1.8290   1.8635   1.9461   2.0707   2.6286   2.7425   3.2424   3.4328

          k =-0.3984-0.0000 0.1903 (  5703 PWs)   bands (ev):

   -35.4586 -35.4548 -17.6874 -17.5973 -16.5504 -16.5277 -16.4580 -16.4432
   -16.3902 -16.3593 -14.5147 -14.4965 -14.4187 -14.3824  -3.8631  -3.8540
    -2.1956  -2.1172  -2.1054  -2.0094  -1.8578  -1.3226   1.5612   1.6725
     1.7369   1.7745   1.9630   2.1504   2.4586   2.6419   3.4008   3.4189

          k = 0.5976 0.5751-0.1269 (  5699 PWs)   bands (ev):

   -35.4572 -35.4561 -17.6590 -17.6333 -16.5504 -16.5101 -16.4849 -16.4647
   -16.3621 -16.3454 -14.5144 -14.4797 -14.4354 -14.3983  -3.7976  -3.7921
    -2.1931  -2.1824  -2.0561  -1.9953  -1.6228  -1.4754   1.4235   1.4649
     1.7036   1.7196   2.0471   2.1371   2.4256   2.5263   3.4728   3.4782

          k = 0.3984 0.4600-0.0634 (  5699 PWs)   bands (ev):

   -35.4576 -35.4557 -17.6877 -17.5996 -16.5624 -16.5131 -16.5062 -16.4416
   -16.3817 -16.3169 -14.5294 -14.4822 -14.4186 -14.3981  -3.8208  -3.7657
    -2.2493  -2.1081  -2.0531  -2.0022  -1.6891  -1.4325   1.3772   1.5283
     1.6699   1.7303   2.0139   2.1605   2.4592   2.5243   3.4378   3.5171

          k = 0.1992 0.3450 0.0000 (  5705 PWs)   bands (ev):

   -35.4589 -35.4545 -17.6927 -17.5885 -16.5481 -16.5367 -16.4714 -16.4257
   -16.3990 -16.3520 -14.5192 -14.5034 -14.4133 -14.3760  -3.8593  -3.8487
    -2.2209  -2.0951  -2.0854  -2.0192  -1.9191  -1.2863   1.5634   1.6934
     1.7325   1.7681   1.9360   2.1120   2.5381   2.6371   3.4035   3.4258

          k =-0.3984 0.2300 0.2538 (  5702 PWs)   bands (ev):

   -35.4584 -35.4550 -17.7179 -17.5642 -16.5680 -16.5460 -16.4359 -16.4248
   -16.4225 -16.3309 -14.5372 -14.4791 -14.4191 -14.3842  -3.8880  -3.7894
    -2.2402  -2.1155  -2.0640  -1.9740  -1.7935  -1.3861   1.4306   1.6709
     1.7184   1.8319   1.9299   2.2697   2.2825   2.6516   3.3640   3.4834

          k = 0.5976 0.8051-0.0634 (  5698 PWs)   bands (ev):

   -35.4576 -35.4557 -17.7103 -17.5789 -16.5785 -16.5257 -16.4495 -16.4344
   -16.4141 -16.3138 -14.5579 -14.4692 -14.4297 -14.3755  -3.8538  -3.7349
    -2.2350  -2.1513  -2.0607  -1.9581  -1.6525  -1.4553   1.3283   1.5340
     1.7402   1.8008   1.9604   2.0672   2.4113   2.5890   3.3921   3.5510

          k = 0.3984 0.6901 0.0000 (  5690 PWs)   bands (ev):

   -35.4566 -35.4566 -17.6489 -17.6485 -16.5499 -16.5248 -16.4718 -16.4218
   -16.3831 -16.3580 -14.5174 -14.5168 -14.4006 -14.3999  -3.7719  -3.7717
    -2.2278  -2.1467  -2.0773  -1.9751  -1.5410  -1.5204   1.3837   1.3859
     1.7091   1.7389   1.9923   2.0370   2.4861   2.5314   3.5020   3.5035

          k = 0.5976-0.3450-0.3807 (  5686 PWs)   bands (ev):

   -35.4578 -35.4555 -17.7409 -17.5368 -16.5922 -16.5880 -16.4258 -16.4257
   -16.4190 -16.2697 -14.5858 -14.4939 -14.3971 -14.3625  -3.8983  -3.6864
    -2.2839  -2.1203  -2.0285  -1.9393  -1.6678  -1.4730   1.2692   1.5597
     1.7854   1.8520   1.9539   2.0122   2.4124   2.5941   3.3232   3.5983

          k =-0.0000-0.0000 0.1903 (  5691 PWs)   bands (ev):

   -35.4597 -35.4539 -17.6419 -17.6367 -16.5516 -16.5516 -16.4462 -16.4462
   -16.4107 -16.3226 -14.5550 -14.5550 -14.3442 -14.3442  -4.0447  -3.8706
    -2.1610  -2.1610  -2.1065  -2.0591  -2.0591  -1.1571   1.7010   1.7010
     1.8718   1.8718   2.1030   2.1030   2.7458   2.7458   3.1212   3.4318

          k =-0.1992-0.1150 0.2538 (  5716 PWs)   bands (ev):

   -35.4590 -35.4545 -17.6561 -17.6272 -16.5565 -16.5065 -16.4887 -16.4278
   -16.4012 -16.3483 -14.5410 -14.5005 -14.4031 -14.3569  -3.9775  -3.8721
    -2.1510  -2.1498  -2.0762  -2.0724  -1.9426  -1.2637   1.6838   1.7322
     1.8024   1.8407   1.9885   2.1592   2.5843   2.6689   3.2466   3.4174

          k = 0.7968 0.4600-0.0634 (  5688 PWs)   bands (ev):

   -35.4577 -35.4557 -17.6456 -17.6443 -16.5467 -16.5137 -16.4951 -16.4519
   -16.3684 -16.3454 -14.5029 -14.4783 -14.4474 -14.3898  -3.8761  -3.8072
    -2.1882  -2.1452  -2.0575  -2.0436  -1.7098  -1.4228   1.5199   1.5824
     1.7403   1.7576   2.0133   2.2348   2.3957   2.5243   3.3900   3.4594

          k = 0.5976 0.3450 0.0000 (  5701 PWs)   bands (ev):

   -35.4572 -35.4561 -17.6940 -17.5928 -16.5517 -16.5473 -16.4680 -16.4680
   -16.3813 -16.3056 -14.5264 -14.4704 -14.4196 -14.4127  -3.8467  -3.7409
    -2.2655  -2.0916  -2.0607  -1.9908  -1.6207  -1.5006   1.3467   1.5162
     1.6785   1.7804   2.0183   2.2936   2.3201   2.5075   3.4021   3.5307

          k = 0.3984 0.2300 0.0634 (  5716 PWs)   bands (ev):

   -35.4586 -35.4548 -17.7071 -17.5731 -16.5581 -16.5397 -16.4669 -16.4390
   -16.3990 -16.3301 -14.5309 -14.4649 -14.4383 -14.3827  -3.8599  -3.8088
    -2.2439  -2.1071  -2.0323  -2.0201  -1.8559  -1.3378   1.4634   1.6492
     1.7229   1.7921   1.9213   2.2061   2.4316   2.6276   3.3992   3.4617

          k =-0.1992 0.1150 0.3172 (  5701 PWs)   bands (ev):

   -35.4587 -35.4548 -17.6663 -17.6193 -16.5477 -16.5102 -16.4610 -16.4399
   -16.3967 -16.3737 -14.5136 -14.5007 -14.3934 -14.3913  -3.9610  -3.9009
    -2.1630  -2.1241  -2.1080  -2.0320  -1.8960  -1.3160   1.6883   1.7146
     1.7994   1.8074   2.0604   2.2153   2.4812   2.6825   3.2665   3.3841

          k = 0.7968 0.6901 0.0000 (  5698 PWs)   bands (ev):

   -35.4578 -35.4556 -17.6717 -17.6199 -16.5465 -16.5174 -16.4598 -16.4288
   -16.3959 -16.3724 -14.5018 -14.4835 -14.4282 -14.3998  -3.8701  -3.8650
    -2.1652  -2.1481  -2.0982  -2.0088  -1.7271  -1.4247   1.5577   1.6130
     1.7671   1.8201   1.9957   2.2156   2.3583   2.5874   3.3956   3.4048

          k = 0.5976 0.5751 0.0634 (  5683 PWs)   bands (ev):

   -35.4567 -35.4566 -17.6694 -17.6264 -16.5459 -16.5226 -16.4760 -16.4332
   -16.3844 -16.3503 -14.5246 -14.4766 -14.4360 -14.3923  -3.8282  -3.7641
    -2.2365  -2.1234  -2.0682  -1.9937  -1.5511  -1.5371   1.3923   1.4687
     1.7315   1.7807   1.9876   2.1173   2.4347   2.5096   3.4359   3.5080

          k = 0.3984 0.4600 0.1269 (  5687 PWs)   bands (ev):

   -35.4578 -35.4555 -17.7064 -17.5794 -16.5784 -16.5231 -16.4845 -16.4246
   -16.4046 -16.3059 -14.5536 -14.4565 -14.4430 -14.3776  -3.8433  -3.7427
    -2.2590  -2.1120  -2.0266  -2.0064  -1.6969  -1.4273   1.3403   1.5577
     1.6748   1.7684   1.9616   2.1628   2.4194   2.5705   3.4071   3.5438

          k = 0.7968-0.4600-0.3172 (  5694 PWs)   bands (ev):

   -35.4576 -35.4557 -17.7099 -17.5780 -16.5793 -16.5225 -16.4384 -16.4286
   -16.4210 -16.3302 -14.5276 -14.4931 -14.4030 -14.3980  -3.9041  -3.7849
    -2.2418  -2.1101  -2.0564  -1.9820  -1.6805  -1.4757   1.4293   1.6157
     1.7938   1.8416   2.0054   2.1174   2.3509   2.5927   3.3473   3.4881

          k = 0.5976-0.5751-0.2538 (  5683 PWs)   bands (ev):

   -35.4572 -35.4561 -17.6973 -17.5969 -16.5585 -16.5335 -16.4425 -16.4260
   -16.4168 -16.3344 -14.5424 -14.4858 -14.4149 -14.3886  -3.8486  -3.7431
    -2.2375  -2.1525  -2.0371  -1.9827  -1.5967  -1.4973   1.3460   1.4986
     1.7833   1.8132   1.9643   2.0251   2.4401   2.5436   3.4029   3.5371

          k = 0.3984-0.6901-0.1903 (  5694 PWs)   bands (ev):

   -35.4566 -35.4566 -17.6487 -17.6487 -16.5399 -16.5399 -16.4474 -16.4474
   -16.3674 -16.3674 -14.5171 -14.5171 -14.4003 -14.4003  -3.7718  -3.7718
    -2.1987  -2.1987  -2.0152  -2.0152  -1.5303  -1.5303   1.3847   1.3847
     1.7235   1.7235   2.0142   2.0142   2.5096   2.5096   3.5027   3.5027

          k = 0.5976-0.3450-0.1903 (  5682 PWs)   bands (ev):

   -35.4576 -35.4557 -17.7285 -17.5523 -16.5814 -16.5768 -16.4373 -16.4366
   -16.4096 -16.2792 -14.5695 -14.4874 -14.4031 -14.3759  -3.8845  -3.7011
    -2.2859  -2.1041  -2.0083  -1.9851  -1.6589  -1.4762   1.2892   1.5574
     1.7218   1.8336   1.9470   2.1469   2.3859   2.5639   3.3461   3.5794

          k =-0.0000-0.0000 0.3807 (  5712 PWs)   bands (ev):

   -35.4585 -35.4551 -17.6428 -17.6397 -16.5312 -16.5312 -16.4705 -16.4705
   -16.3896 -16.3389 -14.5085 -14.5085 -14.3870 -14.3870  -4.0288  -3.9325
    -2.1369  -2.1369  -2.0783  -2.0783  -1.8836  -1.3385   1.7263   1.7263
     1.8146   1.8146   2.2478   2.2478   2.6082   2.6082   3.1764   3.3533

          k = 0.9960 0.5751 0.0634 (  5708 PWs)   bands (ev):

   -35.4577 -35.4558 -17.6445 -17.6429 -16.5435 -16.5126 -16.4899 -16.4385
   -16.3896 -16.3527 -14.5031 -14.4669 -14.4377 -14.3916  -3.9704  -3.9111
    -2.1482  -2.1008  -2.0948  -2.0803  -1.7454  -1.4419   1.6801   1.7199
     1.7819   1.8057   2.1149   2.3483   2.4109   2.5558   3.2749   3.3641

          k = 0.7968 0.4600 0.1269 (  5701 PWs)   bands (ev):

   -35.4567 -35.4567 -17.6835 -17.6083 -16.5711 -16.5061 -16.4746 -16.4284
   -16.4045 -16.3319 -14.5050 -14.5005 -14.4224 -14.3933  -3.9001  -3.7919
    -2.2308  -2.0892  -2.0504  -2.0405  -1.5878  -1.5446   1.4599   1.5949
     1.8094   1.8100   1.9575   2.2240   2.3853   2.4971   3.3581   3.4778

          k = 0.9960-0.5751-0.2538 (  5702 PWs)   bands (ev):

   -35.4573 -35.4562 -17.6574 -17.6312 -16.5457 -16.4969 -16.4795 -16.4572
   -16.3769 -16.3706 -14.4852 -14.4547 -14.4419 -14.4163  -3.9438  -3.9435
    -2.1567  -2.1015  -2.1014  -2.0552  -1.6741  -1.5144   1.6799   1.7124
     1.7882   1.7891   2.2110   2.3045   2.3829   2.5434   3.3091   3.3239

          k = 0.7968-0.6901-0.1903 (  5692 PWs)   bands (ev):

   -35.4567 -35.4567 -17.6475 -17.6475 -16.5315 -16.5315 -16.4384 -16.4384
   -16.3886 -16.3886 -14.4859 -14.4859 -14.4210 -14.4210  -3.8721  -3.8721
    -2.1641  -2.1641  -2.0420  -2.0420  -1.5710  -1.5710   1.5704   1.5704
     1.8132   1.8132   2.0959   2.0959   2.4669   2.4669   3.3954   3.3954

          k = 0.0000 0.0000-0.5710 (  5742 PWs)   bands (ev):

   -35.4568 -35.4568 -17.6423 -17.6423 -16.5018 -16.5018 -16.5018 -16.5018
   -16.3631 -16.3631 -14.4468 -14.4468 -14.4468 -14.4468  -3.9916  -3.9916
    -2.1064  -2.1064  -2.1064  -2.1064  -1.6013  -1.6013   1.7652   1.7652
     1.7652   1.7652   2.4270   2.4270   2.4270   2.4270   3.2591   3.2591

     highest occupied level (ev):     3.5983

!    total energy              =    -367.39140803 Ry
     Harris-Foulkes estimate   =    -367.39140803 Ry
     estimated scf accuracy    <          7.7E-10 Ry

     The total energy is the sum of the following terms:

     one-electron contribution =    -165.55102908 Ry
     hartree contribution      =     109.63850725 Ry
     xc contribution           =     -74.90727878 Ry
     ewald contribution        =    -236.57160741 Ry

     convergence has been achieved in   9 iterations

     Forces acting on atoms (cartesian axes, Ry/au):

     atom    1 type  1   force =    -0.00000000    0.00000000    0.00000000
     atom    2 type  1   force =     0.00000000    0.00000000    0.00000000
     atom    3 type  2   force =    -0.00000000    0.00000000    0.00000000
     atom    4 type  2   force =     0.00000000   -0.00000000    0.00000000
     atom    5 type  3   force =    -0.00137885    0.00238823    0.00000000
     atom    6 type  3   force =     0.00275769   -0.00000000    0.00000000
     atom    7 type  3   force =    -0.00137885   -0.00238823   -0.00000000
     atom    8 type  3   force =    -0.00275769    0.00000000   -0.00000000
     atom    9 type  3   force =     0.00137885    0.00238823    0.00000000
     atom   10 type  3   force =     0.00137885   -0.00238823   -0.00000000

     Total force =     0.006755     Total SCF correction =     0.000124


     Computing stress (Cartesian axis) and pressure

          total   stress  (Ry/bohr**3)                   (kbar)     P=  -77.77
  -0.00067656   0.00000000   0.00000000        -99.53      0.00      0.00
  -0.00000000  -0.00067656  -0.00000000         -0.00    -99.53     -0.00
   0.00000000  -0.00000000  -0.00023291          0.00     -0.00    -34.26


     number of scf cycles    =   2
     number of bfgs steps    =   1

     energy   old            =    -367.3232935245 Ry
     energy   new            =    -367.3914080256 Ry

     CASE: energy  _new < energy  _old

     new trust radius        =       0.0028117739 bohr
     new conv_thr            =       0.0000000003 Ry


ATOMIC_POSITIONS (crystal)
Ca       0.500000000   0.500000000   0.500000000
Ca       0.000000000   0.000000000  -0.000000000
C        0.250000000   0.250000000   0.250000000
C        0.750000000   0.750000000   0.750000000
O        0.492647552   1.007352448   0.250000000
O        1.007352448   0.250000000   0.492647552
O        0.250000000   0.492647552   1.007352448
O       -0.007352448   0.750000000   0.507352448
O        0.750000000   0.507352448  -0.007352448
O        0.507352448  -0.007352448   0.750000000



     Writing output data file CCO.save/
     NEW-OLD atomic charge density approx. for the potential

     Check: negative core charge=   -0.000003

     total cpu time spent up to now is      237.2 secs

     Self-consistent Calculation

     iteration #  1     ecut=    50.00 Ry     beta= 0.70
     CG style diagonalization
     ethr =  1.00E-06,  avg # of iterations =  3.1

     Threshold (ethr) on eigenvalues was too large:
     Diagonalizing with lowered threshold

     CG style diagonalization
     c_bands:  1 eigenvalues not converged
     ethr =  3.48E-08,  avg # of iterations =  3.8

     total cpu time spent up to now is      256.6 secs

     total energy              =    -367.39141270 Ry
     Harris-Foulkes estimate   =    -367.39143377 Ry
     estimated scf accuracy    <       0.00002863 Ry

     iteration #  2     ecut=    50.00 Ry     beta= 0.70
     CG style diagonalization
     ethr =  4.47E-08,  avg # of iterations =  4.1

     total cpu time spent up to now is      267.8 secs

     total energy              =    -367.39142102 Ry
     Harris-Foulkes estimate   =    -367.39142892 Ry
     estimated scf accuracy    <       0.00001438 Ry

     iteration #  3     ecut=    50.00 Ry     beta= 0.70
     CG style diagonalization
     ethr =  2.25E-08,  avg # of iterations =  3.6

     total cpu time spent up to now is      277.6 secs

     total energy              =    -367.39142424 Ry
     Harris-Foulkes estimate   =    -367.39142437 Ry
     estimated scf accuracy    <       0.00000028 Ry

     iteration #  4     ecut=    50.00 Ry     beta= 0.70
     CG style diagonalization
     ethr =  4.31E-10,  avg # of iterations =  4.3

     total cpu time spent up to now is      289.6 secs

     total energy              =    -367.39142445 Ry
     Harris-Foulkes estimate   =    -367.39142451 Ry
     estimated scf accuracy    <       0.00000016 Ry

     iteration #  5     ecut=    50.00 Ry     beta= 0.70
     CG style diagonalization
     ethr =  2.44E-10,  avg # of iterations =  3.5

     total cpu time spent up to now is      299.5 secs

     total energy              =    -367.39142447 Ry
     Harris-Foulkes estimate   =    -367.39142447 Ry
     estimated scf accuracy    <          5.3E-09 Ry

     iteration #  6     ecut=    50.00 Ry     beta= 0.70
     CG style diagonalization
     ethr =  8.34E-12,  avg # of iterations =  4.2

     total cpu time spent up to now is      311.1 secs

     total energy              =    -367.39142447 Ry
     Harris-Foulkes estimate   =    -367.39142447 Ry
     estimated scf accuracy    <          8.3E-10 Ry

     iteration #  7     ecut=    50.00 Ry     beta= 0.70
     CG style diagonalization
     ethr =  1.30E-12,  avg # of iterations =  3.9

     total cpu time spent up to now is      321.8 secs

     End of self-consistent calculation

          k = 0.0000 0.0000 0.0000 (  5711 PWs)   bands (ev):

   -35.4645 -35.4578 -17.6596 -17.6518 -16.5624 -16.5624 -16.4410 -16.4410
   -16.4230 -16.3238 -14.5807 -14.5807 -14.3381 -14.3381  -4.0434  -3.8359
    -2.2020  -2.1730  -2.1730  -2.0554  -2.0554  -1.1057   1.6933   1.6933
     1.9144   1.9144   2.0307   2.0307   2.7981   2.7981   3.1096   3.4701

          k =-0.1992-0.1150 0.0634 (  5708 PWs)   bands (ev):

   -35.4640 -35.4582 -17.6822 -17.6327 -16.5604 -16.5253 -16.4609 -16.4360
   -16.4120 -16.3630 -14.5633 -14.5321 -14.3894 -14.3530  -3.9689  -3.8421
    -2.1874  -2.1560  -2.1064  -2.0494  -2.0380  -1.1895   1.6912   1.7290
     1.8529   1.8552   1.9733   1.9960   2.6983   2.7066   3.2439   3.4529

          k =-0.3984-0.2300 0.1269 (  5694 PWs)   bands (ev):

   -35.4627 -35.4594 -17.6981 -17.6206 -16.5522 -16.5091 -16.5081 -16.4644
   -16.3756 -16.3463 -14.5228 -14.4708 -14.4617 -14.3964  -3.8356  -3.8240
    -2.2226  -2.1285  -2.0596  -2.0293  -1.8288  -1.3598   1.5252   1.5919
     1.7249   1.7462   2.0516   2.1121   2.5230   2.5378   3.4349   3.4412

          k = 0.5976 0.3450-0.1903 (  5700 PWs)   bands (ev):

   -35.4610 -35.4610 -17.6621 -17.6621 -16.5143 -16.5143 -16.5116 -16.5116
   -16.3486 -16.3486 -14.4815 -14.4815 -14.4489 -14.4489  -3.7881  -3.7881
    -2.2011  -2.2011  -2.0182  -2.0182  -1.5661  -1.5661   1.4313   1.4313
     1.7147   1.7147   2.1515   2.1515   2.4413   2.4413   3.4747   3.4747

          k =-0.1992 0.1150 0.1269 (  5713 PWs)   bands (ev):

   -35.4639 -35.4583 -17.6860 -17.6300 -16.5437 -16.5413 -16.4390 -16.4324
   -16.4253 -16.3760 -14.5481 -14.5370 -14.3854 -14.3661  -3.9634  -3.8540
    -2.1630  -2.1470  -2.1423  -2.0332  -2.0243  -1.2083   1.7048   1.7078
     1.8295   1.8644   1.9469   2.0715   2.6296   2.7433   3.2496   3.4398

          k =-0.3984-0.0000 0.1903 (  5703 PWs)   bands (ev):

   -35.4630 -35.4591 -17.7044 -17.6147 -16.5541 -16.5314 -16.4621 -16.4474
   -16.3955 -16.3647 -14.5233 -14.5052 -14.4277 -14.3915  -3.8577  -3.8475
    -2.1994  -2.1206  -2.1096  -2.0127  -1.8660  -1.3340   1.5618   1.6733
     1.7372   1.7751   1.9642   2.1516   2.4596   2.6430   3.4077   3.4258

          k = 0.5976 0.5751-0.1269 (  5699 PWs)   bands (ev):

   -35.4616 -35.4605 -17.6761 -17.6505 -16.5541 -16.5141 -16.4889 -16.4686
   -16.3677 -16.3509 -14.5230 -14.4884 -14.4442 -14.4074  -3.7916  -3.7858
    -2.1969  -2.1862  -2.0601  -1.9989  -1.6323  -1.4859   1.4243   1.4657
     1.7040   1.7202   2.0484   2.1385   2.4269   2.5276   3.4795   3.4849

          k = 0.3984 0.4600-0.0634 (  5699 PWs)   bands (ev):

   -35.4620 -35.4601 -17.7045 -17.6173 -16.5661 -16.5169 -16.5100 -16.4457
   -16.3869 -16.3229 -14.5379 -14.4910 -14.4275 -14.4072  -3.8143  -3.7599
    -2.2532  -2.1119  -2.0568  -2.0057  -1.6987  -1.4431   1.3779   1.5290
     1.6706   1.7307   2.0154   2.1617   2.4603   2.5257   3.4446   3.5238

          k = 0.1992 0.3450 0.0000 (  5705 PWs)   bands (ev):

   -35.4633 -35.4588 -17.7098 -17.6060 -16.5519 -16.5403 -16.4753 -16.4298
   -16.4044 -16.3574 -14.5278 -14.5120 -14.4224 -14.3850  -3.8540  -3.8420
    -2.2251  -2.0987  -2.0888  -2.0225  -1.9275  -1.2979   1.5640   1.6939
     1.7327   1.7689   1.9375   2.1130   2.5391   2.6382   3.4103   3.4327

          k =-0.3984 0.2300 0.2538 (  5702 PWs)   bands (ev):

   -35.4627 -35.4594 -17.7344 -17.5823 -16.5716 -16.5500 -16.4401 -16.4289
   -16.4268 -16.3370 -14.5456 -14.4877 -14.4282 -14.3933  -3.8814  -3.7839
    -2.2432  -2.1192  -2.0691  -1.9773  -1.8021  -1.3972   1.4313   1.6723
     1.7187   1.8319   1.9311   2.2708   2.2836   2.6527   3.3710   3.4902

          k = 0.5976 0.8051-0.0634 (  5698 PWs)   bands (ev):

   -35.4620 -35.4601 -17.7268 -17.5970 -16.5821 -16.5299 -16.4536 -16.4385
   -16.4184 -16.3201 -14.5662 -14.4779 -14.4387 -14.3847  -3.8473  -3.7290
    -2.2380  -2.1554  -2.0657  -1.9616  -1.6617  -1.4659   1.3292   1.5353
     1.7407   1.8010   1.9618   2.0684   2.4126   2.5902   3.3989   3.5576

          k = 0.3984 0.6901 0.0000 (  5690 PWs)   bands (ev):

   -35.4610 -35.4610 -17.6660 -17.6656 -16.5536 -16.5288 -16.4757 -16.4259
   -16.3888 -16.3635 -14.5259 -14.5253 -14.4096 -14.4090  -3.7657  -3.7655
    -2.2318  -2.1499  -2.0820  -1.9786  -1.5513  -1.5303   1.3846   1.3867
     1.7096   1.7393   1.9938   2.0383   2.4874   2.5326   3.5086   3.5101

          k = 0.5976-0.3450-0.3807 (  5686 PWs)   bands (ev):

   -35.4621 -35.4599 -17.7569 -17.5557 -16.5957 -16.5916 -16.4299 -16.4298
   -16.4231 -16.2765 -14.5940 -14.5024 -14.4063 -14.3718  -3.8917  -3.6806
    -2.2867  -2.1246  -2.0337  -1.9427  -1.6770  -1.4835   1.2700   1.5615
     1.7857   1.8520   1.9552   2.0135   2.4136   2.5953   3.3301   3.6050

          k =-0.0000-0.0000 0.1903 (  5691 PWs)   bands (ev):

   -35.4641 -35.4583 -17.6601 -17.6532 -16.5551 -16.5551 -16.4502 -16.4502
   -16.4151 -16.3293 -14.5634 -14.5634 -14.3535 -14.3535  -4.0397  -3.8641
    -2.1638  -2.1638  -2.1158  -2.0621  -2.0621  -1.1695   1.7021   1.7021
     1.8722   1.8722   2.1035   2.1035   2.7465   2.7465   3.1290   3.4390

          k =-0.1992-0.1150 0.2538 (  5716 PWs)   bands (ev):

   -35.4634 -35.4589 -17.6739 -17.6440 -16.5601 -16.5102 -16.4926 -16.4319
   -16.4059 -16.3545 -14.5495 -14.5092 -14.4121 -14.3661  -3.9724  -3.8657
    -2.1543  -2.1540  -2.0793  -2.0756  -1.9507  -1.2755   1.6847   1.7327
     1.8029   1.8413   1.9893   2.1602   2.5852   2.6698   3.2538   3.4245

          k = 0.7968 0.4600-0.0634 (  5688 PWs)   bands (ev):

   -35.4620 -35.4601 -17.6631 -17.6613 -16.5504 -16.5175 -16.4989 -16.4560
   -16.3736 -16.3515 -14.5116 -14.4871 -14.4563 -14.3989  -3.8704  -3.8010
    -2.1916  -2.1494  -2.0612  -2.0471  -1.7187  -1.4336   1.5205   1.5833
     1.7406   1.7580   2.0145   2.2361   2.3969   2.5256   3.3967   3.4663

          k = 0.5976 0.3450 0.0000 (  5701 PWs)   bands (ev):

   -35.4616 -35.4605 -17.7106 -17.6108 -16.5553 -16.5511 -16.4720 -16.4719
   -16.3862 -16.3119 -14.5349 -14.4791 -14.4286 -14.4217  -3.8403  -3.7350
    -2.2691  -2.0956  -2.0645  -1.9946  -1.6307  -1.5107   1.3474   1.5171
     1.6792   1.7806   2.0197   2.2947   2.3212   2.5090   3.4088   3.5374

          k = 0.3984 0.2300 0.0634 (  5716 PWs)   bands (ev):

   -35.4630 -35.4591 -17.7239 -17.5910 -16.5618 -16.5434 -16.4710 -16.4432
   -16.4038 -16.3359 -14.5395 -14.4737 -14.4473 -14.3918  -3.8532  -3.8033
    -2.2477  -2.1107  -2.0364  -2.0234  -1.8645  -1.3491   1.4641   1.6495
     1.7240   1.7922   1.9229   2.2071   2.4326   2.6288   3.4061   3.4685

          k =-0.1992 0.1150 0.3172 (  5701 PWs)   bands (ev):

   -35.4631 -35.4592 -17.6837 -17.6363 -16.5513 -16.5139 -16.4651 -16.4439
   -16.4017 -16.3796 -14.5222 -14.5093 -14.4025 -14.4004  -3.9558  -3.8946
    -2.1661  -2.1272  -2.1119  -2.0352  -1.9047  -1.3276   1.6889   1.7156
     1.7999   1.8079   2.0613   2.2161   2.4821   2.6833   3.2738   3.3912

          k = 0.7968 0.6901 0.0000 (  5698 PWs)   bands (ev):

   -35.4622 -35.4600 -17.6888 -17.6372 -16.5502 -16.5214 -16.4637 -16.4330
   -16.4014 -16.3777 -14.5104 -14.4922 -14.4371 -14.4089  -3.8646  -3.8588
    -2.1682  -2.1515  -2.1028  -2.0122  -1.7361  -1.4356   1.5585   1.6140
     1.7675   1.8205   1.9969   2.2168   2.3595   2.5886   3.4025   3.4117

          k = 0.5976 0.5751 0.0634 (  5683 PWs)   bands (ev):

   -35.4610 -35.4610 -17.6861 -17.6439 -16.5497 -16.5264 -16.4802 -16.4372
   -16.3894 -16.3563 -14.5331 -14.4852 -14.4449 -14.4014  -3.8221  -3.7579
    -2.2402  -2.1269  -2.0726  -1.9975  -1.5608  -1.5474   1.3931   1.4697
     1.7319   1.7810   1.9889   2.1186   2.4360   2.5110   3.4426   3.5148

          k = 0.3984 0.4600 0.1269 (  5687 PWs)   bands (ev):

   -35.4621 -35.4599 -17.7229 -17.5974 -16.5821 -16.5270 -16.4885 -16.4287
   -16.4093 -16.3121 -14.5620 -14.4654 -14.4518 -14.3867  -3.8368  -3.7369
    -2.2626  -2.1159  -2.0306  -2.0101  -1.7063  -1.4379   1.3410   1.5587
     1.6754   1.7687   1.9631   2.1640   2.4205   2.5718   3.4139   3.5505

          k = 0.7968-0.4600-0.3172 (  5694 PWs)   bands (ev):

   -35.4620 -35.4601 -17.7263 -17.5961 -16.5829 -16.5267 -16.4425 -16.4326
   -16.4252 -16.3365 -14.5361 -14.5017 -14.4121 -14.4071  -3.8978  -3.7793
    -2.2448  -2.1139  -2.0608  -1.9854  -1.6899  -1.4863   1.4301   1.6172
     1.7941   1.8417   2.0067   2.1185   2.3522   2.5938   3.3542   3.4950

          k = 0.5976-0.5751-0.2538 (  5683 PWs)   bands (ev):

   -35.4616 -35.4605 -17.7138 -17.6148 -16.5621 -16.5376 -16.4470 -16.4301
   -16.4210 -16.3406 -14.5508 -14.4944 -14.4239 -14.3978  -3.8423  -3.7372
    -2.2407  -2.1565  -2.0417  -1.9864  -1.6063  -1.5075   1.3469   1.4999
     1.7836   1.8134   1.9657   2.0264   2.4415   2.5449   3.4096   3.5438

          k = 0.3984-0.6901-0.1903 (  5694 PWs)   bands (ev):

   -35.4610 -35.4610 -17.6658 -17.6658 -16.5437 -16.5437 -16.4515 -16.4515
   -16.3729 -16.3729 -14.5256 -14.5256 -14.4093 -14.4093  -3.7656  -3.7656
    -2.2026  -2.2026  -2.0191  -2.0191  -1.5403  -1.5403   1.3856   1.3856
     1.7240   1.7240   2.0156   2.0156   2.5109   2.5109   3.5093   3.5093

          k = 0.5976-0.3450-0.1903 (  5682 PWs)   bands (ev):

   -35.4620 -35.4601 -17.7447 -17.5709 -16.5850 -16.5804 -16.4414 -16.4405
   -16.4139 -16.2859 -14.5778 -14.4959 -14.4122 -14.3851  -3.8780  -3.6953
    -2.2891  -2.1083  -2.0129  -1.9887  -1.6684  -1.4865   1.2900   1.5589
     1.7223   1.8336   1.9483   2.1481   2.3871   2.5652   3.3530   3.5861

          k =-0.0000-0.0000 0.3807 (  5712 PWs)   bands (ev):

   -35.4628 -35.4595 -17.6606 -17.6566 -16.5348 -16.5348 -16.4744 -16.4744
   -16.3946 -16.3452 -14.5171 -14.5171 -14.3961 -14.3961  -4.0237  -3.9266
    -2.1399  -2.1399  -2.0813  -2.0813  -1.8932  -1.3500   1.7272   1.7272
     1.8151   1.8151   2.2485   2.2485   2.6089   2.6089   3.1841   3.3606

          k = 0.9960 0.5751 0.0634 (  5708 PWs)   bands (ev):

   -35.4621 -35.4602 -17.6620 -17.6599 -16.5472 -16.5163 -16.4936 -16.4425
   -16.3948 -16.3587 -14.5118 -14.4757 -14.4467 -14.4007  -3.9650  -3.9053
    -2.1512  -2.1045  -2.0980  -2.0834  -1.7549  -1.4528   1.6809   1.7205
     1.7824   1.8064   2.1158   2.3493   2.4119   2.5567   3.2821   3.3713

          k = 0.7968 0.4600 0.1269 (  5701 PWs)   bands (ev):

   -35.4611 -35.4611 -17.7001 -17.6262 -16.5747 -16.5101 -16.4786 -16.4326
   -16.4091 -16.3382 -14.5135 -14.5091 -14.4314 -14.4024  -3.8941  -3.7859
    -2.2341  -2.0930  -2.0543  -2.0443  -1.5974  -1.5549   1.4607   1.5960
     1.8096   1.8102   1.9588   2.2252   2.3866   2.4984   3.3649   3.4847

          k = 0.9960-0.5751-0.2538 (  5702 PWs)   bands (ev):

   -35.4617 -35.4606 -17.6745 -17.6485 -16.5493 -16.5008 -16.4834 -16.4611
   -16.3824 -16.3761 -14.4939 -14.4635 -14.4508 -14.4253  -3.9381  -3.9381
    -2.1598  -2.1048  -2.1046  -2.0585  -1.6841  -1.5250   1.6806   1.7134
     1.7888   1.7896   2.2120   2.3054   2.3838   2.5442   3.3163   3.3311

          k = 0.7968-0.6901-0.1903 (  5692 PWs)   bands (ev):

   -35.4611 -35.4611 -17.6646 -17.6646 -16.5353 -16.5353 -16.4425 -16.4425
   -16.3940 -16.3940 -14.4945 -14.4945 -14.4300 -14.4300  -3.8662  -3.8662
    -2.1674  -2.1674  -2.0458  -2.0458  -1.5810  -1.5810   1.5713   1.5713
     1.8136   1.8136   2.0971   2.0971   2.4681   2.4681   3.4024   3.4024

          k = 0.0000 0.0000-0.5710 (  5742 PWs)   bands (ev):

   -35.4612 -35.4612 -17.6596 -17.6596 -16.5056 -16.5056 -16.5056 -16.5056
   -16.3687 -16.3687 -14.4557 -14.4557 -14.4557 -14.4557  -3.9862  -3.9862
    -2.1094  -2.1094  -2.1094  -2.1094  -1.6117  -1.6117   1.7659   1.7659
     1.7659   1.7659   2.4278   2.4278   2.4278   2.4278   3.2666   3.2666

     highest occupied level (ev):     3.6050

!    total energy              =    -367.39142447 Ry
     Harris-Foulkes estimate   =    -367.39142447 Ry
     estimated scf accuracy    <          9.9E-11 Ry

     The total energy is the sum of the following terms:

     one-electron contribution =    -165.78262161 Ry
     hartree contribution      =     109.75347737 Ry
     xc contribution           =     -74.91812242 Ry
     ewald contribution        =    -236.44415781 Ry

     convergence has been achieved in   7 iterations

     Forces acting on atoms (cartesian axes, Ry/au):

     atom    1 type  1   force =     0.00000000    0.00000000    0.00000000
     atom    2 type  1   force =     0.00000000   -0.00000000    0.00000000
     atom    3 type  2   force =    -0.00000000   -0.00000000   -0.00000000
     atom    4 type  2   force =     0.00000000   -0.00000000    0.00000000
     atom    5 type  3   force =     0.00040305   -0.00069811   -0.00000000
     atom    6 type  3   force =    -0.00080611   -0.00000000    0.00000000
     atom    7 type  3   force =     0.00040305    0.00069811    0.00000000
     atom    8 type  3   force =     0.00080611    0.00000000   -0.00000000
     atom    9 type  3   force =    -0.00040305   -0.00069811   -0.00000000
     atom   10 type  3   force =    -0.00040305    0.00069811    0.00000000

     Total force =     0.001975     Total SCF correction =     0.000022


     Computing stress (Cartesian axis) and pressure

          total   stress  (Ry/bohr**3)                   (kbar)     P=  -75.45
  -0.00065210   0.00000000  -0.00000000        -95.93      0.00     -0.00
   0.00000000  -0.00065210  -0.00000000          0.00    -95.93     -0.00
  -0.00000000  -0.00000000  -0.00023453         -0.00     -0.00    -34.50


     bfgs converged in   3 scf cycles and   2 bfgs steps
     (criteria: energy <  1.0E-04 Ry, force <  1.0E-03 Ry/Bohr)

     End of BFGS Geometry Optimization

     Final energy   =    -367.3914244704 Ry
Begin final coordinates

ATOMIC_POSITIONS (crystal)
Ca       0.500000000   0.500000000   0.500000000
Ca       0.000000000   0.000000000  -0.000000000
C        0.250000000   0.250000000   0.250000000
C        0.750000000   0.750000000   0.750000000
O        0.492647552   1.007352448   0.250000000
O        1.007352448   0.250000000   0.492647552
O        0.250000000   0.492647552   1.007352448
O       -0.007352448   0.750000000   0.507352448
O        0.750000000   0.507352448  -0.007352448
O        0.507352448  -0.007352448   0.750000000
End final coordinates



     Writing output data file CCO.save/
 
     init_run     :      3.90s CPU      5.74s WALL (       1 calls)
     electrons    :    272.21s CPU    308.55s WALL (       3 calls)
     update_pot   :      0.56s CPU      0.59s WALL (       2 calls)
     forces       :      1.59s CPU      1.84s WALL (       3 calls)
     stress       :      3.13s CPU      3.45s WALL (       3 calls)

     Called by init_run:
     wfcinit      :      3.15s CPU      3.97s WALL (       1 calls)
     potinit      :      0.12s CPU      0.22s WALL (       1 calls)
     hinit0       :      0.33s CPU      0.73s WALL (       1 calls)

     Called by electrons:
     c_bands      :    252.05s CPU    285.64s WALL (      26 calls)
     sum_band     :     17.64s CPU     19.31s WALL (      26 calls)
     v_of_rho     :      1.45s CPU      1.55s WALL (      28 calls)
     newd         :      0.89s CPU      1.51s WALL (      28 calls)
     mix_rho      :      0.18s CPU      0.27s WALL (      26 calls)

     Called by c_bands:
     init_us_2    :      0.50s CPU      0.60s WALL (    1888 calls)
     ccgdiagg     :    206.96s CPU    231.20s WALL (     847 calls)
     wfcrot       :     47.62s CPU     56.47s WALL (     751 calls)

     Called by sum_band:
     sum_band:bec :      0.22s CPU      0.26s WALL (     832 calls)
     addusdens    :      0.85s CPU      1.33s WALL (      26 calls)

     Called by *cgdiagg:
     h_psi        :    178.26s CPU    195.32s WALL (   92173 calls)
     s_psi        :     13.06s CPU     15.60s WALL (  183595 calls)
     cdiaghg      :     15.94s CPU     22.22s WALL (     751 calls)

     Called by h_psi:
     h_psi:pot    :    175.44s CPU    191.94s WALL (   92173 calls)
     h_psi:calbec :     18.19s CPU     20.29s WALL (   92173 calls)
     vloc_psi     :    144.90s CPU    158.04s WALL (   92173 calls)
     add_vuspsi   :      8.85s CPU     10.19s WALL (   92173 calls)
     hs_1psi      :    162.44s CPU    178.79s WALL (   91422 calls)
     s_1psi       :     20.91s CPU     24.48s WALL (   91422 calls)

     General routines
     calbec       :     26.87s CPU     31.02s WALL (  184907 calls)
     fft          :      1.44s CPU      1.70s WALL (     436 calls)
     ffts         :      0.06s CPU      0.07s WALL (      54 calls)
     fftw         :    151.40s CPU    164.49s WALL (  258812 calls)
     interpolate  :      0.13s CPU      0.14s WALL (      28 calls)
 
     Parallel routines
     fft_scatt_xy :      8.01s CPU      8.67s WALL (  259302 calls)
     fft_scatt_yz :    109.05s CPU    118.44s WALL (  259302 calls)
 
     PWSCF        :   4m43.20s CPU   5m26.99s WALL

 
   This run was terminated on:   9:21:43   1May2022            

=------------------------------------------------------------------------------=
   JOB DONE.
=------------------------------------------------------------------------------=
