MPI startup(): PMI server not found. Please set I_MPI_PMI_LIBRARY variable if it is not a singleton case.
[0] MPI startup(): I_MPI_JOB_FAST_STARTUP variable has been removed from the product, its value is ignored

[0] MPI startup(): I_MPI_OFI_LIBRARY variable has been removed from the product, its value is ignored


     Program PHONON v.7.0 starts on  3May2022 at 23:28: 1 

     This program is part of the open-source Quantum ESPRESSO suite
     for quantum simulation of materials; please cite
         "P. Giannozzi et al., J. Phys.:Condens. Matter 21 395502 (2009);
         "P. Giannozzi et al., J. Phys.:Condens. Matter 29 465901 (2017);
         "P. Giannozzi et al., J. Chem. Phys. 152 154105 (2020);
          URL http://www.quantum-espresso.org", 
     in publications or presentations arising from this work. More details at
     http://www.quantum-espresso.org/quote

     Parallel version (MPI), running on     1 processors

     MPI processes distributed on     1 nodes
     91205 MiB available memory on the printing compute node when the environment starts
 
     Waiting for input...
     Reading input from standard input

     Reading xml data from directory:

     ./CCO.save/

     IMPORTANT: XC functional enforced from input :
     Exchange-correlation= PBE
                           (   1   4   3   4   0   0   0)
     Any further DFT definition will be discarded
     Please, verify this is what you really want

 
     G-vector sticks info
     --------------------
     sticks:   dense  smooth     PW     G-vecs:    dense   smooth      PW
     Sum        2215    2215    645                63185    63185    9911
 
     Using Slab Decomposition
 

     Check: negative core charge=   -0.000003
     read_file_new: Wavefunctions not in collected format?!?
     read_file: Wavefunctions in collected format not available

     Calculation of q =    0.0000000   0.0000000   0.0000000

     Phonons of CaCO3                                                           

     bravais-lattice index     =            5
     lattice parameter (alat)  =      11.3568  a.u.
     unit-cell volume          =     798.0902 (a.u.)^3
     number of atoms/cell      =           10
     number of atomic types    =            3
     kinetic-energy cut-off    =      70.0000  Ry
     charge density cut-off    =     280.0000  Ry
     convergence threshold     =      1.0E-16
     beta                      =       0.7000
     number of iterations used =            4
     Exchange-correlation= PBE
                           (   1   4   3   4   0   0   0)


     celldm(1)=   11.35680  celldm(2)=    0.00000  celldm(3)=    0.00000
     celldm(4)=    0.63900  celldm(5)=    0.00000  celldm(6)=    0.00000

     crystal axes: (cart. coord. in units of alat)
               a(1) = (  0.4249 -0.2453  0.8714 )  
               a(2) = (  0.0000  0.4906  0.8714 )  
               a(3) = ( -0.4249 -0.2453  0.8714 )  

     reciprocal axes: (cart. coord. in units 2 pi/alat)
               b(1) = (  1.1769 -0.6795  0.3825 )  
               b(2) = (  0.0000  1.3589  0.3825 )  
               b(3) = ( -1.1769 -0.6795  0.3825 )  


     Atoms inside the unit cell: 

     Cartesian axes

     site n.  atom      mass           positions (alat units)
        1     Ca  40.0780   tau(    1) = (    0.00000   -0.00000    1.30710  )
        2     Ca  40.0780   tau(    2) = (    0.00000    0.00000   -0.00000  )
        3     C   12.0107   tau(    3) = (    0.00000   -0.00000    0.65355  )
        4     C   12.0107   tau(    4) = (    0.00000   -0.00000    1.96064  )
        5     O   15.9990   tau(    5) = (    0.10761    0.30419    1.52495  )
        6     O   15.9990   tau(    6) = (    0.20963   -0.24529    1.52495  )
        7     O   15.9990   tau(    7) = (   -0.31724   -0.05890    1.52495  )
        8     O   15.9990   tau(    8) = (   -0.20963    0.24529    1.08925  )
        9     O   15.9990   tau(    9) = (    0.31724    0.05890    1.08925  )
       10     O   15.9990   tau(   10) = (   -0.10761   -0.30419    1.08925  )

     Computing dynamical matrix for 
                    q = (   0.0000000   0.0000000   0.0000000 )
 
     13 Sym.Ops. (with q -> -q+G )


     G cutoff =  914.7665  (  63185 G-vectors)     FFT grid: ( 64, 64, 64)
     number of k points=    44
                       cart. coord. in units 2pi/alat
        k(    1) = (   0.0000000   0.0000000   0.0000000), wk =   0.0058309
        k(    2) = (  -0.1681254  -0.0970673   0.0546468), wk =   0.0349854
        k(    3) = (  -0.3362508  -0.1941345   0.1092935), wk =   0.0349854
        k(    4) = (  -0.5043762  -0.2912018   0.1639403), wk =   0.0349854
        k(    5) = (  -0.1681254   0.0970673   0.1092935), wk =   0.0349854
        k(    6) = (  -0.3362508  -0.0000000   0.1639403), wk =   0.0699708
        k(    7) = (  -0.5043762  -0.0970673   0.2185871), wk =   0.0699708
        k(    8) = (   0.5043762   0.4853363  -0.1092935), wk =   0.0699708
        k(    9) = (   0.3362508   0.3882690  -0.0546468), wk =   0.0699708
        k(   10) = (   0.1681254   0.2912018   0.0000000), wk =   0.0349854
        k(   11) = (  -0.3362508   0.1941345   0.2185871), wk =   0.0349854
        k(   12) = (  -0.5043762   0.0970673   0.2732338), wk =   0.0699708
        k(   13) = (   0.5043762   0.6794708  -0.0546468), wk =   0.0699708
        k(   14) = (   0.3362508   0.5824035   0.0000000), wk =   0.0349854
        k(   15) = (  -0.5043762   0.2912018   0.3278806), wk =   0.0349854
        k(   16) = (   0.5043762   0.8736053   0.0000000), wk =   0.0349854
        k(   17) = (  -0.0000000  -0.0000000   0.1639403), wk =   0.0116618
        k(   18) = (  -0.1681254  -0.0970673   0.2185871), wk =   0.0349854
        k(   19) = (  -0.3362508  -0.1941345   0.2732338), wk =   0.0349854
        k(   20) = (   0.6725016   0.3882690  -0.0546468), wk =   0.0349854
        k(   21) = (   0.5043762   0.2912018   0.0000000), wk =   0.0349854
        k(   22) = (   0.3362508   0.1941345   0.0546468), wk =   0.0349854
        k(   23) = (  -0.1681254   0.0970673   0.2732338), wk =   0.0349854
        k(   24) = (  -0.3362508  -0.0000000   0.3278806), wk =   0.0699708
        k(   25) = (   0.6725016   0.5824035   0.0000000), wk =   0.0699708
        k(   26) = (   0.5043762   0.4853363   0.0546468), wk =   0.0699708
        k(   27) = (   0.3362508   0.3882690   0.1092935), wk =   0.0699708
        k(   28) = (  -0.3362508   0.1941345   0.3825274), wk =   0.0349854
        k(   29) = (   0.6725016   0.7765380   0.0546468), wk =   0.0699708
        k(   30) = (   0.5043762   0.6794708   0.1092935), wk =   0.0699708
        k(   31) = (   0.3362508   0.5824035   0.1639403), wk =   0.0699708
        k(   32) = (   0.6725016  -0.3882690  -0.2732338), wk =   0.0349854
        k(   33) = (   0.5043762  -0.4853363  -0.2185871), wk =   0.0699708
        k(   34) = (   0.5043762  -0.2912018  -0.1639403), wk =   0.0349854
        k(   35) = (  -0.0000000  -0.0000000   0.3278806), wk =   0.0116618
        k(   36) = (  -0.1681254  -0.0970673   0.3825274), wk =   0.0349854
        k(   37) = (   0.8406271   0.4853363   0.0546468), wk =   0.0349854
        k(   38) = (   0.6725016   0.3882690   0.1092935), wk =   0.0349854
        k(   39) = (  -0.1681254   0.0970673   0.4371741), wk =   0.0349854
        k(   40) = (   0.8406271   0.6794708   0.1092935), wk =   0.0699708
        k(   41) = (   0.6725016   0.5824035   0.1639403), wk =   0.0699708
        k(   42) = (   0.8406271  -0.4853363  -0.2185871), wk =   0.0349854
        k(   43) = (  -0.0000000  -0.0000000   0.4918209), wk =   0.0116618
        k(   44) = (   1.0087525   0.5824035   0.1639403), wk =   0.0349854

     PseudoPot. # 1 for Ca read from file:
     ./Ca_PBE.UPF
     MD5 check sum: 403a4c14b9e4d4dfdc3024c9a3812218
     Pseudo is Ultrasoft + core correction, Zval = 10.0
     Generated by new atomic code, or converted to UPF format
     Using radial grid of  845 points,  6 beta functions with: 
                l(1) =   0
                l(2) =   0
                l(3) =   1
                l(4) =   1
                l(5) =   2
                l(6) =   2
     Q(r) pseudized with  8 coefficients,  rinner =    1.500   1.500   1.500
                                                       1.500   1.500

     PseudoPot. # 2 for C  read from file:
     ./C_PBE.UPF
     MD5 check sum: d1aef80898a10debaa0f26306b886e00
     Pseudo is Ultrasoft + core correction, Zval =  4.0
     Generated by new atomic code, or converted to UPF format
     Using radial grid of  721 points,  4 beta functions with: 
                l(1) =   0
                l(2) =   0
                l(3) =   1
                l(4) =   1
     Q(r) pseudized with  8 coefficients,  rinner =    1.100   1.100   1.100


     PseudoPot. # 3 for O  read from file:
     ./O_PBE.UPF
     MD5 check sum: 734c27235a0248c51dbae37a1fbe46ec
     Pseudo is Ultrasoft + core correction, Zval =  6.0
     Generated by new atomic code, or converted to UPF format
     Using radial grid of  737 points,  5 beta functions with: 
                l(1) =   0
                l(2) =   0
                l(3) =   1
                l(4) =   1
                l(5) =   2
     Q(r) pseudized with  8 coefficients,  rinner =    0.900   0.900   0.900
                                                       0.900   0.900

     Mode symmetry, D_3d (-3m)  point group:


     Electric field:
     Dielectric constant
     Born effective charges as d Force / d E


     Atomic displacements:
     There are   20 irreducible representations

     Representation     1      1 modes -  To be done

     Representation     2      1 modes -  To be done

     Representation     3      1 modes -  To be done

     Representation     4      1 modes -  To be done

     Representation     5      2 modes -  To be done

     Representation     6      2 modes -  To be done

     Representation     7      2 modes -  To be done

     Representation     8      2 modes -  To be done

     Representation     9      1 modes -  To be done

     Representation    10      1 modes -  To be done

     Representation    11      1 modes -  To be done

     Representation    12      1 modes -  To be done

     Representation    13      1 modes -  To be done

     Representation    14      1 modes -  To be done

     Representation    15      2 modes -  To be done

     Representation    16      2 modes -  To be done

     Representation    17      2 modes -  To be done

     Representation    18      2 modes -  To be done

     Representation    19      2 modes -  To be done

     Representation    20      2 modes -  To be done



 %%%%%%%%%%%%%%%%%%%%%%%%%%%%%%%%%%%%%%%%%%%%%%%%%%%%%%%%%%%%%%%%%%%%%%%%%%%%%%
     Error in routine davcio (20):
     error reading file "/work2/08443/tg877428/stampede2/MSE5720/HW4/Q3/./CCO.wfc1"
 %%%%%%%%%%%%%%%%%%%%%%%%%%%%%%%%%%%%%%%%%%%%%%%%%%%%%%%%%%%%%%%%%%%%%%%%%%%%%%

     stopping ...
