
     Program PHONON v.6.4.1 starts on  3May2022 at 23:37:55 

     This program is part of the open-source Quantum ESPRESSO suite
     for quantum simulation of materials; please cite
         "P. Giannozzi et al., J. Phys.:Condens. Matter 21 395502 (2009);
         "P. Giannozzi et al., J. Phys.:Condens. Matter 29 465901 (2017);
          URL http://www.quantum-espresso.org", 
     in publications or presentations arising from this work. More details at
     http://www.quantum-espresso.org/quote

     Parallel version (MPI & OpenMP), running on       1 processor cores
     Number of MPI processes:                 1
     Threads/MPI process:                     1

     MPI processes distributed on     1 nodes

     Reading data from directory:
     ./CCO.save/

     IMPORTANT: XC functional enforced from input :
     Exchange-correlation      = PBE ( 1  4  3  4 0 0)
     Any further DFT definition will be discarded
     Please, verify this is what you really want

 
     G-vector sticks info
     --------------------
     sticks:   dense  smooth     PW     G-vecs:    dense   smooth      PW
     Sum        2345    2345    675                67537    67537   10441
 

     Check: negative core charge=   -0.000003

     Calculation of q =    0.0000000   0.0000000   0.0000000

     Phonons of CaCO3                                                           

     bravais-lattice index     =            5
     lattice parameter (alat)  =      11.8795  a.u.
     unit-cell volume          =     852.6628 (a.u.)^3
     number of atoms/cell      =           10
     number of atomic types    =            3
     kinetic-energy cut-off    =      70.0000  Ry
     charge density cut-off    =     280.0000  Ry
     convergence threshold     =      1.0E-16
     beta                      =       0.7000
     number of iterations used =            4
     Exchange-correlation      = PBE ( 1  4  3  4 0 0)


     celldm(1)=   11.87950  celldm(2)=    0.00000  celldm(3)=    0.00000
     celldm(4)=    0.66710  celldm(5)=    0.00000  celldm(6)=    0.00000

     crystal axes: (cart. coord. in units of alat)
               a(1) = (  0.4080 -0.2355  0.8821 )  
               a(2) = (  0.0000  0.4711  0.8821 )  
               a(3) = ( -0.4080 -0.2355  0.8821 )  

     reciprocal axes: (cart. coord. in units 2 pi/alat)
               b(1) = (  1.2255 -0.7076  0.3779 )  
               b(2) = (  0.0000  1.4151  0.3779 )  
               b(3) = ( -1.2255 -0.7076  0.3779 )  


     Atoms inside the unit cell: 

     Cartesian axes

     site n.  atom      mass           positions (alat units)
        1     Ca  40.0780   tau(    1) = (    0.00000   -0.00000    1.32312  )
        2     Ca  40.0780   tau(    2) = (    0.00000   -0.00000   -0.00000  )
        3     C   12.0107   tau(    3) = (    0.00000   -0.00000    0.66156  )
        4     C   12.0107   tau(    4) = (   -0.00000   -0.00000    1.98468  )
        5     O   15.9990   tau(    5) = (    0.10323    0.29230    1.54364  )
        6     O   15.9990   tau(    6) = (    0.20152   -0.23555    1.54364  )
        7     O   15.9990   tau(    7) = (   -0.30475   -0.05675    1.54364  )
        8     O   15.9990   tau(    8) = (   -0.20152    0.23555    1.10260  )
        9     O   15.9990   tau(    9) = (    0.30475    0.05675    1.10260  )
       10     O   15.9990   tau(   10) = (   -0.10323   -0.29230    1.10260  )

     Computing dynamical matrix for 
                    q = (   0.0000000   0.0000000   0.0000000 )
 
     13 Sym.Ops. (with q -> -q+G )


     G cutoff = 1000.9091  (  67537 G-vectors)     FFT grid: ( 64, 64, 64)
     number of k points=    44
                       cart. coord. in units 2pi/alat
        k(    1) = (   0.0000000   0.0000000   0.0000000), wk =   0.0058309
        k(    2) = (  -0.1750774  -0.1010810   0.0539849), wk =   0.0349854
        k(    3) = (  -0.3501548  -0.2021620   0.1079698), wk =   0.0349854
        k(    4) = (  -0.5252322  -0.3032429   0.1619547), wk =   0.0349854
        k(    5) = (  -0.1750774   0.1010810   0.1079698), wk =   0.0349854
        k(    6) = (  -0.3501548  -0.0000000   0.1619547), wk =   0.0699708
        k(    7) = (  -0.5252322  -0.1010810   0.2159396), wk =   0.0699708
        k(    8) = (   0.5252322   0.5054049  -0.1079698), wk =   0.0699708
        k(    9) = (   0.3501548   0.4043239  -0.0539849), wk =   0.0699708
        k(   10) = (   0.1750774   0.3032429   0.0000000), wk =   0.0349854
        k(   11) = (  -0.3501548   0.2021620   0.2159396), wk =   0.0349854
        k(   12) = (  -0.5252322   0.1010810   0.2699245), wk =   0.0699708
        k(   13) = (   0.5252322   0.7075668  -0.0539849), wk =   0.0699708
        k(   14) = (   0.3501548   0.6064859   0.0000000), wk =   0.0349854
        k(   15) = (  -0.5252322   0.3032429   0.3239094), wk =   0.0349854
        k(   16) = (   0.5252322   0.9097288   0.0000000), wk =   0.0349854
        k(   17) = (   0.0000000  -0.0000000   0.1619547), wk =   0.0116618
        k(   18) = (  -0.1750774  -0.1010810   0.2159396), wk =   0.0349854
        k(   19) = (  -0.3501548  -0.2021620   0.2699245), wk =   0.0349854
        k(   20) = (   0.7003096   0.4043239  -0.0539849), wk =   0.0349854
        k(   21) = (   0.5252322   0.3032429   0.0000000), wk =   0.0349854
        k(   22) = (   0.3501548   0.2021620   0.0539849), wk =   0.0349854
        k(   23) = (  -0.1750774   0.1010810   0.2699245), wk =   0.0349854
        k(   24) = (  -0.3501548   0.0000000   0.3239094), wk =   0.0699708
        k(   25) = (   0.7003096   0.6064859   0.0000000), wk =   0.0699708
        k(   26) = (   0.5252322   0.5054049   0.0539849), wk =   0.0699708
        k(   27) = (   0.3501548   0.4043239   0.1079698), wk =   0.0699708
        k(   28) = (  -0.3501548   0.2021620   0.3778943), wk =   0.0349854
        k(   29) = (   0.7003096   0.8086478   0.0539849), wk =   0.0699708
        k(   30) = (   0.5252322   0.7075668   0.1079698), wk =   0.0699708
        k(   31) = (   0.3501548   0.6064859   0.1619547), wk =   0.0699708
        k(   32) = (   0.7003096  -0.4043239  -0.2699245), wk =   0.0349854
        k(   33) = (   0.5252322  -0.5054049  -0.2159396), wk =   0.0699708
        k(   34) = (   0.5252322  -0.3032429  -0.1619547), wk =   0.0349854
        k(   35) = (   0.0000000  -0.0000000   0.3239094), wk =   0.0116618
        k(   36) = (  -0.1750774  -0.1010810   0.3778943), wk =   0.0349854
        k(   37) = (   0.8753870   0.5054049   0.0539849), wk =   0.0349854
        k(   38) = (   0.7003096   0.4043239   0.1079698), wk =   0.0349854
        k(   39) = (  -0.1750774   0.1010810   0.4318792), wk =   0.0349854
        k(   40) = (   0.8753870   0.7075668   0.1079698), wk =   0.0699708
        k(   41) = (   0.7003096   0.6064859   0.1619547), wk =   0.0699708
        k(   42) = (   0.8753870  -0.5054049  -0.2159396), wk =   0.0349854
        k(   43) = (   0.0000000   0.0000000   0.4858641), wk =   0.0116618
        k(   44) = (   1.0504643   0.6064859   0.1619547), wk =   0.0349854

     PseudoPot. # 1 for Ca read from file:
     ./Ca_PBE.UPF
     MD5 check sum: 403a4c14b9e4d4dfdc3024c9a3812218
     Pseudo is Ultrasoft + core correction, Zval = 10.0
     Generated by new atomic code, or converted to UPF format
     Using radial grid of  845 points,  6 beta functions with: 
                l(1) =   0
                l(2) =   0
                l(3) =   1
                l(4) =   1
                l(5) =   2
                l(6) =   2
     Q(r) pseudized with  8 coefficients,  rinner =    1.500   1.500   1.500
                                                       1.500   1.500

     PseudoPot. # 2 for C  read from file:
     ./C_PBE.UPF
     MD5 check sum: d1aef80898a10debaa0f26306b886e00
     Pseudo is Ultrasoft + core correction, Zval =  4.0
     Generated by new atomic code, or converted to UPF format
     Using radial grid of  721 points,  4 beta functions with: 
                l(1) =   0
                l(2) =   0
                l(3) =   1
                l(4) =   1
     Q(r) pseudized with  8 coefficients,  rinner =    1.100   1.100   1.100


     PseudoPot. # 3 for O  read from file:
     ./O_PBE.UPF
     MD5 check sum: 734c27235a0248c51dbae37a1fbe46ec
     Pseudo is Ultrasoft + core correction, Zval =  6.0
     Generated by new atomic code, or converted to UPF format
     Using radial grid of  737 points,  5 beta functions with: 
                l(1) =   0
                l(2) =   0
                l(3) =   1
                l(4) =   1
                l(5) =   2
     Q(r) pseudized with  8 coefficients,  rinner =    0.900   0.900   0.900
                                                       0.900   0.900

     Mode symmetry, D_3d (-3m)  point group:


     Electric field:
     Dielectric constant
     Born effective charges as d Force / d E


     Atomic displacements:
     There are  20 irreducible representations

     Representation     1      1 modes -A_1g L_1  To be done

     Representation     2      1 modes -A_2g L_2  To be done

     Representation     3      1 modes -A_2g L_2  To be done

     Representation     4      1 modes -A_2g L_2  To be done

     Representation     5      2 modes -E_g  L_3  To be done

     Representation     6      2 modes -E_g  L_3  To be done

     Representation     7      2 modes -E_g  L_3  To be done

     Representation     8      2 modes -E_g  L_3  To be done

     Representation     9      1 modes -A_1u L_1'  To be done

     Representation    10      1 modes -A_1u L_1'  To be done

     Representation    11      1 modes -A_2u L_2'  To be done

     Representation    12      1 modes -A_2u L_2'  To be done

     Representation    13      1 modes -A_2u L_2'  To be done

     Representation    14      1 modes -A_2u L_2'  To be done

     Representation    15      2 modes -E_u  L_3'  To be done

     Representation    16      2 modes -E_u  L_3'  To be done

     Representation    17      2 modes -E_u  L_3'  To be done

     Representation    18      2 modes -E_u  L_3'  To be done

     Representation    19      2 modes -E_u  L_3'  To be done

     Representation    20      2 modes -E_u  L_3'  To be done



     Alpha used in Ewald sum =   2.5000
     PHONON       :   9m37.84s CPU   9m44.01s WALL


     Electric Fields Calculation

      iter #   1 total cpu time :  3939.8 secs   av.it.:   6.2
      thresh= 1.000E-02 alpha_mix =  0.700 |ddv_scf|^2 =  2.914E-08

      iter #   2 total cpu time :  5447.0 secs   av.it.:  14.0
      thresh= 1.707E-05 alpha_mix =  0.700 |ddv_scf|^2 =  2.874E-08

      iter #   3 total cpu time :  6877.9 secs   av.it.:  13.0
      thresh= 1.695E-05 alpha_mix =  0.700 |ddv_scf|^2 =  3.244E-09

      iter #   4 total cpu time :  8299.6 secs   av.it.:  13.0
      thresh= 5.696E-06 alpha_mix =  0.700 |ddv_scf|^2 =  5.264E-11

      iter #   5 total cpu time :  9673.2 secs   av.it.:  12.7
      thresh= 7.255E-07 alpha_mix =  0.700 |ddv_scf|^2 =  5.277E-12

      iter #   6 total cpu time : 11103.9 secs   av.it.:  13.0
      thresh= 2.297E-07 alpha_mix =  0.700 |ddv_scf|^2 =  1.949E-13

      iter #   7 total cpu time : 12503.7 secs   av.it.:  12.9
      thresh= 4.414E-08 alpha_mix =  0.700 |ddv_scf|^2 =  3.396E-15

      iter #   8 total cpu time : 13899.5 secs   av.it.:  12.9
      thresh= 5.828E-09 alpha_mix =  0.700 |ddv_scf|^2 =  2.337E-16

      iter #   9 total cpu time : 15339.3 secs   av.it.:  13.0
      thresh= 1.529E-09 alpha_mix =  0.700 |ddv_scf|^2 =  2.256E-17

     End of electric fields calculation

          Dielectric constant in cartesian axis 

          (       2.954472154       0.000000000      -0.000000000 )
          (       0.000000000       2.954472154       0.000000000 )
          (      -0.000000000       0.000000000       2.302689148 )

          Effective charges (d Force / dE) in cartesian axis

           atom      1   Ca 
      Ex  (        2.56824       -0.21825       -0.00000 )
      Ey  (        0.21825        2.56824       -0.00000 )
      Ez  (        0.00000       -0.00000        2.35942 )
           atom      2   Ca 
      Ex  (        2.56824        0.21825        0.00000 )
      Ey  (       -0.21825        2.56824       -0.00000 )
      Ez  (       -0.00000       -0.00000        2.35942 )
           atom      3   C  
      Ex  (        3.25209       -0.00000        0.00000 )
      Ey  (       -0.00000        3.25209       -0.00000 )
      Ez  (        0.00000       -0.00000        0.25011 )
           atom      4   C  
      Ex  (        3.25209       -0.00000       -0.00000 )
      Ey  (       -0.00000        3.25209       -0.00000 )
      Ez  (        0.00000       -0.00000        0.25011 )
           atom      5   O  
      Ex  (       -1.58314        0.61915       -0.19056 )
      Ey  (        0.61915       -2.29807       -0.11002 )
      Ez  (       -0.17911       -0.10341       -0.87050 )
           atom      6   O  
      Ex  (       -2.65553       -0.00000       -0.00000 )
      Ey  (       -0.00000       -1.22568        0.22004 )
      Ez  (        0.00000        0.20682       -0.87050 )
           atom      7   O  
      Ex  (       -1.58314       -0.61915        0.19056 )
      Ey  (       -0.61915       -2.29807       -0.11002 )
      Ez  (        0.17911       -0.10341       -0.87050 )
           atom      8   O  
      Ex  (       -2.65553        0.00000       -0.00000 )
      Ey  (        0.00000       -1.22568        0.22004 )
      Ez  (       -0.00000        0.20682       -0.87050 )
           atom      9   O  
      Ex  (       -1.58314       -0.61915        0.19056 )
      Ey  (       -0.61915       -2.29807       -0.11002 )
      Ez  (        0.17911       -0.10341       -0.87050 )
           atom     10   O  
      Ex  (       -1.58314        0.61915       -0.19056 )
      Ey  (        0.61915       -2.29807       -0.11002 )
      Ez  (       -0.17911       -0.10341       -0.87050 )


     Representation #  1 mode #   1

     Self-consistent Calculation

      iter #   1 total cpu time : 19043.4 secs   av.it.:   6.0
      thresh= 1.000E-02 alpha_mix =  0.700 |ddv_scf|^2 =  2.214E-06

      iter #   2 total cpu time : 19472.8 secs   av.it.:  11.8
      thresh= 1.488E-04 alpha_mix =  0.700 |ddv_scf|^2 =  1.225E-06

      iter #   3 total cpu time : 19884.2 secs   av.it.:  10.9
      thresh= 1.107E-04 alpha_mix =  0.700 |ddv_scf|^2 =  1.011E-08

      iter #   4 total cpu time : 20327.5 secs   av.it.:  11.9
      thresh= 1.006E-05 alpha_mix =  0.700 |ddv_scf|^2 =  9.338E-10

      iter #   5 total cpu time : 20768.4 secs   av.it.:  11.9
      thresh= 3.056E-06 alpha_mix =  0.700 |ddv_scf|^2 =  6.524E-12

      iter #   6 total cpu time : 21188.6 secs   av.it.:  10.9
      thresh= 2.554E-07 alpha_mix =  0.700 |ddv_scf|^2 =  3.944E-13

      iter #   7 total cpu time : 21613.1 secs   av.it.:  11.2
      thresh= 6.280E-08 alpha_mix =  0.700 |ddv_scf|^2 =  9.204E-15

      iter #   8 total cpu time : 22039.0 secs   av.it.:  10.9
      thresh= 9.594E-09 alpha_mix =  0.700 |ddv_scf|^2 =  4.500E-16

      iter #   9 total cpu time : 22465.1 secs   av.it.:  11.2
      thresh= 2.121E-09 alpha_mix =  0.700 |ddv_scf|^2 =  3.094E-18

     End of self-consistent calculation

     Convergence has been achieved 


     Representation #  2 mode #   2

     Self-consistent Calculation

      iter #   1 total cpu time : 22727.5 secs   av.it.:   5.8
      thresh= 1.000E-02 alpha_mix =  0.700 |ddv_scf|^2 =  8.791E-07

      iter #   2 total cpu time : 23147.9 secs   av.it.:  11.0
      thresh= 9.376E-05 alpha_mix =  0.700 |ddv_scf|^2 =  1.681E-07

      iter #   3 total cpu time : 23544.4 secs   av.it.:  10.5
      thresh= 4.100E-05 alpha_mix =  0.700 |ddv_scf|^2 =  2.162E-09

      iter #   4 total cpu time : 23942.5 secs   av.it.:  10.6
      thresh= 4.649E-06 alpha_mix =  0.700 |ddv_scf|^2 =  8.775E-12

      iter #   5 total cpu time : 24344.7 secs   av.it.:  10.9
      thresh= 2.962E-07 alpha_mix =  0.700 |ddv_scf|^2 =  3.692E-13

      iter #   6 total cpu time : 24762.5 secs   av.it.:  11.0
      thresh= 6.076E-08 alpha_mix =  0.700 |ddv_scf|^2 =  2.092E-14

      iter #   7 total cpu time : 25162.8 secs   av.it.:  10.7
      thresh= 1.446E-08 alpha_mix =  0.700 |ddv_scf|^2 =  9.774E-16

      iter #   8 total cpu time : 25568.7 secs   av.it.:  10.9
      thresh= 3.126E-09 alpha_mix =  0.700 |ddv_scf|^2 =  7.160E-18

     End of self-consistent calculation

     Convergence has been achieved 


     Representation #  3 mode #   3

     Self-consistent Calculation

      iter #   1 total cpu time : 25793.2 secs   av.it.:   4.9
      thresh= 1.000E-02 alpha_mix =  0.700 |ddv_scf|^2 =  4.180E-07

      iter #   2 total cpu time : 26197.6 secs   av.it.:  10.9
      thresh= 6.466E-05 alpha_mix =  0.700 |ddv_scf|^2 =  1.381E-07

      iter #   3 total cpu time : 26588.1 secs   av.it.:  10.0
      thresh= 3.717E-05 alpha_mix =  0.700 |ddv_scf|^2 =  6.540E-11

      iter #   4 total cpu time : 27013.3 secs   av.it.:  11.4
      thresh= 8.087E-07 alpha_mix =  0.700 |ddv_scf|^2 =  5.020E-12

      iter #   5 total cpu time : 27424.6 secs   av.it.:  10.9
      thresh= 2.240E-07 alpha_mix =  0.700 |ddv_scf|^2 =  1.243E-13

      iter #   6 total cpu time : 27824.0 secs   av.it.:  10.8
      thresh= 3.526E-08 alpha_mix =  0.700 |ddv_scf|^2 =  3.091E-15

      iter #   7 total cpu time : 28216.9 secs   av.it.:  10.2
      thresh= 5.560E-09 alpha_mix =  0.700 |ddv_scf|^2 =  6.256E-17

     End of self-consistent calculation

     Convergence has been achieved 


     Representation #  4 mode #   4

     Self-consistent Calculation

      iter #   1 total cpu time : 28485.7 secs   av.it.:   6.0
      thresh= 1.000E-02 alpha_mix =  0.700 |ddv_scf|^2 =  4.085E-06

      iter #   2 total cpu time : 28890.6 secs   av.it.:  10.9
      thresh= 2.021E-04 alpha_mix =  0.700 |ddv_scf|^2 =  1.372E-06

      iter #   3 total cpu time : 29278.0 secs   av.it.:  10.0
      thresh= 1.171E-04 alpha_mix =  0.700 |ddv_scf|^2 =  6.750E-10

      iter #   4 total cpu time : 29697.5 secs   av.it.:  11.0
      thresh= 2.598E-06 alpha_mix =  0.700 |ddv_scf|^2 =  3.063E-11

      iter #   5 total cpu time : 30103.7 secs   av.it.:  10.9
      thresh= 5.534E-07 alpha_mix =  0.700 |ddv_scf|^2 =  9.963E-13

      iter #   6 total cpu time : 30492.6 secs   av.it.:  10.0
      thresh= 9.981E-08 alpha_mix =  0.700 |ddv_scf|^2 =  1.789E-14

      iter #   7 total cpu time : 30889.9 secs   av.it.:  10.6
      thresh= 1.337E-08 alpha_mix =  0.700 |ddv_scf|^2 =  4.440E-16

      iter #   8 total cpu time : 31289.2 secs   av.it.:  10.7
      thresh= 2.107E-09 alpha_mix =  0.700 |ddv_scf|^2 =  1.449E-17

     End of self-consistent calculation

     Convergence has been achieved 


     Representation #  5 modes #   5  6

     Self-consistent Calculation

      iter #   1 total cpu time : 31840.4 secs   av.it.:   6.0
      thresh= 1.000E-02 alpha_mix =  0.700 |ddv_scf|^2 =  1.088E-07

      iter #   2 total cpu time : 32787.3 secs   av.it.:  13.0
      thresh= 3.299E-05 alpha_mix =  0.700 |ddv_scf|^2 =  1.959E-09

      iter #   3 total cpu time : 33751.9 secs   av.it.:  13.0
      thresh= 4.426E-06 alpha_mix =  0.700 |ddv_scf|^2 =  1.404E-09

      iter #   4 total cpu time : 34642.5 secs   av.it.:  12.0
      thresh= 3.747E-06 alpha_mix =  0.700 |ddv_scf|^2 =  8.138E-12
