
     Program PWSCF v.6.4.1 starts on  3May2022 at 23:34:33 

     This program is part of the open-source Quantum ESPRESSO suite
     for quantum simulation of materials; please cite
         "P. Giannozzi et al., J. Phys.:Condens. Matter 21 395502 (2009);
         "P. Giannozzi et al., J. Phys.:Condens. Matter 29 465901 (2017);
          URL http://www.quantum-espresso.org", 
     in publications or presentations arising from this work. More details at
     http://www.quantum-espresso.org/quote

     Parallel version (MPI & OpenMP), running on      68 processor cores
     Number of MPI processes:                68
     Threads/MPI process:                     1

     MPI processes distributed on     1 nodes
     R & G space division:  proc/nbgrp/npool/nimage =      68
     Waiting for input...
     Reading input from standard input
Warning: card &CELL ignored
Warning: card  CELL_DYNAMICS = 'BFGS', ignored
Warning: card  PRESS=0.1D0, ignored
Warning: card / ignored

     Current dimensions of program PWSCF are:
     Max number of different atomic species (ntypx) = 10
     Max number of k-points (npk) =  40000
     Max angular momentum in pseudopotentials (lmaxx) =  3

     Subspace diagonalization in iterative solution of the eigenvalue problem:
     one sub-group per band group will be used
     scalapack distributed-memory algorithm (size of sub-group:  5*  5 procs)

 
     Parallelization info
     --------------------
     sticks:   dense  smooth     PW     G-vecs:    dense   smooth      PW
     Min          34      34      9                  992      992     150
     Max          35      35     10                  996      996     156
     Sum        2345    2345    675                67537    67537   10441
 


     bravais-lattice index     =            5
     lattice parameter (alat)  =      11.8795  a.u.
     unit-cell volume          =     852.6628 (a.u.)^3
     number of atoms/cell      =           10
     number of atomic types    =            3
     number of electrons       =        64.00
     number of Kohn-Sham states=           32
     kinetic-energy cutoff     =      70.0000  Ry
     charge density cutoff     =     280.0000  Ry
     convergence threshold     =      1.0E-08
     mixing beta               =       0.7000
     number of iterations used =            8  plain     mixing
     Exchange-correlation      = SLA  PW   PBE  PBE ( 1  4  3  4 0 0)
     nstep                     =           50


     celldm(1)=  11.879500  celldm(2)=   0.000000  celldm(3)=   0.000000
     celldm(4)=   0.667100  celldm(5)=   0.000000  celldm(6)=   0.000000

     crystal axes: (cart. coord. in units of alat)
               a(1) = (   0.407983  -0.235549   0.882081 )  
               a(2) = (   0.000000   0.471098   0.882081 )  
               a(3) = (  -0.407983  -0.235549   0.882081 )  

     reciprocal axes: (cart. coord. in units 2 pi/alat)
               b(1) = (  1.225542 -0.707567  0.377894 )  
               b(2) = (  0.000000  1.415134  0.377894 )  
               b(3) = ( -1.225542 -0.707567  0.377894 )  


     PseudoPot. # 1 for Ca read from file:
     ./Ca_PBE.UPF
     MD5 check sum: 403a4c14b9e4d4dfdc3024c9a3812218
     Pseudo is Ultrasoft + core correction, Zval = 10.0
     Generated by new atomic code, or converted to UPF format
     Using radial grid of  845 points,  6 beta functions with: 
                l(1) =   0
                l(2) =   0
                l(3) =   1
                l(4) =   1
                l(5) =   2
                l(6) =   2
     Q(r) pseudized with  8 coefficients,  rinner =    1.500   1.500   1.500
                                                       1.500   1.500

     PseudoPot. # 2 for C  read from file:
     ./C_PBE.UPF
     MD5 check sum: d1aef80898a10debaa0f26306b886e00
     Pseudo is Ultrasoft + core correction, Zval =  4.0
     Generated by new atomic code, or converted to UPF format
     Using radial grid of  721 points,  4 beta functions with: 
                l(1) =   0
                l(2) =   0
                l(3) =   1
                l(4) =   1
     Q(r) pseudized with  8 coefficients,  rinner =    1.100   1.100   1.100


     PseudoPot. # 3 for O  read from file:
     ./O_PBE.UPF
     MD5 check sum: 734c27235a0248c51dbae37a1fbe46ec
     Pseudo is Ultrasoft + core correction, Zval =  6.0
     Generated by new atomic code, or converted to UPF format
     Using radial grid of  737 points,  5 beta functions with: 
                l(1) =   0
                l(2) =   0
                l(3) =   1
                l(4) =   1
                l(5) =   2
     Q(r) pseudized with  8 coefficients,  rinner =    0.900   0.900   0.900
                                                       0.900   0.900

     atomic species   valence    mass     pseudopotential
        Ca            10.00    40.07800     Ca( 1.00)
        C              4.00    12.01070     C ( 1.00)
        O              6.00    16.00000     O ( 1.00)

     12 Sym. Ops., with inversion, found ( 6 have fractional translation)



   Cartesian axes

     site n.     atom                  positions (alat units)
         1           Ca  tau(   1) = (   0.0000000  -0.0000000   1.3231213  )
         2           Ca  tau(   2) = (   0.0000000   0.0000000   0.0000000  )
         3           C   tau(   3) = (   0.0000000  -0.0000000   0.6615607  )
         4           C   tau(   4) = (  -0.0000000  -0.0000000   1.9846820  )
         5           O   tau(   5) = (   0.1048585   0.2894777   1.5436415  )
         6           O   tau(   6) = (   0.1982658  -0.2355490   1.5436415  )
         7           O   tau(   7) = (  -0.3031243  -0.0539287   1.5436415  )
         8           O   tau(   8) = (  -0.1982658   0.2355490   1.1026011  )
         9           O   tau(   9) = (   0.3031243   0.0539287   1.1026011  )
        10           O   tau(  10) = (  -0.1048585  -0.2894777   1.1026011  )

     number of k points=    44
                       cart. coord. in units 2pi/alat
        k(    1) = (   0.0000000   0.0000000   0.0000000), wk =   0.0058309
        k(    2) = (  -0.1750774  -0.1010810   0.0539849), wk =   0.0349854
        k(    3) = (  -0.3501548  -0.2021620   0.1079698), wk =   0.0349854
        k(    4) = (  -0.5252322  -0.3032429   0.1619547), wk =   0.0349854
        k(    5) = (  -0.1750774   0.1010810   0.1079698), wk =   0.0349854
        k(    6) = (  -0.3501548  -0.0000000   0.1619547), wk =   0.0699708
        k(    7) = (  -0.5252322  -0.1010810   0.2159396), wk =   0.0699708
        k(    8) = (   0.5252322   0.5054049  -0.1079698), wk =   0.0699708
        k(    9) = (   0.3501548   0.4043239  -0.0539849), wk =   0.0699708
        k(   10) = (   0.1750774   0.3032429   0.0000000), wk =   0.0349854
        k(   11) = (  -0.3501548   0.2021620   0.2159396), wk =   0.0349854
        k(   12) = (  -0.5252322   0.1010810   0.2699245), wk =   0.0699708
        k(   13) = (   0.5252322   0.7075668  -0.0539849), wk =   0.0699708
        k(   14) = (   0.3501548   0.6064859   0.0000000), wk =   0.0349854
        k(   15) = (  -0.5252322   0.3032429   0.3239094), wk =   0.0349854
        k(   16) = (   0.5252322   0.9097288   0.0000000), wk =   0.0349854
        k(   17) = (   0.0000000  -0.0000000   0.1619547), wk =   0.0116618
        k(   18) = (  -0.1750774  -0.1010810   0.2159396), wk =   0.0349854
        k(   19) = (  -0.3501548  -0.2021620   0.2699245), wk =   0.0349854
        k(   20) = (   0.7003096   0.4043239  -0.0539849), wk =   0.0349854
        k(   21) = (   0.5252322   0.3032429   0.0000000), wk =   0.0349854
        k(   22) = (   0.3501548   0.2021620   0.0539849), wk =   0.0349854
        k(   23) = (  -0.1750774   0.1010810   0.2699245), wk =   0.0349854
        k(   24) = (  -0.3501548   0.0000000   0.3239094), wk =   0.0699708
        k(   25) = (   0.7003096   0.6064859   0.0000000), wk =   0.0699708
        k(   26) = (   0.5252322   0.5054049   0.0539849), wk =   0.0699708
        k(   27) = (   0.3501548   0.4043239   0.1079698), wk =   0.0699708
        k(   28) = (  -0.3501548   0.2021620   0.3778943), wk =   0.0349854
        k(   29) = (   0.7003096   0.8086478   0.0539849), wk =   0.0699708
        k(   30) = (   0.5252322   0.7075668   0.1079698), wk =   0.0699708
        k(   31) = (   0.3501548   0.6064859   0.1619547), wk =   0.0699708
        k(   32) = (   0.7003096  -0.4043239  -0.2699245), wk =   0.0349854
        k(   33) = (   0.5252322  -0.5054049  -0.2159396), wk =   0.0699708
        k(   34) = (   0.5252322  -0.3032429  -0.1619547), wk =   0.0349854
        k(   35) = (   0.0000000  -0.0000000   0.3239094), wk =   0.0116618
        k(   36) = (  -0.1750774  -0.1010810   0.3778943), wk =   0.0349854
        k(   37) = (   0.8753870   0.5054049   0.0539849), wk =   0.0349854
        k(   38) = (   0.7003096   0.4043239   0.1079698), wk =   0.0349854
        k(   39) = (  -0.1750774   0.1010810   0.4318792), wk =   0.0349854
        k(   40) = (   0.8753870   0.7075668   0.1079698), wk =   0.0699708
        k(   41) = (   0.7003096   0.6064859   0.1619547), wk =   0.0699708
        k(   42) = (   0.8753870  -0.5054049  -0.2159396), wk =   0.0349854
        k(   43) = (   0.0000000   0.0000000   0.4858641), wk =   0.0116618
        k(   44) = (   1.0504643   0.6064859   0.1619547), wk =   0.0349854

     Dense  grid:    67537 G-vectors     FFT dimensions: (  64,  64,  64)

     Estimated max dynamical RAM per process >      14.64 MB

     Estimated total dynamical RAM >     995.31 MB

     Check: negative core charge=   -0.000003

     Initial potential from superposition of free atoms

     starting charge   63.98899, renormalised to   64.00000
     Starting wfcs are   52 randomized atomic wfcs

     total cpu time spent up to now is        7.1 secs

     Self-consistent Calculation

     iteration #  1     ecut=    70.00 Ry     beta= 0.70
     CG style diagonalization
     ethr =  1.00E-02,  avg # of iterations =  2.6

     total cpu time spent up to now is       18.8 secs

     total energy              =    -366.64401149 Ry
     Harris-Foulkes estimate   =    -367.87098380 Ry
     estimated scf accuracy    <       1.75579389 Ry

     iteration #  2     ecut=    70.00 Ry     beta= 0.70
     CG style diagonalization
     ethr =  2.74E-03,  avg # of iterations =  4.4

     total cpu time spent up to now is       36.9 secs

     total energy              =    -367.07070137 Ry
     Harris-Foulkes estimate   =    -367.94798712 Ry
     estimated scf accuracy    <       1.83528930 Ry

     iteration #  3     ecut=    70.00 Ry     beta= 0.70
     CG style diagonalization
     ethr =  2.74E-03,  avg # of iterations =  3.8

     total cpu time spent up to now is       52.5 secs

     total energy              =    -367.41307068 Ry
     Harris-Foulkes estimate   =    -367.41567577 Ry
     estimated scf accuracy    <       0.01139176 Ry

     iteration #  4     ecut=    70.00 Ry     beta= 0.70
     CG style diagonalization
     ethr =  1.78E-05,  avg # of iterations =  4.5

     total cpu time spent up to now is       71.0 secs

     total energy              =    -367.42444299 Ry
     Harris-Foulkes estimate   =    -367.42584278 Ry
     estimated scf accuracy    <       0.00352195 Ry

     iteration #  5     ecut=    70.00 Ry     beta= 0.70
     CG style diagonalization
     ethr =  5.50E-06,  avg # of iterations =  3.5

     total cpu time spent up to now is       85.5 secs

     total energy              =    -367.42492367 Ry
     Harris-Foulkes estimate   =    -367.42497325 Ry
     estimated scf accuracy    <       0.00019288 Ry

     iteration #  6     ecut=    70.00 Ry     beta= 0.70
     CG style diagonalization
     ethr =  3.01E-07,  avg # of iterations =  4.1

     total cpu time spent up to now is      102.3 secs

     total energy              =    -367.42497830 Ry
     Harris-Foulkes estimate   =    -367.42499573 Ry
     estimated scf accuracy    <       0.00002988 Ry

     iteration #  7     ecut=    70.00 Ry     beta= 0.70
     CG style diagonalization
     ethr =  4.67E-08,  avg # of iterations =  4.1

     total cpu time spent up to now is      119.0 secs

     total energy              =    -367.42499040 Ry
     Harris-Foulkes estimate   =    -367.42499266 Ry
     estimated scf accuracy    <       0.00000491 Ry

     iteration #  8     ecut=    70.00 Ry     beta= 0.70
     CG style diagonalization
     ethr =  7.67E-09,  avg # of iterations =  4.0

     total cpu time spent up to now is      135.4 secs

     total energy              =    -367.42499166 Ry
     Harris-Foulkes estimate   =    -367.42499170 Ry
     estimated scf accuracy    <       0.00000008 Ry

     iteration #  9     ecut=    70.00 Ry     beta= 0.70
     CG style diagonalization
     ethr =  1.20E-10,  avg # of iterations =  4.6

     total cpu time spent up to now is      154.2 secs

     total energy              =    -367.42499174 Ry
     Harris-Foulkes estimate   =    -367.42499174 Ry
     estimated scf accuracy    <       0.00000001 Ry

     iteration # 10     ecut=    70.00 Ry     beta= 0.70
     CG style diagonalization
     ethr =  2.05E-11,  avg # of iterations =  3.8

     total cpu time spent up to now is      169.9 secs

     End of self-consistent calculation

          k = 0.0000 0.0000 0.0000 (  8385 PWs)   bands (ev):

   -33.6483 -33.6346 -16.7532 -16.7448 -15.0713 -15.0713 -14.7082 -14.7082
   -14.6371 -14.5110 -13.7362 -13.7362 -13.1839 -13.1839  -3.3174  -3.0792
    -1.4999  -1.4383  -1.4383  -1.1923  -1.1923  -0.0920   2.4061   2.4061
     2.7458   2.7458   2.9725   2.9725   3.6723   3.6723   3.7529   4.1990

          k =-0.1751-0.1011 0.0540 (  8415 PWs)   bands (ev):

   -33.6476 -33.6353 -16.7729 -16.7233 -15.0692 -15.0093 -14.7721 -14.7026
   -14.6537 -14.5910 -13.6964 -13.5996 -13.2633 -13.2011  -3.2445  -3.0948
    -1.4441  -1.4088  -1.3675  -1.2159  -1.1846  -0.1855   2.4427   2.4898
     2.6820   2.7442   2.8246   2.8943   3.5494   3.5786   3.9222   4.1912

          k =-0.3502-0.2022 0.1080 (  8421 PWs)   bands (ev):

   -33.6455 -33.6370 -16.7943 -16.6938 -15.0605 -14.9378 -14.9181 -14.7538
   -14.6150 -14.6040 -13.6040 -13.4295 -13.4082 -13.2551  -3.0996  -3.0951
    -1.4308  -1.3390  -1.2170  -1.1941  -1.1076  -0.3737   2.4204   2.4402
     2.6070   2.6109   2.7664   2.8482   3.3611   3.3905   4.1538   4.1834

          k =-0.5252-0.3032 0.1620 (  8441 PWs)   bands (ev):

   -33.6426 -33.6396 -16.7704 -16.7155 -15.0013 -14.9574 -14.9418 -14.8666
   -14.5955 -14.5673 -13.4965 -13.4300 -13.3948 -13.3526  -3.0444  -3.0180
    -1.4403  -1.3683  -1.1693  -1.1502  -0.8187  -0.5673   2.2061   2.2783
     2.5402   2.5782   2.8628   2.9301   3.2192   3.2312   4.2181   4.2550

          k =-0.1751 0.1011 0.1080 (  8414 PWs)   bands (ev):

   -33.6474 -33.6354 -16.7756 -16.7216 -15.0383 -15.0362 -14.7528 -14.7090
   -14.6477 -14.6239 -13.6457 -13.6278 -13.2445 -13.2315  -3.2397  -3.1063
    -1.4104  -1.3973  -1.3908  -1.2191  -1.1763  -0.2043   2.4456   2.4877
     2.6835   2.6994   2.8691   2.9110   3.4986   3.6108   3.9208   4.1798

          k =-0.3502-0.0000 0.1620 (  8415 PWs)   bands (ev):

   -33.6459 -33.6367 -16.7964 -16.6958 -15.0433 -15.0086 -14.8075 -14.7389
   -14.6437 -14.6314 -13.5882 -13.5305 -13.3229 -13.2616  -3.1285  -3.1163
    -1.4064  -1.3331  -1.3064  -1.1640  -1.1327  -0.3484   2.4283   2.5008
     2.5973   2.6469   2.7561   2.8884   3.3238   3.4932   4.1066   4.1699

          k =-0.5252-0.1011 0.2159 (  8424 PWs)   bands (ev):

   -33.6435 -33.6388 -16.7818 -16.7071 -15.0508 -14.9858 -14.8601 -14.8145
   -14.6134 -14.5821 -13.5605 -13.4891 -13.3457 -13.2950  -3.0612  -3.0360
    -1.4142  -1.3514  -1.2335  -1.1454  -0.8812  -0.5053   2.2490   2.3617
     2.5347   2.5538   2.7883   2.9136   3.1996   3.3444   4.2107   4.2482

          k = 0.5252 0.5054-0.1080 (  8431 PWs)   bands (ev):

   -33.6415 -33.6407 -16.7653 -16.7222 -15.0356 -14.9699 -14.9208 -14.8204
   -14.6048 -14.5714 -13.5519 -13.4586 -13.3729 -13.3001  -3.0415  -2.9815
    -1.4477  -1.3571  -1.1866  -1.1287  -0.6991  -0.6412   2.1699   2.2444
     2.4839   2.5543   2.8144   2.8909   3.2306   3.2669   4.2384   4.2951

          k = 0.3502 0.4043-0.0540 (  8432 PWs)   bands (ev):

   -33.6442 -33.6381 -16.8080 -16.6742 -15.0825 -14.9828 -14.9036 -14.7403
   -14.6409 -14.5537 -13.6042 -13.4803 -13.3399 -13.2758  -3.0948  -2.9955
    -1.4675  -1.2852  -1.2107  -1.1511  -0.9665  -0.4713   2.2097   2.4336
     2.4965   2.5803   2.7165   2.9419   3.2504   3.3529   4.1821   4.2829

          k = 0.1751 0.3032 0.0000 (  8425 PWs)   bands (ev):

   -33.6464 -33.6362 -16.8006 -16.6888 -15.0358 -15.0226 -14.8012 -14.7343
   -14.6647 -14.6177 -13.5988 -13.5347 -13.3157 -13.2539  -3.1234  -3.1095
    -1.4308  -1.3203  -1.3004  -1.1902  -1.1599  -0.3120   2.4351   2.5474
     2.5538   2.6841   2.7164   2.8433   3.3880   3.4939   4.1083   4.1805

          k =-0.3502 0.2022 0.2159 (  8439 PWs)   bands (ev):

   -33.6453 -33.6372 -16.8235 -16.6657 -15.0658 -15.0268 -14.7539 -14.6943
   -14.6881 -14.6541 -13.5795 -13.5332 -13.3127 -13.2764  -3.1577  -3.0469
    -1.4329  -1.3189  -1.2658  -1.1344  -1.0507  -0.4292   2.3005   2.4708
     2.5429   2.7093   2.7350   2.9992   3.1596   3.5013   4.1247   4.1906

          k =-0.5252 0.1011 0.2699 (  8445 PWs)   bands (ev):

   -33.6438 -33.6385 -16.8259 -16.6607 -15.1117 -15.0131 -14.7980 -14.7213
   -14.6497 -14.5812 -13.6627 -13.4910 -13.3342 -13.2365  -3.1367  -2.9609
    -1.4484  -1.3213  -1.2284  -1.1117  -0.8747  -0.5237   2.1453   2.3730
     2.5184   2.6633   2.7397   2.9157   3.1464   3.4175   4.1374   4.3111

          k = 0.5252 0.7076-0.0540 (  8442 PWs)   bands (ev):

   -33.6418 -33.6403 -16.7737 -16.7195 -15.0755 -14.9598 -14.8556 -14.7731
   -14.6466 -14.5953 -13.6120 -13.4835 -13.3417 -13.2594  -3.0329  -2.9732
    -1.4069  -1.3782  -1.2364  -1.1035  -0.6824  -0.6035   2.1254   2.2217
     2.5163   2.5566   2.7405   2.7737   3.2461   3.3442   4.2516   4.3210

          k = 0.3502 0.6065 0.0000 (  8455 PWs)   bands (ev):

   -33.6423 -33.6398 -16.7869 -16.7003 -15.0705 -14.9927 -14.9127 -14.6930
   -14.6688 -14.5669 -13.6262 -13.4816 -13.3446 -13.2515  -3.0505  -2.9533
    -1.4734  -1.2576  -1.2566  -1.1225  -0.7628  -0.5605   2.1277   2.2738
     2.4662   2.5288   2.7278   2.8421   3.2979   3.2989   4.2354   4.3416

          k =-0.5252 0.3032 0.3239 (  8454 PWs)   bands (ev):

   -33.6436 -33.6386 -16.8599 -16.6160 -15.1440 -15.1211 -14.6953 -14.6775
   -14.6576 -14.5196 -13.7295 -13.6216 -13.2409 -13.2061  -3.1924  -2.8659
    -1.5141  -1.2907  -1.1588  -1.0848  -0.8270  -0.5877   2.0185   2.3102
     2.5461   2.7549   2.7558   2.8132   3.1787   3.4049   4.0599   4.3910

          k = 0.5252 0.9097 0.0000 (  8457 PWs)   bands (ev):

   -33.6429 -33.6393 -16.8391 -16.6447 -15.1208 -15.0838 -14.7290 -14.6918
   -14.6668 -14.5524 -13.7154 -13.5659 -13.2718 -13.2121  -3.1441  -2.8750
    -1.4804  -1.3316  -1.1847  -1.0820  -0.7455  -0.5906   2.0093   2.2635
     2.5742   2.6736   2.7270   2.7371   3.2370   3.3704   4.1188   4.3996

          k = 0.0000-0.0000 0.1620 (  8419 PWs)   bands (ev):

   -33.6476 -33.6353 -16.7536 -16.7460 -15.0584 -15.0584 -14.7354 -14.7354
   -14.6298 -14.5162 -13.6998 -13.6998 -13.2062 -13.2062  -3.3154  -3.1056
    -1.4253  -1.4253  -1.4192  -1.2040  -1.2040  -0.1538   2.4237   2.4237
     2.7299   2.7299   3.0012   3.0012   3.6306   3.6306   3.7712   4.1692

          k =-0.1751-0.1011 0.2159 (  8414 PWs)   bands (ev):

   -33.6465 -33.6363 -16.7670 -16.7317 -15.0725 -14.9700 -14.8534 -14.6917
   -14.6514 -14.5660 -13.6855 -13.5402 -13.3141 -13.2105  -3.2501  -3.1186
    -1.4019  -1.3988  -1.2860  -1.2140  -1.2006  -0.2695   2.4501   2.5063
     2.6649   2.7163   2.8394   2.9854   3.4753   3.5318   3.9311   4.1585

          k =-0.3502-0.2022 0.2699 (  8423 PWs)   bands (ev):

   -33.6443 -33.6382 -16.7658 -16.7283 -15.0506 -14.9716 -14.8970 -14.7446
   -14.6267 -14.5841 -13.5969 -13.4356 -13.4185 -13.2542  -3.1397  -3.0729
    -1.3756  -1.3688  -1.2397  -1.2093  -0.9854  -0.4432   2.3852   2.4834
     2.5755   2.6045   2.7688   2.9514   3.2623   3.3563   4.1272   4.1923

          k = 0.7003 0.4043-0.0540 (  8430 PWs)   bands (ev):

   -33.6415 -33.6407 -16.7709 -16.7181 -15.0489 -14.9624 -14.9017 -14.8296
   -14.6105 -14.5595 -13.5255 -13.4857 -13.3790 -13.2980  -3.0922  -2.9735
    -1.4534  -1.3409  -1.2035  -1.1321  -0.7342  -0.6280   2.1799   2.2878
     2.5088   2.6199   2.8182   3.0286   3.1150   3.2493   4.1874   4.2801

          k = 0.5252 0.3032 0.0000 (  8414 PWs)   bands (ev):

   -33.6434 -33.6388 -16.8162 -16.6637 -15.0742 -15.0337 -14.8566 -14.7774
   -14.6328 -14.5312 -13.6079 -13.4671 -13.3482 -13.2805  -3.1124  -2.9459
    -1.4971  -1.2709  -1.2041  -1.1205  -0.8807  -0.5403   2.1157   2.3555
     2.4785   2.6605   2.7462   3.0522   3.1277   3.3153   4.1533   4.3180

          k = 0.3502 0.2022 0.0540 (  8429 PWs)   bands (ev):

   -33.6458 -33.6366 -16.8147 -16.6712 -15.0577 -15.0064 -14.8342 -14.7197
   -14.6538 -14.6214 -13.6034 -13.4739 -13.3591 -13.2588  -3.1252  -3.0659
    -1.4397  -1.3277  -1.2428  -1.1593  -1.1260  -0.3710   2.3468   2.4751
     2.6087   2.6624   2.6701   2.9283   3.2915   3.4764   4.1590   4.1754

          k =-0.1751 0.1011 0.2699 (  8421 PWs)   bands (ev):

   -33.6460 -33.6368 -16.7743 -16.7266 -15.0464 -14.9831 -14.8289 -14.7259
   -14.6282 -14.6127 -13.6160 -13.5543 -13.2983 -13.2595  -3.2357  -3.1476
    -1.3950  -1.3668  -1.2969  -1.1917  -1.1797  -0.3233   2.4606   2.5011
     2.6504   2.6693   2.9105   3.0247   3.3852   3.5633   3.9370   4.1293

          k =-0.3502 0.0000 0.3239 (  8434 PWs)   bands (ev):

   -33.6445 -33.6381 -16.7840 -16.7146 -15.0439 -14.9941 -14.8277 -14.7109
   -14.6769 -14.6126 -13.5632 -13.5207 -13.3364 -13.2834  -3.1394  -3.1314
    -1.3696  -1.3311  -1.3110  -1.1773  -0.9973  -0.4549   2.4158   2.4511
     2.6128   2.6589   2.7863   3.0020   3.2001   3.4458   4.1041   4.1454

          k = 0.7003 0.6065 0.0000 (  8418 PWs)   bands (ev):

   -33.6423 -33.6400 -16.7488 -16.7474 -15.0501 -14.9736 -14.8574 -14.7767
   -14.6274 -14.6120 -13.5731 -13.4622 -13.3823 -13.2753  -3.0797  -3.0263
    -1.4128  -1.3239  -1.2700  -1.1391  -0.7721  -0.5766   2.2488   2.2937
     2.5552   2.6128   2.7687   2.9304   3.1648   3.3108   4.2067   4.2417

          k = 0.5252 0.5054 0.0540 (  8435 PWs)   bands (ev):

   -33.6422 -33.6399 -16.8036 -16.6827 -15.0819 -15.0127 -14.8783 -14.7224
   -14.6444 -14.5559 -13.6382 -13.4668 -13.3610 -13.2459  -3.0947  -2.9268
    -1.4908  -1.2565  -1.2378  -1.1177  -0.7405  -0.6010   2.0900   2.2813
     2.4614   2.6289   2.7560   2.8991   3.2196   3.2939   4.1828   4.3474

          k = 0.3502 0.4043 0.1080 (  8435 PWs)   bands (ev):

   -33.6443 -33.6380 -16.8238 -16.6574 -15.1086 -14.9996 -14.8694 -14.6896
   -14.6681 -14.5537 -13.6553 -13.4571 -13.3628 -13.2407  -3.1218  -2.9686
    -1.4724  -1.2869  -1.2010  -1.1452  -0.9571  -0.4796   2.1681   2.4507
     2.4691   2.6183   2.7020   2.9673   3.1963   3.3991   4.1543   4.3056

          k =-0.3502 0.2022 0.3779 (  8445 PWs)   bands (ev):

   -33.6439 -33.6386 -16.8180 -16.6774 -15.0998 -14.9770 -14.7697 -14.7236
   -14.6811 -14.6133 -13.5859 -13.5376 -13.3122 -13.2780  -3.1821  -3.0427
    -1.4391  -1.3041  -1.2400  -1.1456  -0.9189  -0.5368   2.2841   2.4162
     2.5977   2.7135   2.8045   3.0086   3.0748   3.4528   4.0972   4.1980

          k = 0.7003 0.8086 0.0540 (  8439 PWs)   bands (ev):

   -33.6428 -33.6395 -16.8129 -16.6816 -15.0925 -15.0134 -14.7590 -14.7158
   -14.6686 -14.6236 -13.6191 -13.5379 -13.2978 -13.2639  -3.1351  -2.9713
    -1.4408  -1.3310  -1.2140  -1.1261  -0.7737  -0.5904   2.1518   2.3144
     2.5928   2.6969   2.7549   2.8158   3.1649   3.3723   4.1422   4.2989

          k = 0.5252 0.7076 0.1080 (  8449 PWs)   bands (ev):

   -33.6413 -33.6408 -16.7580 -16.7386 -15.0470 -14.9969 -14.8104 -14.7596
   -14.6669 -14.6272 -13.5755 -13.5254 -13.3109 -13.2795  -3.0143  -2.9931
    -1.4137  -1.3785  -1.2086  -1.1270  -0.6456  -0.6251   2.1403   2.1753
     2.5543   2.5827   2.7271   2.7387   3.2654   3.3167   4.2734   4.2988

          k = 0.3502 0.6065 0.1620 (  8443 PWs)   bands (ev):

   -33.6422 -33.6399 -16.7835 -16.7055 -15.0776 -14.9766 -14.8898 -14.7480
   -14.6347 -14.5779 -13.6257 -13.4748 -13.3494 -13.2521  -3.0458  -2.9586
    -1.4447  -1.3492  -1.1738  -1.1506  -0.7336  -0.5745   2.1254   2.2597
     2.4839   2.5321   2.7337   2.8186   3.2709   3.3276   4.2390   4.3361

          k = 0.7003-0.4043-0.2699 (  8442 PWs)   bands (ev):

   -33.6429 -33.6393 -16.8498 -16.6313 -15.1469 -15.0922 -14.6987 -14.6929
   -14.6663 -14.5233 -13.6908 -13.6393 -13.2296 -13.2280  -3.1884  -2.8741
    -1.5145  -1.2838  -1.1428  -1.1175  -0.7689  -0.6236   2.0342   2.2946
     2.5903   2.7099   2.7507   2.8311   3.1811   3.3627   4.0722   4.3794

          k = 0.5252-0.5054-0.2159 (  8447 PWs)   bands (ev):

   -33.6427 -33.6394 -16.8298 -16.6548 -15.1098 -15.0670 -14.7873 -14.6765
   -14.6641 -14.5558 -13.6961 -13.5364 -13.2978 -13.2181  -3.1312  -2.8887
    -1.4907  -1.3105  -1.1582  -1.1273  -0.7480  -0.5893   2.0309   2.2731
     2.5122   2.6741   2.7317   2.8063   3.2329   3.3417   4.1372   4.3856

          k = 0.5252-0.3032-0.1620 (  8436 PWs)   bands (ev):

   -33.6438 -33.6384 -16.8479 -16.6276 -15.1158 -15.1049 -14.7602 -14.6961
   -14.6629 -14.5151 -13.6969 -13.5557 -13.2819 -13.2244  -3.1651  -2.8913
    -1.5140  -1.2732  -1.1399  -1.1369  -0.8746  -0.5525   2.0476   2.3620
     2.4647   2.7230   2.7302   2.9758   3.1401   3.3806   4.0927   4.3679

          k = 0.0000-0.0000 0.3239 (  8425 PWs)   bands (ev):

   -33.6457 -33.6372 -16.7543 -16.7489 -15.0207 -15.0207 -14.8028 -14.8028
   -14.6097 -14.5312 -13.6063 -13.6063 -13.2704 -13.2704  -3.3055  -3.1669
    -1.3897  -1.3897  -1.2368  -1.2368  -1.2030  -0.3313   2.4727   2.4727
     2.6851   2.6851   3.0841   3.0841   3.5181   3.5181   3.8232   4.0925

          k =-0.1751-0.1011 0.3779 (  8425 PWs)   bands (ev):

   -33.6445 -33.6383 -16.7585 -16.7444 -15.0492 -14.9270 -14.9211 -14.7391
   -14.6264 -14.5610 -13.6175 -13.4641 -13.3882 -13.2572  -3.2493  -3.1609
    -1.3732  -1.3416  -1.2597  -1.2566  -1.0417  -0.4482   2.4717   2.5344
     2.6369   2.6421   2.9377   3.1245   3.3260   3.4477   3.9537   4.0981

          k = 0.8754 0.5054 0.0540 (  8424 PWs)   bands (ev):

   -33.6425 -33.6400 -16.7659 -16.7334 -15.0788 -14.9376 -14.9005 -14.7015
   -14.6693 -14.5707 -13.6071 -13.4434 -13.4134 -13.2522  -3.1731  -3.0581
    -1.4076  -1.2878  -1.2631  -1.2091  -0.8341  -0.5747   2.3294   2.4452
     2.6396   2.6504   2.7225   3.1094   3.1310   3.3007   4.1015   4.1950

          k = 0.7003 0.4043 0.1080 (  8433 PWs)   bands (ev):

   -33.6419 -33.6403 -16.8185 -16.6684 -15.1139 -15.0363 -14.7939 -14.7400
   -14.6473 -14.5335 -13.6013 -13.5989 -13.2880 -13.2494  -3.1530  -2.9128
    -1.5009  -1.2525  -1.2196  -1.1228  -0.7017  -0.6667   2.0916   2.3103
     2.5144   2.7012   2.7507   2.9638   3.1537   3.2796   4.1214   4.3376

          k =-0.1751 0.1011 0.4319 (  8426 PWs)   bands (ev):

   -33.6437 -33.6391 -16.7683 -16.7363 -15.0367 -14.9113 -14.9097 -14.7855
   -14.6001 -14.5946 -13.5668 -13.4502 -13.3913 -13.3028  -3.2251  -3.1962
    -1.3687  -1.3267  -1.2900  -1.2282  -0.9662  -0.5280   2.4949   2.5197
     2.6069   2.6380   3.0098   3.1612   3.2350   3.4483   3.9758   4.0613

          k = 0.8754 0.7076 0.1080 (  8430 PWs)   bands (ev):

   -33.6424 -33.6401 -16.7642 -16.7395 -15.0295 -15.0054 -14.8082 -14.7533
   -14.6479 -14.6158 -13.5362 -13.5189 -13.3362 -13.3132  -3.1470  -3.1443
    -1.3590  -1.3438  -1.2579  -1.2077  -0.8138  -0.6194   2.4088   2.4194
     2.6270   2.6532   2.8723   2.9972   3.2049   3.3397   4.1072   4.1213

          k = 0.7003 0.6065 0.1620 (  8435 PWs)   bands (ev):

   -33.6414 -33.6409 -16.7853 -16.7134 -15.0650 -14.9993 -14.8099 -14.6999
   -14.6669 -14.6416 -13.5701 -13.5389 -13.3210 -13.2747  -3.1153  -2.9948
    -1.4390  -1.3210  -1.1999  -1.1665  -0.6729  -0.6708   2.1904   2.2894
     2.6177   2.6694   2.7281   2.8513   3.2248   3.2769   4.1684   4.2729

          k = 0.8754-0.5054-0.2159 (  8437 PWs)   bands (ev):

   -33.6420 -33.6405 -16.7979 -16.7020 -15.1033 -14.9288 -14.8592 -14.7153
   -14.6657 -14.5806 -13.6120 -13.4883 -13.3623 -13.2581  -3.1886  -3.0480
    -1.4341  -1.2846  -1.2158  -1.2010  -0.7463  -0.6781   2.2943   2.4091
     2.6482   2.6835   2.7996   2.9736   3.1606   3.3427   4.0887   4.1980

          k = 0.0000 0.0000 0.4859 (  8431 PWs)   bands (ev):

   -33.6430 -33.6399 -16.7540 -16.7521 -14.9608 -14.9608 -14.8845 -14.8845
   -14.5825 -14.5545 -13.4869 -13.4869 -13.3685 -13.3685  -3.2793  -3.2315
    -1.3393  -1.3393  -1.2849  -1.2849  -0.9084  -0.5982   2.5428   2.5428
     2.6187   2.6187   3.2119   3.2119   3.3663   3.3663   3.9012   3.9957

          k = 1.0505 0.6065 0.1620 (  8412 PWs)   bands (ev):

   -33.6418 -33.6410 -16.7577 -16.7478 -15.0196 -14.9635 -14.8714 -14.8073
   -14.6017 -14.5745 -13.5315 -13.4575 -13.3959 -13.3251  -3.2326  -3.2003
    -1.3501  -1.2945  -1.2932  -1.2747  -0.7853  -0.6961   2.5053   2.5426
     2.6034   2.6068   3.0665   3.1678   3.2739   3.3283   3.9983   4.0323

     highest occupied level (ev):     4.3996

!    total energy              =    -367.42499174 Ry
     Harris-Foulkes estimate   =    -367.42499174 Ry
     estimated scf accuracy    <          3.2E-09 Ry

     The total energy is the sum of the following terms:

     one-electron contribution =    -143.49927294 Ry
     hartree contribution      =     101.23267830 Ry
     xc contribution           =     -75.10309748 Ry
     ewald contribution        =    -250.05529961 Ry

     convergence has been achieved in  10 iterations

     Forces acting on atoms (cartesian axes, Ry/au):

     atom    1 type  1   force =    -0.00000000   -0.00000000   -0.00000000
     atom    2 type  1   force =     0.00000000    0.00000000    0.00000000
     atom    3 type  2   force =    -0.00000000   -0.00000000    0.00000000
     atom    4 type  2   force =     0.00000000   -0.00000000    0.00000000
     atom    5 type  3   force =    -0.02453430    0.04249465    0.00000000
     atom    6 type  3   force =     0.04906859    0.00000000    0.00000000
     atom    7 type  3   force =    -0.02453430   -0.04249465   -0.00000000
     atom    8 type  3   force =    -0.04906859   -0.00000000    0.00000000
     atom    9 type  3   force =     0.02453430    0.04249465    0.00000000
     atom   10 type  3   force =     0.02453430   -0.04249465   -0.00000000

     Total force =     0.120193     Total SCF correction =     0.000039


     Computing stress (Cartesian axis) and pressure

          total   stress  (Ry/bohr**3)                   (kbar)     P=  -39.11
  -0.00046142  -0.00000000  -0.00000000        -67.88     -0.00     -0.00
   0.00000000  -0.00046142  -0.00000000          0.00    -67.88     -0.00
   0.00000000  -0.00000000   0.00012532          0.00     -0.00     18.44


     BFGS Geometry Optimization

     number of scf cycles    =   1
     number of bfgs steps    =   0

     energy   new            =    -367.4249917370 Ry

     new trust radius        =       0.0490685920 bohr
     new conv_thr            =       0.0000000100 Ry


ATOMIC_POSITIONS (crystal)
Ca       0.500000000   0.500000000   0.500000000
Ca       0.000000000   0.000000000   0.000000000
C        0.250000000   0.250000000   0.250000000
C        0.750000000   0.750000000   0.750000000
O        0.501954822   0.998045178   0.250000000
O        0.998045178   0.250000000   0.501954822
O        0.250000000   0.501954822   0.998045178
O        0.001954822   0.750000000   0.498045178
O        0.750000000   0.498045178   0.001954822
O        0.498045178   0.001954822   0.750000000



     Writing output data file CCO_rand3.save/
     NEW-OLD atomic charge density approx. for the potential

     Check: negative core charge=   -0.000003

     total cpu time spent up to now is      172.1 secs

     Self-consistent Calculation

     iteration #  1     ecut=    70.00 Ry     beta= 0.70
     CG style diagonalization
     c_bands:  2 eigenvalues not converged
     c_bands:  3 eigenvalues not converged
     c_bands:  1 eigenvalues not converged
     c_bands:  4 eigenvalues not converged
     c_bands:  2 eigenvalues not converged
     c_bands:  2 eigenvalues not converged
     c_bands:  1 eigenvalues not converged
     c_bands:  2 eigenvalues not converged
     c_bands:  4 eigenvalues not converged
     c_bands:  3 eigenvalues not converged
     c_bands:  4 eigenvalues not converged
     c_bands:  1 eigenvalues not converged
     c_bands:  2 eigenvalues not converged
     c_bands:  2 eigenvalues not converged
     c_bands:  5 eigenvalues not converged
     c_bands:  3 eigenvalues not converged
     c_bands:  2 eigenvalues not converged
     c_bands:  3 eigenvalues not converged
     c_bands:  4 eigenvalues not converged
     c_bands:  4 eigenvalues not converged
     c_bands:  5 eigenvalues not converged
     c_bands:  4 eigenvalues not converged
     c_bands:  3 eigenvalues not converged
     c_bands:  4 eigenvalues not converged
     c_bands:  4 eigenvalues not converged
     c_bands:  5 eigenvalues not converged
     c_bands:  3 eigenvalues not converged
     c_bands:  5 eigenvalues not converged
     c_bands:  4 eigenvalues not converged
     c_bands:  4 eigenvalues not converged
     c_bands:  3 eigenvalues not converged
     c_bands:  3 eigenvalues not converged
     c_bands:  3 eigenvalues not converged
     c_bands:  3 eigenvalues not converged
     c_bands:  3 eigenvalues not converged
     c_bands:  2 eigenvalues not converged
     ethr =  1.00E-06,  avg # of iterations = 11.1

     total cpu time spent up to now is      217.5 secs

     total energy              =    -367.42690893 Ry
     Harris-Foulkes estimate   =    -367.43331310 Ry
     estimated scf accuracy    <       0.00870124 Ry

     iteration #  2     ecut=    70.00 Ry     beta= 0.70
     CG style diagonalization
     ethr =  1.36E-05,  avg # of iterations =  4.0

     total cpu time spent up to now is      234.1 secs

     total energy              =    -367.42931121 Ry
     Harris-Foulkes estimate   =    -367.43159640 Ry
     estimated scf accuracy    <       0.00412104 Ry

     iteration #  3     ecut=    70.00 Ry     beta= 0.70
     CG style diagonalization
     ethr =  6.44E-06,  avg # of iterations =  3.6

     total cpu time spent up to now is      248.7 secs

     total energy              =    -367.43030136 Ry
     Harris-Foulkes estimate   =    -367.43034168 Ry
     estimated scf accuracy    <       0.00008646 Ry

     iteration #  4     ecut=    70.00 Ry     beta= 0.70
     CG style diagonalization
     ethr =  1.35E-07,  avg # of iterations =  4.2

     total cpu time spent up to now is      265.9 secs

     total energy              =    -367.43036306 Ry
     Harris-Foulkes estimate   =    -367.43037851 Ry
     estimated scf accuracy    <       0.00003989 Ry

     iteration #  5     ecut=    70.00 Ry     beta= 0.70
     CG style diagonalization
     ethr =  6.23E-08,  avg # of iterations =  3.5

     total cpu time spent up to now is      280.3 secs

     total energy              =    -367.43036795 Ry
     Harris-Foulkes estimate   =    -367.43036890 Ry
     estimated scf accuracy    <       0.00000165 Ry

     iteration #  6     ecut=    70.00 Ry     beta= 0.70
     CG style diagonalization
     ethr =  2.57E-09,  avg # of iterations =  4.1

     total cpu time spent up to now is      297.6 secs

     total energy              =    -367.43036856 Ry
     Harris-Foulkes estimate   =    -367.43036865 Ry
     estimated scf accuracy    <       0.00000019 Ry

     iteration #  7     ecut=    70.00 Ry     beta= 0.70
     CG style diagonalization
     ethr =  2.98E-10,  avg # of iterations =  4.1

     total cpu time spent up to now is      314.2 secs

     total energy              =    -367.43036863 Ry
     Harris-Foulkes estimate   =    -367.43036865 Ry
     estimated scf accuracy    <       0.00000003 Ry

     iteration #  8     ecut=    70.00 Ry     beta= 0.70
     CG style diagonalization
     ethr =  4.23E-11,  avg # of iterations =  3.9

     total cpu time spent up to now is      330.2 secs

     End of self-consistent calculation

          k = 0.0000 0.0000 0.0000 (  8385 PWs)   bands (ev):

   -33.7300 -33.7168 -17.0758 -17.0407 -15.1309 -15.1309 -14.7808 -14.7808
   -14.7125 -14.6301 -13.8881 -13.8881 -13.3604 -13.3604  -3.2440  -2.9715
    -1.6628  -1.4907  -1.4907  -1.2532  -1.2532  -0.3260   2.4312   2.4312
     2.7326   2.7326   2.9654   2.9654   3.6763   3.6763   3.8879   4.3172

          k =-0.1751-0.1011 0.0540 (  8415 PWs)   bands (ev):

   -33.7293 -33.7174 -17.0898 -17.0246 -15.1294 -15.0731 -14.8489 -14.7783
   -14.7290 -14.6959 -13.8495 -13.7565 -13.4369 -13.3761  -3.1690  -2.9868
    -1.5968  -1.4638  -1.4332  -1.2798  -1.2473  -0.4106   2.4632   2.5052
     2.6767   2.7384   2.8170   2.8921   3.5682   3.5871   4.0351   4.3072

          k =-0.3502-0.2022 0.1080 (  8421 PWs)   bands (ev):

   -33.7273 -33.7191 -17.1031 -17.0052 -15.1225 -15.0038 -14.9900 -14.8249
   -14.7088 -14.6938 -13.7610 -13.5927 -13.5750 -13.4256  -3.0168  -2.9871
    -1.5323  -1.4015  -1.2828  -1.2628  -1.2402  -0.5803   2.4218   2.4435
     2.6069   2.6101   2.7824   2.8536   3.3781   3.4064   4.2618   4.2959

          k =-0.5252-0.3032 0.1620 (  8441 PWs)   bands (ev):

   -33.7245 -33.7216 -17.0785 -17.0285 -15.0654 -15.0239 -15.0080 -14.9333
   -14.6909 -14.6656 -13.6578 -13.5923 -13.5599 -13.5168  -2.9402  -2.9236
    -1.5222  -1.4424  -1.2436  -1.2254  -0.9829  -0.7533   2.2093   2.2790
     2.5426   2.5751   2.8821   2.9422   3.2372   3.2511   4.3277   4.3622

          k =-0.1751 0.1011 0.1080 (  8414 PWs)   bands (ev):

   -33.7291 -33.7176 -17.0915 -17.0236 -15.0995 -15.0992 -14.8302 -14.7838
   -14.7292 -14.7226 -13.7993 -13.7846 -13.4186 -13.4057  -3.1643  -2.9997
    -1.5688  -1.4531  -1.4491  -1.2842  -1.2389  -0.4279   2.4665   2.5028
     2.6758   2.6952   2.8677   2.9043   3.5138   3.6189   4.0372   4.2960

          k =-0.3502-0.0000 0.1620 (  8415 PWs)   bands (ev):

   -33.7276 -33.7188 -17.1053 -17.0058 -15.1067 -15.0732 -14.8831 -14.8205
   -14.7270 -14.7181 -13.7455 -13.6898 -13.4935 -13.4328  -3.0481  -3.0097
    -1.5051  -1.4158  -1.3700  -1.2460  -1.2278  -0.5586   2.4345   2.5120
     2.5957   2.6453   2.7605   2.8953   3.3381   3.5078   4.2166   4.2831

          k =-0.5252-0.1011 0.2159 (  8424 PWs)   bands (ev):

   -33.7253 -33.7208 -17.0891 -17.0199 -15.1129 -15.0541 -14.9315 -14.8837
   -14.7050 -14.6766 -13.7176 -13.6520 -13.5105 -13.4646  -2.9560  -2.9454
    -1.4978  -1.4241  -1.3147  -1.2158  -1.0317  -0.6987   2.2531   2.3658
     2.5360   2.5525   2.8031   2.9282   3.2156   3.3633   4.3210   4.3543

          k = 0.5252 0.5054-0.1080 (  8431 PWs)   bands (ev):

   -33.7234 -33.7226 -17.0720 -17.0360 -15.0994 -15.0354 -14.9878 -14.8915
   -14.6961 -14.6710 -13.7089 -13.6197 -13.5380 -13.4689  -2.9396  -2.8826
    -1.5260  -1.4371  -1.2646  -1.2029  -0.8764  -0.8153   2.1731   2.2478
     2.4877   2.5540   2.8312   2.9073   3.2474   3.2864   4.3454   4.4020

          k = 0.3502 0.4043-0.0540 (  8432 PWs)   bands (ev):

   -33.7260 -33.7201 -17.1118 -16.9925 -15.1444 -15.0476 -14.9713 -14.8157
   -14.7249 -14.6539 -13.7619 -13.6417 -13.5055 -13.4462  -2.9867  -2.9070
    -1.5509  -1.3585  -1.2826  -1.2207  -1.1242  -0.6662   2.2129   2.4318
     2.5066   2.5741   2.7368   2.9511   3.2645   3.3722   4.2924   4.3893

          k = 0.1751 0.3032 0.0000 (  8425 PWs)   bands (ev):

   -33.7281 -33.7183 -17.1097 -16.9992 -15.0976 -15.0881 -14.8728 -14.8257
   -14.7381 -14.7081 -13.7547 -13.6949 -13.4869 -13.4254  -3.0438  -3.0003
    -1.5390  -1.4034  -1.3644  -1.2899  -1.2251  -0.5253   2.4389   2.5515
     2.5616   2.6880   2.7159   2.8466   3.4040   3.5076   4.2176   4.2933

          k =-0.3502 0.2022 0.2159 (  8439 PWs)   bands (ev):

   -33.7271 -33.7193 -17.1258 -16.9831 -15.1280 -15.0933 -14.8352 -14.7901
   -14.7618 -14.7292 -13.7354 -13.6916 -13.4828 -13.4498  -3.0511  -2.9653
    -1.4942  -1.3894  -1.3864  -1.1993  -1.1666  -0.6334   2.3081   2.4901
     2.5402   2.7021   2.7424   3.0082   3.1719   3.5148   4.2379   4.3012

          k =-0.5252 0.1011 0.2699 (  8445 PWs)   bands (ev):

   -33.7256 -33.7205 -17.1251 -16.9823 -15.1714 -15.0824 -14.8765 -14.7931
   -14.7282 -14.6795 -13.8151 -13.6502 -13.5029 -13.4104  -3.0301  -2.8726
    -1.5102  -1.4013  -1.3358  -1.1786  -1.0195  -0.7165   2.1539   2.3906
     2.5181   2.6584   2.7495   2.9283   3.1616   3.4345   4.2484   4.4178

          k = 0.5252 0.7076-0.0540 (  8442 PWs)   bands (ev):

   -33.7237 -33.7222 -17.0791 -17.0326 -15.1358 -15.0316 -14.9324 -14.8515
   -14.7281 -14.6868 -13.7643 -13.6414 -13.5109 -13.4317  -2.9295  -2.8753
    -1.4893  -1.4457  -1.3359  -1.1739  -0.8472  -0.7871   2.1340   2.2309
     2.5170   2.5560   2.7572   2.7916   3.2641   3.3624   4.3581   4.4255

          k = 0.3502 0.6065 0.0000 (  8455 PWs)   bands (ev):

   -33.7242 -33.7218 -17.0909 -17.0167 -15.1350 -15.0563 -14.9804 -14.7818
   -14.7420 -14.6673 -13.7807 -13.6409 -13.5110 -13.4232  -2.9454  -2.8568
    -1.5540  -1.3467  -1.3258  -1.1952  -0.9374  -0.7398   2.1315   2.2822
     2.4680   2.5287   2.7470   2.8575   3.3119   3.3197   4.3423   4.4463

          k =-0.5252 0.3032 0.3239 (  8454 PWs)   bands (ev):

   -33.7254 -33.7206 -17.1525 -16.9484 -15.2046 -15.1802 -14.7682 -14.7506
   -14.7324 -14.6337 -13.8785 -13.7758 -13.4129 -13.3823  -3.0845  -2.7764
    -1.5705  -1.3753  -1.2782  -1.1503  -0.9743  -0.7758   2.0292   2.3353
     2.5476   2.7438   2.7649   2.8265   3.1936   3.4211   4.1734   4.4976

          k = 0.5252 0.9097 0.0000 (  8457 PWs)   bands (ev):

   -33.7247 -33.7213 -17.1341 -16.9718 -15.1786 -15.1514 -14.8010 -14.7735
   -14.7401 -14.6581 -13.8635 -13.7214 -13.4432 -13.3876  -3.0372  -2.7816
    -1.5386  -1.4197  -1.2979  -1.1490  -0.9035  -0.7747   2.0198   2.2853
     2.5728   2.6719   2.7383   2.7505   3.2532   3.3880   4.2292   4.5045

          k = 0.0000-0.0000 0.1620 (  8419 PWs)   bands (ev):

   -33.7293 -33.7175 -17.0747 -17.0431 -15.1186 -15.1186 -14.8074 -14.8074
   -14.7075 -14.6333 -13.8528 -13.8528 -13.3815 -13.3815  -3.2415  -3.0031
    -1.5810  -1.4783  -1.4783  -1.2645  -1.2645  -0.3820   2.4467   2.4467
     2.7179   2.7179   2.9954   2.9954   3.6346   3.6346   3.9051   4.2885

          k =-0.1751-0.1011 0.2159 (  8414 PWs)   bands (ev):

   -33.7283 -33.7184 -17.0831 -17.0336 -15.1337 -15.0337 -14.9259 -14.7664
   -14.7300 -14.6729 -13.8403 -13.6982 -13.4853 -13.3844  -3.1735  -3.0170
    -1.5185  -1.4536  -1.3757  -1.2780  -1.2768  -0.4871   2.4683   2.5199
     2.6604   2.7080   2.8369   2.9864   3.4839   3.5480   4.0458   4.2760

          k =-0.3502-0.2022 0.2699 (  8423 PWs)   bands (ev):

   -33.7261 -33.7202 -17.0778 -17.0352 -15.1155 -15.0383 -14.9614 -14.8187
   -14.7127 -14.6852 -13.7555 -13.6008 -13.5810 -13.4240  -3.0541  -2.9705
    -1.4750  -1.4302  -1.3069  -1.2798  -1.1231  -0.6440   2.3928   2.4853
     2.5720   2.6046   2.7778   2.9658   3.2775   3.3749   4.2352   4.3057

          k = 0.7003 0.4043-0.0540 (  8430 PWs)   bands (ev):

   -33.7234 -33.7226 -17.0748 -17.0345 -15.1130 -15.0263 -14.9696 -14.8993
   -14.6989 -14.6640 -13.6843 -13.6443 -13.5457 -13.4660  -2.9939  -2.8737
    -1.5248  -1.4253  -1.2825  -1.2076  -0.8966  -0.8128   2.1844   2.2932
     2.5103   2.6169   2.8313   3.0450   3.1319   3.2719   4.2943   4.3898

          k = 0.5252 0.3032 0.0000 (  8414 PWs)   bands (ev):

   -33.7253 -33.7208 -17.1170 -16.9860 -15.1347 -15.0974 -14.9262 -14.8474
   -14.7184 -14.6369 -13.7635 -13.6273 -13.5149 -13.4511  -3.0052  -2.8544
    -1.5728  -1.3499  -1.2758  -1.1991  -1.0457  -0.7266   2.1217   2.3561
     2.4873   2.6526   2.7640   3.0619   3.1427   3.3370   4.2634   4.4255

          k = 0.3502 0.2022 0.0540 (  8429 PWs)   bands (ev):

   -33.7276 -33.7187 -17.1200 -16.9864 -15.1204 -15.0707 -14.9113 -14.7990
   -14.7375 -14.7077 -13.7593 -13.6351 -13.5279 -13.4311  -3.0158  -2.9844
    -1.5290  -1.3930  -1.3497  -1.2286  -1.2253  -0.5789   2.3518   2.4765
     2.6247   2.6636   2.6677   2.9333   3.3061   3.4914   4.2715   4.2846

          k =-0.1751 0.1011 0.2699 (  8421 PWs)   bands (ev):

   -33.7278 -33.7189 -17.0877 -17.0305 -15.1092 -15.0463 -14.9048 -14.7990
   -14.7150 -14.7088 -13.7734 -13.7109 -13.4700 -13.4319  -3.1590  -3.0486
    -1.4745  -1.4237  -1.4011  -1.2791  -1.2543  -0.5366   2.4788   2.5133
     2.6494   2.6601   2.9132   3.0222   3.3950   3.5709   4.0571   4.2472

          k =-0.3502 0.0000 0.3239 (  8434 PWs)   bands (ev):

   -33.7263 -33.7201 -17.0924 -17.0237 -15.1076 -15.0615 -14.8986 -14.8009
   -14.7514 -14.7038 -13.7227 -13.6791 -13.5055 -13.4536  -3.0568  -3.0313
    -1.4287  -1.4245  -1.3833  -1.2441  -1.1345  -0.6558   2.4246   2.4629
     2.6081   2.6571   2.7941   3.0127   3.2121   3.4605   4.2158   4.2592

          k = 0.7003 0.6065 0.0000 (  8418 PWs)   bands (ev):

   -33.7242 -33.7220 -17.0600 -17.0542 -15.1139 -15.0411 -14.9305 -14.8537
   -14.7121 -14.7056 -13.7283 -13.6234 -13.5483 -13.4463  -2.9857  -2.9258
    -1.4836  -1.3960  -1.3641  -1.2126  -0.9277  -0.7645   2.2560   2.3041
     2.5526   2.6121   2.7796   2.9467   3.1823   3.3317   4.3134   4.3510

          k = 0.5252 0.5054 0.0540 (  8435 PWs)   bands (ev):

   -33.7241 -33.7219 -17.1041 -17.0032 -15.1451 -15.0761 -14.9485 -14.7972
   -14.7261 -14.6610 -13.7909 -13.6255 -13.5287 -13.4182  -2.9903  -2.8306
    -1.5649  -1.3462  -1.3089  -1.1982  -0.9147  -0.7758   2.0964   2.2921
     2.4652   2.6240   2.7701   2.9148   3.2341   3.3167   4.2904   4.4536

          k = 0.3502 0.4043 0.1080 (  8435 PWs)   bands (ev):

   -33.7261 -33.7200 -17.1246 -16.9789 -15.1690 -15.0652 -14.9406 -14.7713
   -14.7419 -14.6547 -13.8100 -13.6191 -13.5283 -13.4137  -3.0132  -2.8810
    -1.5484  -1.3624  -1.2904  -1.2153  -1.1026  -0.6747   2.1739   2.4650
     2.4672   2.6143   2.7155   2.9775   3.2092   3.4176   4.2652   4.4121

          k =-0.3502 0.2022 0.3779 (  8445 PWs)   bands (ev):

   -33.7257 -33.7206 -17.1187 -16.9952 -15.1612 -15.0475 -14.8541 -14.7968
   -14.7587 -14.7037 -13.7422 -13.6941 -13.4848 -13.4488  -3.0808  -2.9590
    -1.4978  -1.3726  -1.3413  -1.2133  -1.0655  -0.7304   2.2926   2.4349
     2.5937   2.7081   2.8163   3.0177   3.0891   3.4653   4.2102   4.3097

          k = 0.7003 0.8086 0.0540 (  8439 PWs)   bands (ev):

   -33.7246 -33.7215 -17.1123 -17.0007 -15.1540 -15.0834 -14.8395 -14.7967
   -14.7426 -14.7161 -13.7715 -13.6946 -13.4691 -13.4367  -3.0323  -2.8804
    -1.5022  -1.4089  -1.3171  -1.1976  -0.9316  -0.7742   2.1618   2.3319
     2.5923   2.6883   2.7709   2.8265   3.1858   3.3889   4.2517   4.4060

          k = 0.5252 0.7076 0.1080 (  8449 PWs)   bands (ev):

   -33.7233 -33.7227 -17.0653 -17.0487 -15.1092 -15.0646 -14.8918 -14.8517
   -14.7405 -14.7116 -13.7285 -13.6807 -13.4821 -13.4517  -2.9126  -2.8935
    -1.4945  -1.4517  -1.3006  -1.2039  -0.8152  -0.8023   2.1510   2.1859
     2.5537   2.5801   2.7440   2.7573   3.2854   3.3356   4.3789   4.4035

          k = 0.3502 0.6065 0.1620 (  8443 PWs)   bands (ev):

   -33.7241 -33.7219 -17.0879 -17.0210 -15.1396 -15.0430 -14.9631 -14.8240
   -14.7183 -14.6756 -13.7791 -13.6343 -13.5164 -13.4241  -2.9412  -2.8618
    -1.5232  -1.4311  -1.2551  -1.2260  -0.9014  -0.7558   2.1308   2.2681
     2.4854   2.5320   2.7528   2.8349   3.2862   3.3466   4.3459   4.4408

          k = 0.7003-0.4043-0.2699 (  8442 PWs)   bands (ev):

   -33.7248 -33.7213 -17.1430 -16.9616 -15.2076 -15.1530 -14.7728 -14.7659
   -14.7398 -14.6380 -13.8400 -13.7932 -13.4032 -13.4020  -3.0828  -2.7827
    -1.5741  -1.3692  -1.2494  -1.1883  -0.9291  -0.8029   2.0444   2.3188
     2.5895   2.7218   2.7397   2.8441   3.2012   3.3786   4.1837   4.4865

          k = 0.5252-0.5054-0.2159 (  8447 PWs)   bands (ev):

   -33.7246 -33.7214 -17.1263 -16.9801 -15.1706 -15.1316 -14.8616 -14.7522
   -14.7391 -14.6636 -13.8456 -13.6927 -13.4682 -13.3927  -3.0249  -2.7945
    -1.5563  -1.3974  -1.2592  -1.1985  -0.9105  -0.7693   2.0403   2.2920
     2.5144   2.6673   2.7426   2.8230   3.2485   3.3614   4.2466   4.4909

          k = 0.5252-0.3032-0.1620 (  8436 PWs)   bands (ev):

   -33.7256 -33.7205 -17.1432 -16.9571 -15.1746 -15.1665 -14.8323 -14.7703
   -14.7402 -14.6249 -13.8483 -13.7121 -13.4519 -13.3990  -3.0566  -2.8017
    -1.5790  -1.3565  -1.2467  -1.2043  -1.0229  -0.7403   2.0567   2.3789
     2.4694   2.7127   2.7402   2.9902   3.1506   3.4001   4.2050   4.4748

          k = 0.0000-0.0000 0.3239 (  8425 PWs)   bands (ev):

   -33.7275 -33.7193 -17.0713 -17.0494 -15.0826 -15.0826 -14.8730 -14.8730
   -14.6939 -14.6427 -13.7627 -13.7627 -13.4424 -13.4424  -3.2300  -3.0743
    -1.4439  -1.4439  -1.3670  -1.2962  -1.2962  -0.5440   2.4899   2.4899
     2.6773   2.6773   3.0812   3.0812   3.5218   3.5218   3.9543   4.2144

          k =-0.1751-0.1011 0.3779 (  8425 PWs)   bands (ev):

   -33.7263 -33.7204 -17.0721 -17.0481 -15.1129 -14.9951 -14.9849 -14.8126
   -14.7111 -14.6660 -13.7756 -13.6247 -13.5557 -13.4282  -3.1701  -3.0685
    -1.4285  -1.4195  -1.3227  -1.3196  -1.1903  -0.6509   2.4859   2.5435
     2.6352   2.6393   2.9371   3.1285   3.3342   3.4584   4.0723   4.2175

          k = 0.8754 0.5054 0.0540 (  8424 PWs)   bands (ev):

   -33.7244 -33.7219 -17.0689 -17.0482 -15.1430 -15.0064 -14.9659 -14.7837
   -14.7444 -14.6741 -13.7650 -13.6032 -13.5801 -13.4227  -3.0832  -2.9631
    -1.4695  -1.3789  -1.3290  -1.2821  -0.9886  -0.7647   2.3385   2.4538
     2.6387   2.6436   2.7350   3.1236   3.1446   3.3189   4.2112   4.3087

          k = 0.7003 0.4043 0.1080 (  8433 PWs)   bands (ev):

   -33.7238 -33.7223 -17.1155 -16.9928 -15.1758 -15.0989 -14.8658 -14.8123
   -14.7261 -14.6448 -13.7567 -13.7516 -13.4598 -13.4204  -3.0507  -2.8177
    -1.5675  -1.3413  -1.2937  -1.2087  -0.8784  -0.8347   2.0996   2.3267
     2.5157   2.6932   2.7604   2.9797   3.1716   3.3009   4.2299   4.4463

          k =-0.1751 0.1011 0.4319 (  8426 PWs)   bands (ev):

   -33.7256 -33.7211 -17.0783 -17.0431 -15.0996 -14.9818 -14.9778 -14.8549
   -14.6930 -14.6899 -13.7259 -13.6111 -13.5592 -13.4723  -3.1455  -3.1058
    -1.4316  -1.3848  -1.3552  -1.2916  -1.1287  -0.7244   2.5070   2.5268
     2.6116   2.6335   3.0153   3.1631   3.2405   3.4554   4.0970   4.1809

          k = 0.8754 0.7076 0.1080 (  8430 PWs)   bands (ev):

   -33.7243 -33.7221 -17.0723 -17.0478 -15.0945 -15.0729 -14.8794 -14.8330
   -14.7327 -14.7073 -13.6962 -13.6780 -13.5043 -13.4821  -3.0603  -3.0514
    -1.4227  -1.4078  -1.3380  -1.2784  -0.9779  -0.8049   2.4185   2.4294
     2.6267   2.6530   2.8800   3.0064   3.2178   3.3537   4.2205   4.2352

          k = 0.7003 0.6065 0.1620 (  8435 PWs)   bands (ev):

   -33.7233 -33.7228 -17.0873 -17.0287 -15.1302 -15.0647 -14.8897 -14.7860
   -14.7419 -14.7309 -13.7257 -13.6939 -13.4920 -13.4462  -3.0169  -2.8996
    -1.5070  -1.3978  -1.2820  -1.2511  -0.8463  -0.8413   2.2000   2.3043
     2.6143   2.6657   2.7408   2.8660   3.2452   3.2964   4.2760   4.3812

          k = 0.8754-0.5054-0.2159 (  8437 PWs)   bands (ev):

   -33.7239 -33.7224 -17.0987 -17.0188 -15.1654 -14.9990 -14.9350 -14.7880
   -14.7446 -14.6805 -13.7683 -13.6460 -13.5324 -13.4290  -3.0933  -2.9597
    -1.4955  -1.3542  -1.2968  -1.2764  -0.9193  -0.8538   2.3032   2.4236
     2.6457   2.6812   2.8091   2.9854   3.1778   3.3553   4.2004   4.3108

          k = 0.0000 0.0000 0.4859 (  8431 PWs)   bands (ev):

   -33.7249 -33.7219 -17.0655 -17.0576 -15.0252 -15.0252 -14.9519 -14.9519
   -14.6758 -14.6575 -13.6484 -13.6484 -13.5355 -13.5355  -3.2007  -3.1474
    -1.3953  -1.3953  -1.3426  -1.3426  -1.0831  -0.7908   2.5515   2.5515
     2.6184   2.6184   3.2121   3.2121   3.3689   3.3689   4.0291   4.1205

          k = 1.0505 0.6065 0.1620 (  8412 PWs)   bands (ev):

   -33.7237 -33.7229 -17.0642 -17.0580 -15.0845 -15.0308 -14.9376 -14.8769
   -14.6943 -14.6733 -13.6925 -13.6223 -13.5594 -13.4928  -3.1489  -3.1155
    -1.4073  -1.3578  -1.3553  -1.3383  -0.9615  -0.8800   2.5137   2.5471
     2.6062   2.6104   3.0687   3.1749   3.2794   3.3349   4.1184   4.1530

     highest occupied level (ev):     4.5045

!    total energy              =    -367.43036864 Ry
     Harris-Foulkes estimate   =    -367.43036864 Ry
     estimated scf accuracy    <          1.1E-09 Ry

     The total energy is the sum of the following terms:

     one-electron contribution =    -147.12369202 Ry
     hartree contribution      =     103.01362807 Ry
     xc contribution           =     -75.28718857 Ry
     ewald contribution        =    -248.03311612 Ry

     convergence has been achieved in   8 iterations

     Forces acting on atoms (cartesian axes, Ry/au):

     atom    1 type  1   force =    -0.00000000   -0.00000000   -0.00000000
     atom    2 type  1   force =    -0.00000000    0.00000000    0.00000000
     atom    3 type  2   force =    -0.00000000   -0.00000000   -0.00000000
     atom    4 type  2   force =     0.00000000    0.00000000   -0.00000000
     atom    5 type  3   force =     0.00716155   -0.01240417   -0.00000000
     atom    6 type  3   force =    -0.01432310   -0.00000000   -0.00000000
     atom    7 type  3   force =     0.00716155    0.01240417    0.00000000
     atom    8 type  3   force =     0.01432310    0.00000000    0.00000000
     atom    9 type  3   force =    -0.00716155   -0.01240417   -0.00000000
     atom   10 type  3   force =    -0.00716155    0.01240417    0.00000000

     Total force =     0.035084     Total SCF correction =     0.000097


     Computing stress (Cartesian axis) and pressure

          total   stress  (Ry/bohr**3)                   (kbar)     P=    4.36
   0.00000773  -0.00000000   0.00000000          1.14     -0.00      0.00
   0.00000000   0.00000773   0.00000000          0.00      1.14      0.00
   0.00000000   0.00000000   0.00007337          0.00      0.00     10.79


     number of scf cycles    =   2
     number of bfgs steps    =   1

     energy   old            =    -367.4249917370 Ry
     energy   new            =    -367.4303686403 Ry

     CASE: energy  _new < energy  _old

     new trust radius        =       0.0110868535 bohr
     new conv_thr            =       0.0000000014 Ry


ATOMIC_POSITIONS (crystal)
Ca       0.500000000   0.500000000   0.500000000
Ca      -0.000000000   0.000000000   0.000000000
C        0.250000000   0.250000000   0.250000000
C        0.750000000   0.750000000   0.750000000
O        0.503098591   0.996901409   0.250000000
O        0.996901409   0.250000000   0.503098591
O        0.250000000   0.503098591   0.996901409
O        0.003098591   0.750000000   0.496901409
O        0.750000000   0.496901409   0.003098591
O        0.496901409   0.003098591   0.750000000



     Writing output data file CCO_rand3.save/
     NEW-OLD atomic charge density approx. for the potential

     Check: negative core charge=   -0.000003

     total cpu time spent up to now is      332.1 secs

     Self-consistent Calculation

     iteration #  1     ecut=    70.00 Ry     beta= 0.70
     CG style diagonalization
     c_bands:  1 eigenvalues not converged
     c_bands:  1 eigenvalues not converged
     ethr =  1.00E-06,  avg # of iterations =  5.5

     total cpu time spent up to now is      355.3 secs

     total energy              =    -367.43062499 Ry
     Harris-Foulkes estimate   =    -367.43095614 Ry
     estimated scf accuracy    <       0.00044776 Ry

     iteration #  2     ecut=    70.00 Ry     beta= 0.70
     CG style diagonalization
     ethr =  7.00E-07,  avg # of iterations =  4.0

     total cpu time spent up to now is      371.6 secs

     total energy              =    -367.43076129 Ry
     Harris-Foulkes estimate   =    -367.43087198 Ry
     estimated scf accuracy    <       0.00019720 Ry

     iteration #  3     ecut=    70.00 Ry     beta= 0.70
     CG style diagonalization
     ethr =  3.08E-07,  avg # of iterations =  3.6

     total cpu time spent up to now is      386.2 secs

     total energy              =    -367.43080847 Ry
     Harris-Foulkes estimate   =    -367.43080946 Ry
     estimated scf accuracy    <       0.00000257 Ry

     iteration #  4     ecut=    70.00 Ry     beta= 0.70
     CG style diagonalization
     ethr =  4.01E-09,  avg # of iterations =  4.5

     total cpu time spent up to now is      404.7 secs

     total energy              =    -367.43081097 Ry
     Harris-Foulkes estimate   =    -367.43081212 Ry
     estimated scf accuracy    <       0.00000306 Ry

     iteration #  5     ecut=    70.00 Ry     beta= 0.70
     CG style diagonalization
     ethr =  4.01E-09,  avg # of iterations =  3.6

     total cpu time spent up to now is      419.4 secs

     total energy              =    -367.43081121 Ry
     Harris-Foulkes estimate   =    -367.43081131 Ry
     estimated scf accuracy    <       0.00000022 Ry

     iteration #  6     ecut=    70.00 Ry     beta= 0.70
     CG style diagonalization
     ethr =  3.49E-10,  avg # of iterations =  3.6

     total cpu time spent up to now is      434.3 secs

     total energy              =    -367.43081125 Ry
     Harris-Foulkes estimate   =    -367.43081125 Ry
     estimated scf accuracy    <       0.00000002 Ry

     iteration #  7     ecut=    70.00 Ry     beta= 0.70
     CG style diagonalization
     ethr =  3.12E-11,  avg # of iterations =  3.8

     total cpu time spent up to now is      450.1 secs

     total energy              =    -367.43081125 Ry
     Harris-Foulkes estimate   =    -367.43081125 Ry
     estimated scf accuracy    <          4.3E-09 Ry

     iteration #  8     ecut=    70.00 Ry     beta= 0.70
     CG style diagonalization
     ethr =  6.74E-12,  avg # of iterations =  4.0

     total cpu time spent up to now is      466.3 secs

     End of self-consistent calculation

          k = 0.0000 0.0000 0.0000 (  8385 PWs)   bands (ev):

   -33.7115 -33.6982 -17.0016 -16.9717 -15.1171 -15.1171 -14.7644 -14.7644
   -14.6955 -14.6040 -13.8528 -13.8528 -13.3199 -13.3199  -3.2607  -2.9960
    -1.6249  -1.4789  -1.4789  -1.2396  -1.2396  -0.2720   2.4256   2.4256
     2.7353   2.7353   2.9668   2.9668   3.6753   3.6753   3.8567   4.2897

          k =-0.1751-0.1011 0.0540 (  8415 PWs)   bands (ev):

   -33.7108 -33.6988 -17.0167 -16.9545 -15.1155 -15.0585 -14.8313 -14.7612
   -14.7120 -14.6729 -13.8140 -13.7203 -13.3970 -13.3359  -3.1861  -3.0113
    -1.5601  -1.4514  -1.4194  -1.2657  -1.2333  -0.3586   2.4587   2.5018
     2.6775   2.7393   2.8185   2.8925   3.5645   3.5851   4.0082   4.2802

          k =-0.3502-0.2022 0.1080 (  8421 PWs)   bands (ev):

   -33.7088 -33.7005 -17.0316 -16.9331 -15.1082 -14.9887 -14.9735 -14.8087
   -14.6880 -14.6738 -13.7247 -13.5552 -13.5366 -13.3864  -3.0355  -3.0116
    -1.5072  -1.3872  -1.2680  -1.2474  -1.2115  -0.5327   2.4214   2.4428
     2.6078   2.6093   2.7785   2.8521   3.3744   3.4028   4.2364   4.2696

          k =-0.5252-0.3032 0.1620 (  8441 PWs)   bands (ev):

   -33.7060 -33.7030 -17.0072 -16.9561 -15.0506 -15.0086 -14.9928 -14.9180
   -14.6698 -14.6439 -13.6206 -13.5549 -13.5220 -13.4790  -2.9637  -2.9449
    -1.5029  -1.4252  -1.2270  -1.2085  -0.9457  -0.7107   2.2084   2.2787
     2.5419   2.5757   2.8776   2.9392   3.2332   3.2465   4.3021   4.3370

          k =-0.1751 0.1011 0.1080 (  8414 PWs)   bands (ev):

   -33.7106 -33.6990 -17.0186 -16.9533 -15.0852 -15.0850 -14.8127 -14.7667
   -14.7062 -14.7056 -13.7638 -13.7484 -13.3786 -13.3657  -3.1814  -3.0239
    -1.5313  -1.4405  -1.4363  -1.2699  -1.2248  -0.3762   2.4618   2.4995
     2.6772   2.6959   2.8679   2.9056   3.5107   3.6170   4.0097   4.2690

          k =-0.3502-0.0000 0.1620 (  8415 PWs)   bands (ev):

   -33.7092 -33.7002 -17.0339 -16.9339 -15.0921 -15.0583 -14.8659 -14.8019
   -14.7083 -14.6990 -13.7091 -13.6531 -13.4543 -13.3934  -3.0663  -3.0339
    -1.4789  -1.3981  -1.3557  -1.2236  -1.2123  -0.5101   2.4331   2.5095
     2.5959   2.6454   2.7593   2.8934   3.3350   3.5045   4.1907   4.2567

          k =-0.5252-0.1011 0.2159 (  8424 PWs)   bands (ev):

   -33.7068 -33.7023 -17.0180 -16.9475 -15.0985 -15.0385 -14.9152 -14.8679
   -14.6846 -14.6557 -13.6813 -13.6145 -13.4726 -13.4257  -2.9798  -2.9659
    -1.4777  -1.4073  -1.2963  -1.2001  -0.9982  -0.6543   2.2520   2.3648
     2.5358   2.5524   2.7996   2.9247   3.2120   3.3591   4.2952   4.3294

          k = 0.5252 0.5054-0.1080 (  8431 PWs)   bands (ev):

   -33.7049 -33.7041 -17.0009 -16.9635 -15.0847 -15.0203 -14.9724 -14.8752
   -14.6758 -14.6490 -13.6726 -13.5826 -13.5000 -13.4301  -2.9626  -2.9049
    -1.5078  -1.4184  -1.2470  -1.1863  -0.8360  -0.7758   2.1722   2.2469
     2.4867   2.5540   2.8273   2.9034   3.2435   3.2820   4.3203   4.3770

          k = 0.3502 0.4043-0.0540 (  8432 PWs)   bands (ev):

   -33.7075 -33.7016 -17.0414 -16.9189 -15.1301 -15.0327 -14.9558 -14.7986
   -14.7062 -14.6317 -13.7254 -13.6046 -13.4674 -13.4071  -3.0111  -2.9270
    -1.5310  -1.3415  -1.2665  -1.2051  -1.0888  -0.6215   2.2120   2.4321
     2.5043   2.5754   2.7320   2.9488   3.2613   3.3678   4.2666   4.3643

          k = 0.1751 0.3032 0.0000 (  8425 PWs)   bands (ev):

   -33.7097 -33.6997 -17.0382 -16.9272 -15.0834 -15.0731 -14.8564 -14.8053
   -14.7215 -14.6880 -13.7187 -13.6579 -13.4476 -13.3860  -3.0617  -3.0251
    -1.5109  -1.3848  -1.3501  -1.2698  -1.2105  -0.4761   2.4381   2.5506
     2.5599   2.6866   2.7159   2.8455   3.4005   3.5045   4.1918   4.2670

          k =-0.3502 0.2022 0.2159 (  8439 PWs)   bands (ev):

   -33.7086 -33.7007 -17.0558 -16.9097 -15.1136 -15.0781 -14.8169 -14.7687
   -14.7452 -14.7122 -13.6994 -13.6550 -13.4438 -13.4100  -3.0752  -2.9837
    -1.4799  -1.3711  -1.3590  -1.1848  -1.1425  -0.5863   2.3063   2.4858
     2.5405   2.7037   2.7406   3.0059   3.1691   3.5118   4.2115   4.2753

          k =-0.5252 0.1011 0.2699 (  8445 PWs)   bands (ev):

   -33.7071 -33.7020 -17.0557 -16.9080 -15.1576 -15.0666 -14.8586 -14.7768
   -14.7105 -14.6578 -13.7798 -13.6135 -13.4642 -13.3705  -3.0542  -2.8925
    -1.4961  -1.3827  -1.3102  -1.1636  -0.9878  -0.6722   2.1519   2.3866
     2.5180   2.6595   2.7470   2.9253   3.1581   3.4306   4.2224   4.3928

          k = 0.5252 0.7076-0.0540 (  8442 PWs)   bands (ev):

   -33.7052 -33.7037 -17.0083 -16.9602 -15.1219 -15.0152 -14.9149 -14.8338
   -14.7099 -14.6665 -13.7290 -13.6050 -13.4720 -13.3922  -2.9529  -2.8974
    -1.4702  -1.4302  -1.3126  -1.1581  -0.8101  -0.7452   2.1320   2.2288
     2.5167   2.5560   2.7533   2.7873   3.2599   3.3583   4.3332   4.4010

          k = 0.3502 0.6065 0.0000 (  8455 PWs)   bands (ev):

   -33.7057 -33.7032 -17.0204 -16.9436 -15.1201 -15.0416 -14.9648 -14.7619
   -14.7254 -14.6451 -13.7450 -13.6042 -13.4727 -13.3838  -2.9692  -2.8785
    -1.5352  -1.3255  -1.3106  -1.1789  -0.8976  -0.6990   2.1305   2.2803
     2.4675   2.5286   2.7425   2.8539   3.3087   3.3150   4.3173   4.4217

          k =-0.5252 0.3032 0.3239 (  8454 PWs)   bands (ev):

   -33.7069 -33.7021 -17.0845 -16.8720 -15.1906 -15.1666 -14.7517 -14.7341
   -14.7154 -14.6085 -13.8439 -13.7400 -13.3735 -13.3419  -3.1089  -2.7965
    -1.5579  -1.3559  -1.2490  -1.1356  -0.9423  -0.7326   2.0267   2.3296
     2.5471   2.7462   2.7627   2.8234   3.1901   3.4174   4.1469   4.4726

          k = 0.5252 0.9097 0.0000 (  8457 PWs)   bands (ev):

   -33.7062 -33.7027 -17.0656 -16.8964 -15.1652 -15.1360 -14.7846 -14.7548
   -14.7235 -14.6350 -13.8292 -13.6854 -13.4039 -13.3473  -3.0613  -2.8027
    -1.5256  -1.3994  -1.2707  -1.1339  -0.8685  -0.7326   2.0174   2.2803
     2.5730   2.6725   2.7353   2.7473   3.2495   3.3840   4.2034   4.4799

          k = 0.0000-0.0000 0.1620 (  8419 PWs)   bands (ev):

   -33.7109 -33.6989 -17.0008 -16.9739 -15.1047 -15.1047 -14.7911 -14.7911
   -14.6899 -14.6076 -13.8173 -13.8173 -13.3412 -13.3412  -3.2583  -3.0262
    -1.5435  -1.4663  -1.4663  -1.2509  -1.2509  -0.3294   2.4415   2.4415
     2.7203   2.7203   2.9965   2.9965   3.6336   3.6336   3.8742   4.2608

          k =-0.1751-0.1011 0.2159 (  8414 PWs)   bands (ev):

   -33.7098 -33.6998 -17.0102 -16.9634 -15.1196 -15.0191 -14.9093 -14.7495
   -14.7123 -14.6494 -13.8045 -13.6618 -13.4460 -13.3445  -3.1908  -3.0400
    -1.4883  -1.4412  -1.3569  -1.2627  -1.2621  -0.4369   2.4643   2.5169
     2.6612   2.7096   2.8372   2.9860   3.4819   3.5447   4.0187   4.2487

          k =-0.3502-0.2022 0.2699 (  8423 PWs)   bands (ev):

   -33.7076 -33.7017 -17.0057 -16.9640 -15.1005 -15.0230 -14.9467 -14.8018
   -14.6935 -14.6629 -13.7188 -13.5627 -13.5436 -13.3850  -3.0734  -2.9936
    -1.4507  -1.4162  -1.2919  -1.2639  -1.0929  -0.5978   2.3911   2.4847
     2.5727   2.6045   2.7755   2.9623   3.2740   3.3709   4.2098   4.2793

          k = 0.7003 0.4043-0.0540 (  8430 PWs)   bands (ev):

   -33.7049 -33.7041 -17.0043 -16.9615 -15.0982 -15.0116 -14.9540 -14.8834
   -14.6792 -14.6410 -13.6476 -13.6078 -13.5073 -13.4274  -3.0161  -2.8962
    -1.5083  -1.4052  -1.2648  -1.1906  -0.8600  -0.7705   2.1833   2.2918
     2.5098   2.6175   2.8281   3.0411   3.1281   3.2668   4.2692   4.3641

          k = 0.5252 0.3032 0.0000 (  8414 PWs)   bands (ev):

   -33.7068 -33.7023 -17.0472 -16.9117 -15.1207 -15.0827 -14.9103 -14.8314
   -14.6993 -14.6135 -13.7275 -13.5904 -13.4766 -13.4119  -3.0294  -2.8750
    -1.5550  -1.3314  -1.2598  -1.1810  -1.0086  -0.6840   2.1202   2.3558
     2.4852   2.6543   2.7598   3.0595   3.1393   3.3321   4.2376   4.4003

          k = 0.3502 0.2022 0.0540 (  8429 PWs)   bands (ev):

   -33.7091 -33.7002 -17.0494 -16.9134 -15.1059 -15.0559 -14.8938 -14.7809
   -14.7189 -14.6885 -13.7233 -13.5980 -13.4891 -13.3915  -3.0406  -3.0028
    -1.5065  -1.3781  -1.3244  -1.2105  -1.2081  -0.5309   2.3506   2.4762
     2.6209   2.6650   2.6662   2.9319   3.3029   3.4880   4.2453   4.2589

          k =-0.1751 0.1011 0.2699 (  8421 PWs)   bands (ev):

   -33.7093 -33.7003 -17.0153 -16.9599 -15.0947 -15.0318 -14.8876 -14.7823
   -14.6925 -14.6907 -13.7370 -13.6748 -13.4305 -13.3923  -3.1763  -3.0709
    -1.4528  -1.4109  -1.3774  -1.2597  -1.2402  -0.4873   2.4747   2.5107
     2.6494   2.6619   2.9124   3.0225   3.3929   3.5691   4.0290   4.2198

          k =-0.3502 0.0000 0.3239 (  8434 PWs)   bands (ev):

   -33.7078 -33.7016 -17.0210 -16.9520 -15.0929 -15.0461 -14.8824 -14.7808
   -14.7346 -14.6836 -13.6858 -13.6425 -13.4667 -13.4145  -3.0754  -3.0539
    -1.4153  -1.4004  -1.3681  -1.2291  -1.1046  -0.6095   2.4227   2.4601
     2.6090   2.6574   2.7922   3.0100   3.2093   3.4572   4.1896   4.2326

          k = 0.7003 0.6065 0.0000 (  8418 PWs)   bands (ev):

   -33.7057 -33.7034 -16.9880 -16.9831 -15.0992 -15.0256 -14.9138 -14.8362
   -14.6931 -14.6850 -13.6924 -13.5863 -13.5102 -13.4070  -3.0069  -2.9485
    -1.4673  -1.3780  -1.3434  -1.1960  -0.8929  -0.7215   2.2543   2.3017
     2.5531   2.6122   2.7769   2.9428   3.1783   3.3270   4.2884   4.3254

          k = 0.5252 0.5054 0.0540 (  8435 PWs)   bands (ev):

   -33.7056 -33.7034 -17.0344 -16.9292 -15.1305 -15.0615 -14.9324 -14.7802
   -14.7078 -14.6379 -13.7556 -13.5888 -13.4902 -13.3786  -3.0139  -2.8523
    -1.5477  -1.3250  -1.2931  -1.1798  -0.8753  -0.7361   2.0948   2.2896
     2.4642   2.6250   2.7667   2.9111   3.2307   3.3115   4.2652   4.4288

          k = 0.3502 0.4043 0.1080 (  8435 PWs)   bands (ev):

   -33.7076 -33.7015 -17.0548 -16.9047 -15.1550 -15.0501 -14.9243 -14.7530
   -14.7252 -14.6323 -13.7742 -13.5818 -13.4902 -13.3740  -3.0378  -2.9008
    -1.5303  -1.3451  -1.2690  -1.1995  -1.0711  -0.6299   2.1725   2.4617
     2.4675   2.6152   2.7121   2.9750   3.2062   3.4134   4.2393   4.3871

          k =-0.3502 0.2022 0.3779 (  8445 PWs)   bands (ev):

   -33.7072 -33.7020 -17.0489 -16.9217 -15.1470 -15.0315 -14.8349 -14.7801
   -14.7413 -14.6837 -13.7060 -13.6580 -13.4452 -13.4096  -3.1036  -2.9778
    -1.4845  -1.3571  -1.3166  -1.1980  -1.0335  -0.6859   2.2906   2.4306
     2.5945   2.7093   2.8135   3.0155   3.0857   3.4625   4.1838   4.2835

          k = 0.7003 0.8086 0.0540 (  8439 PWs)   bands (ev):

   -33.7061 -33.7030 -17.0428 -16.9269 -15.1398 -15.0675 -14.8210 -14.7783
   -14.7258 -14.6959 -13.7362 -13.6584 -13.4297 -13.3971  -3.0555  -2.9008
    -1.4883  -1.3910  -1.2925  -1.1814  -0.8965  -0.7322   2.1595   2.3279
     2.5924   2.6901   2.7672   2.8238   3.1810   3.3851   4.2261   4.3809

          k = 0.5252 0.7076 0.1080 (  8449 PWs)   bands (ev):

   -33.7047 -33.7042 -16.9940 -16.9768 -15.0949 -15.0491 -14.8733 -14.8312
   -14.7238 -14.6928 -13.6931 -13.6449 -13.4428 -13.4121  -2.9356  -2.9160
    -1.4758  -1.4348  -1.2793  -1.1864  -0.7768  -0.7622   2.1485   2.1834
     2.5537   2.5805   2.7400   2.7530   3.2808   3.3313   4.3542   4.3789

          k = 0.3502 0.6065 0.1620 (  8443 PWs)   bands (ev):

   -33.7056 -33.7034 -17.0173 -16.9480 -15.1253 -15.0277 -14.9464 -14.8067
   -14.6996 -14.6540 -13.7436 -13.5975 -13.4780 -13.3846  -2.9649  -2.8837
    -1.5048  -1.4121  -1.2364  -1.2090  -0.8636  -0.7145   2.1295   2.2662
     2.4849   2.5318   2.7484   2.8310   3.2827   3.3423   4.3208   4.4162

          k = 0.7003-0.4043-0.2699 (  8442 PWs)   bands (ev):

   -33.7063 -33.7028 -17.0748 -16.8856 -15.1936 -15.1390 -14.7559 -14.7494
   -14.7232 -14.6128 -13.8054 -13.7575 -13.3630 -13.3625  -3.1067  -2.8033
    -1.5606  -1.3495  -1.2238  -1.1721  -0.8937  -0.7621   2.0421   2.3132
     2.5896   2.7189   2.7421   2.8410   3.1966   3.3749   4.1576   4.4614

          k = 0.5252-0.5054-0.2159 (  8447 PWs)   bands (ev):

   -33.7061 -33.7029 -17.0574 -16.9051 -15.1566 -15.1168 -14.8447 -14.7350
   -14.7222 -14.6399 -13.8109 -13.6566 -13.4291 -13.3527  -3.0489  -2.8157
    -1.5413  -1.3774  -1.2352  -1.1823  -0.8743  -0.7283   2.0381   2.2877
     2.5138   2.6688   2.7399   2.8191   3.2449   3.3569   4.2210   4.4662

          k = 0.5252-0.3032-0.1620 (  8436 PWs)   bands (ev):

   -33.7071 -33.7019 -17.0746 -16.8813 -15.1610 -15.1523 -14.8159 -14.7534
   -14.7228 -14.6007 -13.8132 -13.6759 -13.4129 -13.3590  -3.0812  -2.8219
    -1.5640  -1.3374  -1.2207  -1.1891  -0.9908  -0.6973   2.0546   2.3751
     2.4681   2.7150   2.7377   2.9869   3.1481   3.3956   4.1788   4.4498

          k = 0.0000-0.0000 0.3239 (  8425 PWs)   bands (ev):

   -33.7090 -33.7007 -16.9982 -16.9795 -15.0683 -15.0683 -14.8570 -14.8570
   -14.6750 -14.6182 -13.7266 -13.7266 -13.4029 -13.4029  -3.2471  -3.0951
    -1.4317  -1.4317  -1.3291  -1.2829  -1.2829  -0.4949   2.4860   2.4860
     2.6789   2.6789   3.0817   3.0817   3.5208   3.5208   3.9240   4.1861

          k =-0.1751-0.1011 0.3779 (  8425 PWs)   bands (ev):

   -33.7078 -33.7018 -16.9996 -16.9776 -15.0982 -14.9795 -14.9703 -14.7959
   -14.6922 -14.6429 -13.7390 -13.5877 -13.5171 -13.3889  -3.1880  -3.0892
    -1.4160  -1.4004  -1.3083  -1.3054  -1.1576  -0.6042   2.4827   2.5415
     2.6355   2.6397   2.9370   3.1274   3.3322   3.4561   4.0445   4.1897

          k = 0.8754 0.5054 0.0540 (  8424 PWs)   bands (ev):

   -33.7059 -33.7034 -16.9986 -16.9755 -15.1282 -14.9906 -14.9509 -14.7653
   -14.7275 -14.6513 -13.7285 -13.5664 -13.5417 -13.3836  -3.1035  -2.9845
    -1.4554  -1.3567  -1.3146  -1.2655  -0.9540  -0.7212   2.3364   2.4518
     2.6388   2.6450   2.7319   3.1203   3.1414   3.3149   4.1855   4.2822

          k = 0.7003 0.4043 0.1080 (  8433 PWs)   bands (ev):

   -33.7053 -33.7038 -17.0465 -16.9180 -15.1615 -15.0845 -14.8494 -14.7959
   -14.7084 -14.6203 -13.7207 -13.7163 -13.4203 -13.3812  -3.0738  -2.8391
    -1.5522  -1.3201  -1.2772  -1.1888  -0.8384  -0.7968   2.0977   2.3229
     2.5153   2.6949   2.7580   2.9760   3.1675   3.2961   4.2045   4.4208

          k =-0.1751 0.1011 0.4319 (  8426 PWs)   bands (ev):

   -33.7071 -33.7025 -17.0066 -16.9719 -15.0851 -14.9654 -14.9626 -14.8391
   -14.6713 -14.6699 -13.6891 -13.5741 -13.5205 -13.4333  -3.1634  -3.1261
    -1.4170  -1.3717  -1.3401  -1.2773  -1.0920  -0.6792   2.5042   2.5252
     2.6104   2.6344   3.0139   3.1625   3.2392   3.4537   4.0688   4.1531

          k = 0.8754 0.7076 0.1080 (  8430 PWs)   bands (ev):

   -33.7058 -33.7036 -17.0009 -16.9763 -15.0795 -15.0574 -14.8631 -14.8149
   -14.7139 -14.6870 -13.6592 -13.6413 -13.4657 -13.4433  -3.0798  -3.0723
    -1.4080  -1.3932  -1.3193  -1.2623  -0.9409  -0.7624   2.4163   2.4270
     2.6267   2.6530   2.8780   3.0041   3.2148   3.3505   4.1940   4.2086

          k = 0.7003 0.6065 0.1620 (  8435 PWs)   bands (ev):

   -33.7048 -33.7043 -17.0172 -16.9558 -15.1152 -15.0497 -14.8717 -14.7662
   -14.7249 -14.7116 -13.6897 -13.6581 -13.4527 -13.4068  -3.0391  -2.9210
    -1.4914  -1.3799  -1.2632  -1.2316  -0.8067  -0.8032   2.1978   2.3009
     2.6150   2.6666   2.7376   2.8625   3.2406   3.2919   4.2508   4.3558

          k = 0.8754-0.5054-0.2159 (  8437 PWs)   bands (ev):

   -33.7054 -33.7039 -17.0289 -16.9456 -15.1511 -14.9831 -14.9177 -14.7716
   -14.7269 -14.6584 -13.7320 -13.6096 -13.4933 -13.3898  -3.1148  -2.9796
    -1.4815  -1.3382  -1.2780  -1.2591  -0.8802  -0.8138   2.3011   2.4202
     2.6463   2.6817   2.8067   2.9826   3.1739   3.3524   4.1743   4.2844

          k = 0.0000 0.0000 0.4859 (  8431 PWs)   bands (ev):

   -33.7064 -33.7034 -16.9934 -16.9868 -15.0104 -15.0104 -14.9364 -14.9364
   -14.6550 -14.6347 -13.6112 -13.6112 -13.4971 -13.4971  -3.2184  -3.1662
    -1.3827  -1.3827  -1.3297  -1.3297  -1.0428  -0.7464   2.5495   2.5495
     2.6184   2.6184   3.2118   3.2118   3.3681   3.3681   3.9995   4.0915

          k = 1.0505 0.6065 0.1620 (  8412 PWs)   bands (ev):

   -33.7052 -33.7044 -16.9932 -16.9862 -15.0696 -15.0154 -14.9225 -14.8611
   -14.6738 -14.6514 -13.6553 -13.5843 -13.5218 -13.4543  -3.1677  -3.1345
    -1.3944  -1.3434  -1.3411  -1.3239  -0.9211  -0.8378   2.5118   2.5460
     2.6055   2.6095   3.0679   3.1731   3.2780   3.3333   4.0904   4.1249

     highest occupied level (ev):     4.4799

!    total energy              =    -367.43081125 Ry
     Harris-Foulkes estimate   =    -367.43081125 Ry
     estimated scf accuracy    <          1.4E-10 Ry

     The total energy is the sum of the following terms:

     one-electron contribution =    -146.27537092 Ry
     hartree contribution      =     102.59641013 Ry
     xc contribution           =     -75.24455890 Ry
     ewald contribution        =    -248.50729156 Ry

     convergence has been achieved in   8 iterations

     Forces acting on atoms (cartesian axes, Ry/au):

     atom    1 type  1   force =     0.00000000   -0.00000000    0.00000000
     atom    2 type  1   force =    -0.00000000   -0.00000000    0.00000000
     atom    3 type  2   force =    -0.00000000    0.00000000    0.00000000
     atom    4 type  2   force =     0.00000000    0.00000000    0.00000000
     atom    5 type  3   force =    -0.00046597    0.00080709    0.00000000
     atom    6 type  3   force =     0.00093195    0.00000000   -0.00000000
     atom    7 type  3   force =    -0.00046597   -0.00080709   -0.00000000
     atom    8 type  3   force =    -0.00093195   -0.00000000    0.00000000
     atom    9 type  3   force =     0.00046597    0.00080709    0.00000000
     atom   10 type  3   force =     0.00046597   -0.00080709   -0.00000000

     Total force =     0.002283     Total SCF correction =     0.000000


     Computing stress (Cartesian axis) and pressure

          total   stress  (Ry/bohr**3)                   (kbar)     P=   -6.09
  -0.00010466  -0.00000000   0.00000000        -15.40     -0.00      0.00
   0.00000000  -0.00010466  -0.00000000          0.00    -15.40     -0.00
  -0.00000000  -0.00000000   0.00008504         -0.00     -0.00     12.51


     number of scf cycles    =   3
     number of bfgs steps    =   2

     energy   old            =    -367.4303686403 Ry
     energy   new            =    -367.4308112517 Ry

     CASE: energy  _new < energy  _old

     new trust radius        =       0.0006773068 bohr
     new conv_thr            =            1.0E-10 Ry


ATOMIC_POSITIONS (crystal)
Ca       0.500000000   0.500000000   0.500000000
Ca      -0.000000000   0.000000000   0.000000000
C        0.250000000   0.250000000   0.250000000
C        0.750000000   0.750000000   0.750000000
O        0.503028717   0.996971283   0.250000000
O        0.996971283   0.250000000   0.503028717
O        0.250000000   0.503028717   0.996971283
O        0.003028717   0.750000000   0.496971283
O        0.750000000   0.496971283   0.003028717
O        0.496971283   0.003028717   0.750000000



     Writing output data file CCO_rand3.save/
     NEW-OLD atomic charge density approx. for the potential

     Check: negative core charge=   -0.000003

     total cpu time spent up to now is      468.2 secs

     Self-consistent Calculation

     iteration #  1     ecut=    70.00 Ry     beta= 0.70
     CG style diagonalization
     ethr =  1.00E-06,  avg # of iterations =  2.3

     Threshold (ethr) on eigenvalues was too large:
     Diagonalizing with lowered threshold

     CG style diagonalization
     c_bands:  2 eigenvalues not converged
     c_bands:  1 eigenvalues not converged
     c_bands:  1 eigenvalues not converged
     c_bands:  1 eigenvalues not converged
     c_bands:  1 eigenvalues not converged
     ethr =  1.80E-09,  avg # of iterations =  5.4

     total cpu time spent up to now is      501.4 secs

     total energy              =    -367.43081256 Ry
     Harris-Foulkes estimate   =    -367.43081377 Ry
     estimated scf accuracy    <       0.00000164 Ry

     iteration #  2     ecut=    70.00 Ry     beta= 0.70
     CG style diagonalization
     ethr =  2.56E-09,  avg # of iterations =  4.0

     total cpu time spent up to now is      517.8 secs

     total energy              =    -367.43081302 Ry
     Harris-Foulkes estimate   =    -367.43081343 Ry
     estimated scf accuracy    <       0.00000073 Ry

     iteration #  3     ecut=    70.00 Ry     beta= 0.70
     CG style diagonalization
     ethr =  1.14E-09,  avg # of iterations =  3.6

     total cpu time spent up to now is      532.4 secs

     total energy              =    -367.43081320 Ry
     Harris-Foulkes estimate   =    -367.43081320 Ry
     estimated scf accuracy    <       0.00000001 Ry

     iteration #  4     ecut=    70.00 Ry     beta= 0.70
     CG style diagonalization
     ethr =  2.04E-11,  avg # of iterations =  4.3

     total cpu time spent up to now is      550.2 secs

     total energy              =    -367.43081321 Ry
     Harris-Foulkes estimate   =    -367.43081321 Ry
     estimated scf accuracy    <       0.00000001 Ry

     iteration #  5     ecut=    70.00 Ry     beta= 0.70
     CG style diagonalization
     ethr =  1.67E-11,  avg # of iterations =  3.5

     total cpu time spent up to now is      564.5 secs

     total energy              =    -367.43081321 Ry
     Harris-Foulkes estimate   =    -367.43081321 Ry
     estimated scf accuracy    <          6.5E-10 Ry

     iteration #  6     ecut=    70.00 Ry     beta= 0.70
     CG style diagonalization
     ethr =  1.01E-12,  avg # of iterations =  4.0

     total cpu time spent up to now is      580.8 secs

     End of self-consistent calculation

          k = 0.0000 0.0000 0.0000 (  8385 PWs)   bands (ev):

   -33.7127 -33.6994 -17.0061 -16.9759 -15.1179 -15.1179 -14.7654 -14.7654
   -14.6965 -14.6057 -13.8550 -13.8550 -13.3223 -13.3223  -3.2596  -2.9945
    -1.6272  -1.4796  -1.4796  -1.2404  -1.2404  -0.2753   2.4259   2.4259
     2.7351   2.7351   2.9667   2.9667   3.6754   3.6754   3.8586   4.2914

          k =-0.1751-0.1011 0.0540 (  8415 PWs)   bands (ev):

   -33.7119 -33.7000 -17.0212 -16.9587 -15.1164 -15.0594 -14.8324 -14.7622
   -14.7130 -14.6743 -13.8161 -13.7225 -13.3995 -13.3383  -3.1850  -3.0098
    -1.5623  -1.4521  -1.4203  -1.2666  -1.2341  -0.3618   2.4590   2.5020
[...]

          k =-0.1751 0.1011 0.1080 (  8414 PWs)   bands (ev):

   -33.7118 -33.7001 -17.0231 -16.9576 -15.0861 -15.0859 -14.8138 -14.7677
   -14.7076 -14.7067 -13.7660 -13.7505 -13.3810 -13.3681  -3.1803  -3.0224
    -1.5336  -1.4412  -1.4371  -1.2708  -1.2257  -0.3794   2.4621   2.4997
     2.6771   2.6958   2.8679   2.9055   3.5109   3.6172   4.0114   4.2706

          k =-0.3502-0.0000 0.1620 (  8415 PWs)   bands (ev):

   -33.7103 -33.7014 -17.0382 -16.9383 -15.0930 -15.0592 -14.8670 -14.8031
   -14.7095 -14.7002 -13.7113 -13.6553 -13.4566 -13.3958  -3.0651  -3.0324
    -1.4805  -1.3992  -1.3565  -1.2250  -1.2133  -0.5130   2.4332   2.5096
     2.5959   2.6454   2.7594   2.8935   3.3352   3.5048   4.1923   4.2583

          k =-0.5252-0.1011 0.2159 (  8424 PWs)   bands (ev):

   -33.7079 -33.7034 -17.0223 -16.9519 -15.0994 -15.0394 -14.9162 -14.8689
   -14.6859 -14.6569 -13.6835 -13.6168 -13.4749 -13.4280  -2.9783  -2.9646
    -1.4789  -1.4083  -1.2974  -1.2010  -1.0002  -0.6570   2.2521   2.3649
     2.5358   2.5525   2.7998   2.9249   3.2122   3.3593   4.2968   4.3309

          k = 0.5252 0.5054-0.1080 (  8431 PWs)   bands (ev):

   -33.7060 -33.7052 -17.0052 -16.9679 -15.0856 -15.0212 -14.9734 -14.8762
   -14.6771 -14.6504 -13.6748 -13.5848 -13.5023 -13.4324  -2.9612  -2.9035
    -1.5089  -1.4195  -1.2481  -1.1873  -0.8385  -0.7782   2.1723   2.2470
     2.4868   2.5540   2.8275   2.9037   3.2438   3.2823   4.3219   4.3785

          k = 0.3502 0.4043-0.0540 (  8432 PWs)   bands (ev):

   -33.7087 -33.7027 -17.0457 -16.9234 -15.1310 -15.0336 -14.9567 -14.7996
   -14.7074 -14.6331 -13.7276 -13.6068 -13.4697 -13.4095  -3.0096  -2.9258
    -1.5321  -1.3425  -1.2675  -1.2060  -1.0909  -0.6242   2.2121   2.4321
     2.5044   2.5753   2.7323   2.9489   3.2615   3.3681   4.2682   4.3659

          k = 0.1751 0.3032 0.0000 (  8425 PWs)   bands (ev):

   -33.7108 -33.7009 -17.0426 -16.9316 -15.0843 -15.0740 -14.8574 -14.8066
   -14.7225 -14.6892 -13.7209 -13.6602 -13.4500 -13.3884  -3.0606  -3.0236
    -1.5126  -1.3859  -1.3509  -1.2710  -1.2114  -0.4791   2.4382   2.5507
     2.5600   2.6867   2.7159   2.8456   3.4008   3.5047   4.1934   4.2686

          k =-0.3502 0.2022 0.2159 (  8439 PWs)   bands (ev):

   -33.7097 -33.7019 -17.0600 -16.9141 -15.1145 -15.0790 -14.8181 -14.7700
   -14.7462 -14.7132 -13.7016 -13.6572 -13.4461 -13.4124  -3.0737  -2.9826
    -1.4808  -1.3720  -1.3608  -1.1857  -1.1440  -0.5891   2.3065   2.4861
     2.5405   2.7036   2.7407   3.0060   3.1693   3.5120   4.2131   4.2768

          k =-0.5252 0.1011 0.2699 (  8445 PWs)   bands (ev):

   -33.7083 -33.7031 -17.0599 -16.9125 -15.1584 -15.0676 -14.8597 -14.7778
   -14.7116 -14.6591 -13.7819 -13.6157 -13.4665 -13.3730  -3.0528  -2.8913
    -1.4970  -1.3838  -1.3117  -1.1645  -0.9898  -0.6749   2.1520   2.3868
     2.5180   2.6595   2.7472   2.9255   3.1583   3.4309   4.2240   4.3943

          k = 0.5252 0.7076-0.0540 (  8442 PWs)   bands (ev):

   -33.7064 -33.7048 -17.0125 -16.9646 -15.1227 -15.0162 -14.9159 -14.8349
   -14.7110 -14.6678 -13.7312 -13.6072 -13.4743 -13.3946  -2.9514  -2.8961
    -1.4714  -1.4311  -1.3140  -1.1591  -0.8124  -0.7477   2.1321   2.2289
     2.5168   2.5560   2.7535   2.7876   3.2602   3.3585   4.3347   4.4025

          k = 0.3502 0.6065 0.0000 (  8455 PWs)   bands (ev):

   -33.7068 -33.7044 -17.0247 -16.9480 -15.1210 -15.0425 -14.9658 -14.7632
   -14.7265 -14.6465 -13.7472 -13.6064 -13.4750 -13.3862  -2.9677  -2.8772
    -1.5363  -1.3268  -1.3115  -1.1799  -0.9000  -0.7015   2.1306   2.2804
     2.4675   2.5286   2.7428   2.8541   3.3089   3.3153   4.3188   4.4233

          k =-0.5252 0.3032 0.3239 (  8454 PWs)   bands (ev):

   -33.7081 -33.7032 -17.0886 -16.8766 -15.1914 -15.1674 -14.7527 -14.7351
   -14.7164 -14.6101 -13.8460 -13.7422 -13.3758 -13.3443  -3.1075  -2.7953
    -1.5587  -1.3571  -1.2507  -1.1365  -0.9443  -0.7352   2.0269   2.3299
     2.5472   2.7460   2.7628   2.8236   3.1904   3.4176   4.1485   4.4741

          k = 0.5252 0.9097 0.0000 (  8457 PWs)   bands (ev):

   -33.7074 -33.7039 -17.0697 -16.9010 -15.1660 -15.1369 -14.7856 -14.7560
   -14.7245 -14.6364 -13.8312 -13.6876 -13.4063 -13.3498  -3.0599  -2.8014
    -1.5264  -1.4006  -1.2723  -1.1348  -0.8706  -0.7352   2.0175   2.2806
     2.5730   2.6725   2.7355   2.7475   3.2497   3.3842   4.2050   4.4814

          k = 0.0000-0.0000 0.1620 (  8419 PWs)   bands (ev):

   -33.7120 -33.7000 -17.0053 -16.9781 -15.1056 -15.1056 -14.7921 -14.7921
   -14.6910 -14.6092 -13.8194 -13.8194 -13.3437 -13.3437  -3.2572  -3.0248
    -1.5458  -1.4670  -1.4670  -1.2517  -1.2517  -0.3326   2.4419   2.4419
     2.7202   2.7202   2.9965   2.9965   3.6337   3.6337   3.8761   4.2625

          k =-0.1751-0.1011 0.2159 (  8414 PWs)   bands (ev):

   -33.7109 -33.7010 -17.0146 -16.9676 -15.1204 -15.0199 -14.9104 -14.7505
   -14.7134 -14.6509 -13.8066 -13.6640 -13.4483 -13.3469  -3.1898  -3.0386
    -1.4901  -1.4420  -1.3581  -1.2636  -1.2631  -0.4399   2.4646   2.5171
     2.6612   2.7095   2.8372   2.9861   3.4820   3.5449   4.0203   4.2504

          k =-0.3502-0.2022 0.2699 (  8423 PWs)   bands (ev):

   -33.7088 -33.7028 -17.0101 -16.9683 -15.1015 -15.0239 -14.9476 -14.8028
   -14.6947 -14.6643 -13.7210 -13.5650 -13.5459 -13.3874  -3.0722  -2.9922
    -1.4521  -1.4171  -1.2928  -1.2649  -1.0947  -0.6006   2.3912   2.4848
     2.5727   2.6045   2.7757   2.9626   3.2742   3.3711   4.2113   4.2809

          k = 0.7003 0.4043-0.0540 (  8430 PWs)   bands (ev):

   -33.7061 -33.7053 -17.0086 -16.9659 -15.0991 -15.0125 -14.9549 -14.8844
   -14.6804 -14.6424 -13.6498 -13.6100 -13.5096 -13.4298  -3.0148  -2.8948
    -1.5093  -1.4064  -1.2659  -1.1917  -0.8622  -0.7731   2.1834   2.2919
     2.5099   2.6175   2.8283   3.0414   3.1283   3.2672   4.2708   4.3657

          k = 0.5252 0.3032 0.0000 (  8414 PWs)   bands (ev):

   -33.7079 -33.7034 -17.0514 -16.9162 -15.1216 -15.0836 -14.9113 -14.8324
   -14.7005 -14.6150 -13.7297 -13.5926 -13.4789 -13.4143  -3.0280  -2.8738
    -1.5561  -1.3326  -1.2608  -1.1821  -1.0109  -0.6866   2.1203   2.3559
     2.4854   2.6542   2.7600   3.0597   3.1395   3.3324   4.2392   4.4019

          k = 0.3502 0.2022 0.0540 (  8429 PWs)   bands (ev):

   -33.7103 -33.7013 -17.0536 -16.9178 -15.1068 -15.0568 -14.8948 -14.7820
   -14.7200 -14.6897 -13.7254 -13.6002 -13.4915 -13.3939  -3.0391  -3.0017
    -1.5078  -1.3790  -1.3260  -1.2114  -1.2093  -0.5338   2.3507   2.4763
     2.6212   2.6649   2.6663   2.9320   3.3031   3.4882   4.2469   4.2605

          k =-0.1751 0.1011 0.2699 (  8421 PWs)   bands (ev):

   -33.7104 -33.7015 -17.0197 -16.9641 -15.0956 -15.0327 -14.8886 -14.7833
   -14.6939 -14.6918 -13.7392 -13.6769 -13.4329 -13.3947  -3.1753  -3.0695
    -1.4541  -1.4117  -1.3788  -1.2610  -1.2411  -0.4903   2.4750   2.5108
     2.6494   2.6618   2.9125   3.0225   3.3930   3.5692   4.0308   4.2214

          k =-0.3502 0.0000 0.3239 (  8434 PWs)   bands (ev):

   -33.7089 -33.7027 -17.0254 -16.9564 -15.0938 -15.0470 -14.8834 -14.7821
   -14.7356 -14.6848 -13.6881 -13.6447 -13.4690 -13.4169  -3.0743  -3.0525
    -1.4161  -1.4018  -1.3690  -1.2300  -1.1065  -0.6123   2.4228   2.4603
     2.6089   2.6574   2.7923   3.0102   3.2095   3.4574   4.1912   4.2343

          k = 0.7003 0.6065 0.0000 (  8418 PWs)   bands (ev):

   -33.7068 -33.7046 -16.9924 -16.9874 -15.1001 -15.0265 -14.9148 -14.8373
   -14.6943 -14.6862 -13.6945 -13.5885 -13.5125 -13.4094  -3.0056  -2.9471
    -1.4683  -1.3791  -1.3447  -1.1970  -0.8950  -0.7242   2.2544   2.3018
     2.5531   2.6122   2.7771   2.9431   3.1786   3.3273   4.2899   4.3270

          k = 0.5252 0.5054 0.0540 (  8435 PWs)   bands (ev):

   -33.7067 -33.7045 -17.0386 -16.9337 -15.1314 -15.0624 -14.9334 -14.7812
   -14.7090 -14.6393 -13.7577 -13.5911 -13.4925 -13.3810  -3.0124  -2.8510
    -1.5487  -1.3262  -1.2941  -1.1809  -0.8777  -0.7385   2.0949   2.2897
     2.4643   2.6250   2.7669   2.9114   3.2309   3.3119   4.2667   4.4303

          k = 0.3502 0.4043 0.1080 (  8435 PWs)   bands (ev):

   -33.7088 -33.7026 -17.0590 -16.9092 -15.1559 -15.0511 -14.9253 -14.7541
   -14.7262 -14.6337 -13.7764 -13.5840 -13.4925 -13.3764  -3.0363  -2.8995
    -1.5314  -1.3462  -1.2703  -1.2005  -1.0730  -0.6326   2.1726   2.4620
     2.4674   2.6152   2.7124   2.9752   3.2064   3.4137   4.2409   4.3886

          k =-0.3502 0.2022 0.3779 (  8445 PWs)   bands (ev):

   -33.7084 -33.7032 -17.0531 -16.9262 -15.1479 -15.0325 -14.8361 -14.7811
   -14.7424 -14.6850 -13.7082 -13.6602 -13.4476 -13.4120  -3.1022  -2.9767
    -1.4853  -1.3580  -1.3181  -1.1989  -1.0355  -0.6886   2.2908   2.4309
     2.5944   2.7092   2.8136   3.0157   3.0859   3.4626   4.1854   4.2851

          k = 0.7003 0.8086 0.0540 (  8439 PWs)   bands (ev):

   -33.7073 -33.7041 -17.0470 -16.9314 -15.1406 -15.0685 -14.8222 -14.7795
   -14.7269 -14.6971 -13.7384 -13.6606 -13.4321 -13.3995  -3.0541  -2.8996
    -1.4891  -1.3921  -1.2940  -1.1823  -0.8986  -0.7348   2.1597   2.3282
     2.5924   2.6900   2.7674   2.8240   3.1813   3.3854   4.2276   4.3824

          k = 0.5252 0.7076 0.1080 (  8449 PWs)   bands (ev):

   -33.7059 -33.7053 -16.9984 -16.9812 -15.0957 -15.0500 -14.8744 -14.8325
   -14.7248 -14.6939 -13.6953 -13.6470 -13.4451 -13.4145  -2.9342  -2.9146
    -1.4769  -1.4358  -1.2806  -1.1874  -0.7792  -0.7647   2.1486   2.1836
     2.5537   2.5805   2.7403   2.7532   3.2811   3.3316   4.3557   4.3804

          k = 0.3502 0.6065 0.1620 (  8443 PWs)   bands (ev):

   -33.7067 -33.7045 -17.0216 -16.9524 -15.1262 -15.0286 -14.9474 -14.8077
   -14.7008 -14.6553 -13.7458 -13.5997 -13.4803 -13.3870  -2.9634  -2.8823
    -1.5059  -1.4132  -1.2375  -1.2100  -0.8659  -0.7171   2.1296   2.2663
     2.4850   2.5319   2.7487   2.8313   3.2829   3.3425   4.3224   4.4177

          k = 0.7003-0.4043-0.2699 (  8442 PWs)   bands (ev):

   -33.7074 -33.7039 -17.0789 -16.8903 -15.1945 -15.1399 -14.7570 -14.7504
   -14.7242 -14.6144 -13.8075 -13.7596 -13.3654 -13.3649  -3.1052  -2.8020
    -1.5614  -1.3507  -1.2253  -1.1731  -0.8959  -0.7646   2.0422   2.3136
     2.5896   2.7191   2.7419   2.8412   3.1969   3.3752   4.1592   4.4630

          k = 0.5252-0.5054-0.2159 (  8447 PWs)   bands (ev):

   -33.7072 -33.7040 -17.0615 -16.9097 -15.1574 -15.1177 -14.8457 -14.7360
   -14.7232 -14.6413 -13.8130 -13.6588 -13.4315 -13.3551  -3.0475  -2.8144
    -1.5422  -1.3786  -1.2367  -1.1833  -0.8766  -0.7308   2.0382   2.2880
     2.5139   2.6687   2.7400   2.8193   3.2451   3.3572   4.2226   4.4677

          k = 0.5252-0.3032-0.1620 (  8436 PWs)   bands (ev):

   -33.7082 -33.7031 -17.0787 -16.8859 -15.1618 -15.1532 -14.8169 -14.7545
   -14.7239 -14.6022 -13.8154 -13.6781 -13.4152 -13.3614  -3.0797  -2.8206
    -1.5649  -1.3385  -1.2223  -1.1900  -0.9928  -0.6999   2.0547   2.3753
     2.4682   2.7148   2.7379   2.9871   3.1483   3.3959   4.1804   4.4513

          k = 0.0000-0.0000 0.3239 (  8425 PWs)   bands (ev):

   -33.7102 -33.7019 -17.0026 -16.9838 -15.0692 -15.0692 -14.8580 -14.8580
   -14.6762 -14.6197 -13.7288 -13.7288 -13.4053 -13.4053  -3.2460  -3.0938
    -1.4324  -1.4324  -1.3314  -1.2837  -1.2837  -0.4979   2.4863   2.4863
     2.6788   2.6788   3.0817   3.0817   3.5209   3.5209   3.9259   4.1879

          k =-0.1751-0.1011 0.3779 (  8425 PWs)   bands (ev):

   -33.7089 -33.7030 -17.0040 -16.9818 -15.0991 -14.9804 -14.9712 -14.7969
   -14.6933 -14.6443 -13.7412 -13.5900 -13.5194 -13.3913  -3.1869  -3.0879
    -1.4168  -1.4015  -1.3091  -1.3063  -1.1597  -0.6071   2.4830   2.5416
     2.6355   2.6397   2.9370   3.1275   3.3323   3.4563   4.0462   4.1914

          k = 0.8754 0.5054 0.0540 (  8424 PWs)   bands (ev):

   -33.7070 -33.7046 -17.0028 -16.9799 -15.1291 -14.9916 -14.9518 -14.7664
   -14.7285 -14.6527 -13.7307 -13.5686 -13.5440 -13.3859  -3.1022  -2.9832
    -1.4563  -1.3580  -1.3155  -1.2665  -0.9562  -0.7238   2.3366   2.4519
     2.6388   2.6449   2.7321   3.1205   3.1416   3.3151   4.1870   4.2838

          k = 0.7003 0.4043 0.1080 (  8433 PWs)   bands (ev):

   -33.7064 -33.7049 -17.0507 -16.9226 -15.1624 -15.0854 -14.8504 -14.7969
   -14.7095 -14.6218 -13.7229 -13.7184 -13.4227 -13.3835  -3.0724  -2.8378
    -1.5531  -1.3213  -1.2782  -1.1900  -0.8409  -0.7991   2.0979   2.3231
     2.5153   2.6948   2.7581   2.9763   3.1678   3.2964   4.2061   4.4224

          k =-0.1751 0.1011 0.4319 (  8426 PWs)   bands (ev):

   -33.7082 -33.7037 -17.0109 -16.9762 -15.0860 -14.9664 -14.9636 -14.8400
   -14.6726 -14.6711 -13.6913 -13.5763 -13.5229 -13.4357  -3.1623  -3.1248
    -1.4179  -1.3725  -1.3410  -1.2781  -1.0943  -0.6819   2.5044   2.5253
     2.6105   2.6343   3.0140   3.1625   3.2392   3.4538   4.0705   4.1548

          k = 0.8754 0.7076 0.1080 (  8430 PWs)   bands (ev):

   -33.7069 -33.7047 -17.0052 -16.9807 -15.0804 -15.0584 -14.8641 -14.8160
   -14.7151 -14.6883 -13.6614 -13.6435 -13.4680 -13.4457  -3.0786  -3.0710
    -1.4089  -1.3941  -1.3205  -1.2632  -0.9432  -0.7650   2.4164   2.4272
     2.6267   2.6530   2.8782   3.0042   3.2150   3.3507   4.1956   4.2102

          k = 0.7003 0.6065 0.1620 (  8435 PWs)   bands (ev):

   -33.7059 -33.7054 -17.0214 -16.9602 -15.1161 -15.0506 -14.8728 -14.7674
   -14.7259 -14.7128 -13.6919 -13.6603 -13.4551 -13.4092  -3.0378  -2.9197
    -1.4923  -1.3810  -1.2643  -1.2327  -0.8092  -0.8055   2.1979   2.3011
     2.6150   2.6665   2.7378   2.8628   3.2409   3.2922   4.2523   4.3574

          k = 0.8754-0.5054-0.2159 (  8437 PWs)   bands (ev):

   -33.7065 -33.7050 -17.0331 -16.9500 -15.1520 -14.9840 -14.9187 -14.7726
   -14.7279 -14.6598 -13.7342 -13.6118 -13.4957 -13.3922  -3.1134  -2.9784
    -1.4823  -1.3392  -1.2791  -1.2601  -0.8826  -0.8162   2.3013   2.4205
     2.6462   2.6817   2.8068   2.9828   3.1741   3.3526   4.1759   4.2861

          k = 0.0000 0.0000 0.4859 (  8431 PWs)   bands (ev):

   -33.7075 -33.7045 -16.9978 -16.9911 -15.0113 -15.0113 -14.9374 -14.9374
   -14.6563 -14.6361 -13.6134 -13.6134 -13.4994 -13.4994  -3.2173  -3.1650
    -1.3834  -1.3834  -1.3304  -1.3304  -1.0452  -0.7491   2.5496   2.5496
     2.6184   2.6184   3.2119   3.2119   3.3682   3.3682   4.0013   4.0933

          k = 1.0505 0.6065 0.1620 (  8412 PWs)   bands (ev):

   -33.7063 -33.7055 -16.9975 -16.9906 -15.0705 -15.0163 -14.9234 -14.8620
   -14.6750 -14.6528 -13.6575 -13.5866 -13.5241 -13.4566  -3.1666  -3.1333
    -1.3952  -1.3443  -1.3419  -1.3248  -0.9236  -0.8403   2.5119   2.5461
     2.6055   2.6096   3.0680   3.1732   3.2781   3.3334   4.0921   4.1267

     highest occupied level (ev):     4.4814

!    total energy              =    -367.43081321 Ry
     Harris-Foulkes estimate   =    -367.43081321 Ry
     estimated scf accuracy    <          3.7E-11 Ry

     The total energy is the sum of the following terms:

     one-electron contribution =    -146.32666816 Ry
     hartree contribution      =     102.62160525 Ry
     xc contribution           =     -75.24713287 Ry
     ewald contribution        =    -248.47861742 Ry

     convergence has been achieved in   6 iterations

     Forces acting on atoms (cartesian axes, Ry/au):

     atom    1 type  1   force =    -0.00000000    0.00000000    0.00000000
     atom    2 type  1   force =     0.00000000    0.00000000    0.00000000
     atom    3 type  2   force =    -0.00000000   -0.00000000   -0.00000000
     atom    4 type  2   force =    -0.00000000   -0.00000000   -0.00000000
     atom    5 type  3   force =    -0.00001161    0.00002011    0.00000000
     atom    6 type  3   force =     0.00002322   -0.00000000    0.00000000
     atom    7 type  3   force =    -0.00001161   -0.00002011   -0.00000000
     atom    8 type  3   force =    -0.00002322   -0.00000000    0.00000000
     atom    9 type  3   force =     0.00001161    0.00002011    0.00000000
     atom   10 type  3   force =     0.00001161   -0.00002011   -0.00000000

     Total force =     0.000057     Total SCF correction =     0.000016
     SCF correction compared to forces is large: reduce conv_thr to get better values


     Computing stress (Cartesian axis) and pressure

          total   stress  (Ry/bohr**3)                   (kbar)     P=   -5.47
  -0.00009794   0.00000000   0.00000000        -14.41      0.00      0.00
  -0.00000000  -0.00009794  -0.00000000         -0.00    -14.41     -0.00
  -0.00000000  -0.00000000   0.00008430         -0.00     -0.00     12.40


     bfgs converged in   4 scf cycles and   3 bfgs steps
     (criteria: energy <  1.0E-04 Ry, force <  1.0E-03 Ry/Bohr)

     End of BFGS Geometry Optimization

     Final energy   =    -367.4308132093 Ry
Begin final coordinates

ATOMIC_POSITIONS (crystal)
Ca       0.500000000   0.500000000   0.500000000
Ca      -0.000000000   0.000000000   0.000000000
C        0.250000000   0.250000000   0.250000000
C        0.750000000   0.750000000   0.750000000
O        0.503028717   0.996971283   0.250000000
O        0.996971283   0.250000000   0.503028717
O        0.250000000   0.503028717   0.996971283
O        0.003028717   0.750000000   0.496971283
O        0.750000000   0.496971283   0.003028717
O        0.496971283   0.003028717   0.750000000
End final coordinates



     Writing output data file CCO_rand3.save/
 
     init_run     :      4.73s CPU      6.14s WALL (       1 calls)
     electrons    :    506.26s CPU    567.87s WALL (       4 calls)
     update_pot   :      0.30s CPU      0.32s WALL (       3 calls)
     forces       :      1.93s CPU      2.06s WALL (       4 calls)
     stress       :      4.27s CPU      4.39s WALL (       4 calls)

     Called by init_run:
     wfcinit      :      4.44s CPU      5.34s WALL (       1 calls)
     potinit      :      0.04s CPU      0.10s WALL (       1 calls)
     hinit0       :      0.18s CPU      0.40s WALL (       1 calls)

     Called by electrons:
     c_bands      :    473.74s CPU    532.78s WALL (      33 calls)
     sum_band     :     31.53s CPU     33.62s WALL (      33 calls)
     v_of_rho     :      0.57s CPU      0.64s WALL (      36 calls)
     newd         :      0.39s CPU      0.50s WALL (      36 calls)
     mix_rho      :      0.06s CPU      0.12s WALL (      33 calls)

     Called by c_bands:
     init_us_2    :      1.12s CPU      1.30s WALL (    3300 calls)
     ccgdiagg     :    393.01s CPU    435.46s WALL (    1456 calls)
     wfcrot       :     83.99s CPU     98.79s WALL (    1280 calls)

     Called by sum_band:
     sum_band:bec :      0.37s CPU      0.41s WALL (    1452 calls)
     addusdens    :      0.36s CPU      0.41s WALL (      33 calls)

     Called by *cgdiagg:
     h_psi        :    324.24s CPU    351.35s WALL (  155442 calls)
     s_psi        :     30.14s CPU     35.17s WALL (  309604 calls)
     cdiaghg      :     26.69s CPU     37.42s WALL (    1280 calls)

     Called by h_psi:
     h_psi:pot    :    318.60s CPU    344.71s WALL (  155442 calls)
     h_psi:calbec :     35.37s CPU     38.88s WALL (  155442 calls)
     vloc_psi     :    258.55s CPU    278.97s WALL (  155442 calls)
     add_vuspsi   :     18.45s CPU     20.90s WALL (  155442 calls)
     hs_1psi      :    299.29s CPU    325.85s WALL (  154162 calls)
     s_1psi       :     46.12s CPU     53.53s WALL (  154162 calls)

     General routines
     calbec       :     54.61s CPU     62.75s WALL (  311936 calls)
     fft          :      0.63s CPU      0.73s WALL (     500 calls)
     ffts         :      0.04s CPU      0.04s WALL (      33 calls)
     fftw         :    271.32s CPU    291.76s WALL (  438468 calls)
 
     Parallel routines
     fft_scatt_xy :     15.59s CPU     16.84s WALL (  439001 calls)
     fft_scatt_yz :    205.11s CPU    220.94s WALL (  439001 calls)
 
     PWSCF        :   8m39.84s CPU   9m46.20s WALL

 
   This run was terminated on:  23:44:19   3May2022            

=------------------------------------------------------------------------------=
   JOB DONE.
=------------------------------------------------------------------------------=
