
     Program PWSCF v.6.4.1 starts on  3May2022 at 23:34:40 

     This program is part of the open-source Quantum ESPRESSO suite
     for quantum simulation of materials; please cite
         "P. Giannozzi et al., J. Phys.:Condens. Matter 21 395502 (2009);
         "P. Giannozzi et al., J. Phys.:Condens. Matter 29 465901 (2017);
          URL http://www.quantum-espresso.org", 
     in publications or presentations arising from this work. More details at
     http://www.quantum-espresso.org/quote

     Parallel version (MPI & OpenMP), running on      68 processor cores
     Number of MPI processes:                68
     Threads/MPI process:                     1

     MPI processes distributed on     1 nodes
     R & G space division:  proc/nbgrp/npool/nimage =      68
     Waiting for input...
     Reading input from standard input
Warning: card &CELL ignored
Warning: card  CELL_DYNAMICS = 'BFGS', ignored
Warning: card  PRESS=0.1D0, ignored
Warning: card / ignored

     Current dimensions of program PWSCF are:
     Max number of different atomic species (ntypx) = 10
     Max number of k-points (npk) =  40000
     Max angular momentum in pseudopotentials (lmaxx) =  3

     Subspace diagonalization in iterative solution of the eigenvalue problem:
     one sub-group per band group will be used
     scalapack distributed-memory algorithm (size of sub-group:  5*  5 procs)

 
     Parallelization info
     --------------------
     sticks:   dense  smooth     PW     G-vecs:    dense   smooth      PW
     Min          34      34      9                  990      990     150
     Max          35      35     10                  993      993     156
     Sum        2331    2331    665                67375    67375   10445
 


     bravais-lattice index     =            5
     lattice parameter (alat)  =      11.7517  a.u.
     unit-cell volume          =     852.6732 (a.u.)^3
     number of atoms/cell      =           10
     number of atomic types    =            3
     number of electrons       =        64.00
     number of Kohn-Sham states=           32
     kinetic-energy cutoff     =      70.0000  Ry
     charge density cutoff     =     280.0000  Ry
     convergence threshold     =      1.0E-08
     mixing beta               =       0.7000
     number of iterations used =            8  plain     mixing
     Exchange-correlation      = SLA  PW   PBE  PBE ( 1  4  3  4 0 0)
     nstep                     =           50


     celldm(1)=  11.751700  celldm(2)=   0.000000  celldm(3)=   0.000000
     celldm(4)=   0.654200  celldm(5)=   0.000000  celldm(6)=   0.000000

     crystal axes: (cart. coord. in units of alat)
               a(1) = (   0.415812  -0.240069   0.877192 )  
               a(2) = (   0.000000   0.480139   0.877192 )  
               a(3) = (  -0.415812  -0.240069   0.877192 )  

     reciprocal axes: (cart. coord. in units 2 pi/alat)
               b(1) = (  1.202465 -0.694244  0.380000 )  
               b(2) = ( -0.000000  1.388487  0.380000 )  
               b(3) = ( -1.202465 -0.694244  0.380000 )  


     PseudoPot. # 1 for Ca read from file:
     ./Ca_PBE.UPF
     MD5 check sum: 403a4c14b9e4d4dfdc3024c9a3812218
     Pseudo is Ultrasoft + core correction, Zval = 10.0
     Generated by new atomic code, or converted to UPF format
     Using radial grid of  845 points,  6 beta functions with: 
                l(1) =   0
                l(2) =   0
                l(3) =   1
                l(4) =   1
                l(5) =   2
                l(6) =   2
     Q(r) pseudized with  8 coefficients,  rinner =    1.500   1.500   1.500
                                                       1.500   1.500

     PseudoPot. # 2 for C  read from file:
     ./C_PBE.UPF
     MD5 check sum: d1aef80898a10debaa0f26306b886e00
     Pseudo is Ultrasoft + core correction, Zval =  4.0
     Generated by new atomic code, or converted to UPF format
     Using radial grid of  721 points,  4 beta functions with: 
                l(1) =   0
                l(2) =   0
                l(3) =   1
                l(4) =   1
     Q(r) pseudized with  8 coefficients,  rinner =    1.100   1.100   1.100


     PseudoPot. # 3 for O  read from file:
     ./O_PBE.UPF
     MD5 check sum: 734c27235a0248c51dbae37a1fbe46ec
     Pseudo is Ultrasoft + core correction, Zval =  6.0
     Generated by new atomic code, or converted to UPF format
     Using radial grid of  737 points,  5 beta functions with: 
                l(1) =   0
                l(2) =   0
                l(3) =   1
                l(4) =   1
                l(5) =   2
     Q(r) pseudized with  8 coefficients,  rinner =    0.900   0.900   0.900
                                                       0.900   0.900

     atomic species   valence    mass     pseudopotential
        Ca            10.00    40.07800     Ca( 1.00)
        C              4.00    12.01070     C ( 1.00)
        O              6.00    16.00000     O ( 1.00)

     12 Sym. Ops., with inversion, found ( 6 have fractional translation)



   Cartesian axes

     site n.     atom                  positions (alat units)
         1           Ca  tau(   1) = (   0.0000000  -0.0000000   1.3157887  )
         2           Ca  tau(   2) = (   0.0000000   0.0000000   0.0000000  )
         3           C   tau(   3) = (   0.0000000  -0.0000000   0.6578944  )
         4           C   tau(   4) = (  -0.0000000  -0.0000000   1.9736831  )
         5           O   tau(   5) = (   0.1068709   0.2950331   1.5350869  )
         6           O   tau(   6) = (   0.2020708  -0.2400694   1.5350869  )
         7           O   tau(   7) = (  -0.3089416  -0.0549637   1.5350869  )
         8           O   tau(   8) = (  -0.2020708   0.2400694   1.0964906  )
         9           O   tau(   9) = (   0.3089416   0.0549637   1.0964906  )
        10           O   tau(  10) = (  -0.1068709  -0.2950331   1.0964906  )

     number of k points=    44
                       cart. coord. in units 2pi/alat
        k(    1) = (   0.0000000   0.0000000   0.0000000), wk =   0.0058309
        k(    2) = (  -0.1717807  -0.0991777   0.0542857), wk =   0.0349854
        k(    3) = (  -0.3435615  -0.1983553   0.1085715), wk =   0.0349854
        k(    4) = (  -0.5153422  -0.2975330   0.1628572), wk =   0.0349854
        k(    5) = (  -0.1717807   0.0991777   0.1085715), wk =   0.0349854
        k(    6) = (  -0.3435615  -0.0000000   0.1628572), wk =   0.0699708
        k(    7) = (  -0.5153422  -0.0991777   0.2171430), wk =   0.0699708
        k(    8) = (   0.5153422   0.4958883  -0.1085715), wk =   0.0699708
        k(    9) = (   0.3435615   0.3967106  -0.0542857), wk =   0.0699708
        k(   10) = (   0.1717807   0.2975330   0.0000000), wk =   0.0349854
        k(   11) = (  -0.3435615   0.1983553   0.2171430), wk =   0.0349854
        k(   12) = (  -0.5153422   0.0991777   0.2714287), wk =   0.0699708
        k(   13) = (   0.5153422   0.6942436  -0.0542857), wk =   0.0699708
        k(   14) = (   0.3435615   0.5950659   0.0000000), wk =   0.0349854
        k(   15) = (  -0.5153422   0.2975330   0.3257145), wk =   0.0349854
        k(   16) = (   0.5153422   0.8925989   0.0000000), wk =   0.0349854
        k(   17) = (  -0.0000000  -0.0000000   0.1628572), wk =   0.0116618
        k(   18) = (  -0.1717807  -0.0991777   0.2171430), wk =   0.0349854
        k(   19) = (  -0.3435615  -0.1983553   0.2714287), wk =   0.0349854
        k(   20) = (   0.6871230   0.3967106  -0.0542857), wk =   0.0349854
        k(   21) = (   0.5153422   0.2975330   0.0000000), wk =   0.0349854
        k(   22) = (   0.3435615   0.1983553   0.0542857), wk =   0.0349854
        k(   23) = (  -0.1717807   0.0991777   0.2714287), wk =   0.0349854
        k(   24) = (  -0.3435615  -0.0000000   0.3257145), wk =   0.0699708
        k(   25) = (   0.6871230   0.5950659   0.0000000), wk =   0.0699708
        k(   26) = (   0.5153422   0.4958883   0.0542857), wk =   0.0699708
        k(   27) = (   0.3435615   0.3967106   0.1085715), wk =   0.0699708
        k(   28) = (  -0.3435615   0.1983553   0.3800002), wk =   0.0349854
        k(   29) = (   0.6871230   0.7934212   0.0542857), wk =   0.0699708
        k(   30) = (   0.5153422   0.6942436   0.1085715), wk =   0.0699708
        k(   31) = (   0.3435615   0.5950659   0.1628572), wk =   0.0699708
        k(   32) = (   0.6871230  -0.3967106  -0.2714287), wk =   0.0349854
        k(   33) = (   0.5153422  -0.4958883  -0.2171430), wk =   0.0699708
        k(   34) = (   0.5153422  -0.2975330  -0.1628572), wk =   0.0349854
        k(   35) = (  -0.0000000  -0.0000000   0.3257145), wk =   0.0116618
        k(   36) = (  -0.1717807  -0.0991777   0.3800002), wk =   0.0349854
        k(   37) = (   0.8589037   0.4958883   0.0542857), wk =   0.0349854
        k(   38) = (   0.6871230   0.3967106   0.1085715), wk =   0.0349854
        k(   39) = (  -0.1717807   0.0991777   0.4342860), wk =   0.0349854
        k(   40) = (   0.8589037   0.6942436   0.1085715), wk =   0.0699708
        k(   41) = (   0.6871230   0.5950659   0.1628572), wk =   0.0699708
        k(   42) = (   0.8589037  -0.4958883  -0.2171430), wk =   0.0349854
        k(   43) = (  -0.0000000  -0.0000000   0.4885717), wk =   0.0116618
        k(   44) = (   1.0306844   0.5950659   0.1628572), wk =   0.0349854

     Dense  grid:    67375 G-vectors     FFT dimensions: (  64,  64,  64)

     Estimated max dynamical RAM per process >      14.54 MB

     Estimated total dynamical RAM >     988.74 MB

     Check: negative core charge=   -0.000003

     Initial potential from superposition of free atoms

     starting charge   63.98899, renormalised to   64.00000
     Starting wfcs are   52 randomized atomic wfcs

     total cpu time spent up to now is        7.1 secs

     Self-consistent Calculation

     iteration #  1     ecut=    70.00 Ry     beta= 0.70
     CG style diagonalization
     ethr =  1.00E-02,  avg # of iterations =  2.6

     total cpu time spent up to now is       18.8 secs

     total energy              =    -366.61996023 Ry
     Harris-Foulkes estimate   =    -367.85447323 Ry
     estimated scf accuracy    <       1.76379606 Ry

     iteration #  2     ecut=    70.00 Ry     beta= 0.70
     CG style diagonalization
     ethr =  2.76E-03,  avg # of iterations =  4.4

     total cpu time spent up to now is       37.0 secs

     total energy              =    -367.04273170 Ry
     Harris-Foulkes estimate   =    -367.96272729 Ry
     estimated scf accuracy    <       1.94402457 Ry

     iteration #  3     ecut=    70.00 Ry     beta= 0.70
     CG style diagonalization
     ethr =  2.76E-03,  avg # of iterations =  3.8

     total cpu time spent up to now is       52.6 secs

     total energy              =    -367.40285415 Ry
     Harris-Foulkes estimate   =    -367.40571907 Ry
     estimated scf accuracy    <       0.01165542 Ry

     iteration #  4     ecut=    70.00 Ry     beta= 0.70
     CG style diagonalization
     ethr =  1.82E-05,  avg # of iterations =  4.5

     total cpu time spent up to now is       71.2 secs

     total energy              =    -367.41431251 Ry
     Harris-Foulkes estimate   =    -367.41584276 Ry
     estimated scf accuracy    <       0.00379685 Ry

     iteration #  5     ecut=    70.00 Ry     beta= 0.70
     CG style diagonalization
     ethr =  5.93E-06,  avg # of iterations =  3.5

     total cpu time spent up to now is       85.7 secs

     total energy              =    -367.41484482 Ry
     Harris-Foulkes estimate   =    -367.41488634 Ry
     estimated scf accuracy    <       0.00018781 Ry

     iteration #  6     ecut=    70.00 Ry     beta= 0.70
     CG style diagonalization
     ethr =  2.93E-07,  avg # of iterations =  4.1

     total cpu time spent up to now is      102.6 secs

     total energy              =    -367.41490200 Ry
     Harris-Foulkes estimate   =    -367.41491744 Ry
     estimated scf accuracy    <       0.00002682 Ry

     iteration #  7     ecut=    70.00 Ry     beta= 0.70
     CG style diagonalization
     ethr =  4.19E-08,  avg # of iterations =  4.1

     total cpu time spent up to now is      119.4 secs

     total energy              =    -367.41491333 Ry
     Harris-Foulkes estimate   =    -367.41491535 Ry
     estimated scf accuracy    <       0.00000425 Ry

     iteration #  8     ecut=    70.00 Ry     beta= 0.70
     CG style diagonalization
     ethr =  6.64E-09,  avg # of iterations =  4.0

     total cpu time spent up to now is      136.1 secs

     total energy              =    -367.41491449 Ry
     Harris-Foulkes estimate   =    -367.41491453 Ry
     estimated scf accuracy    <       0.00000007 Ry

     iteration #  9     ecut=    70.00 Ry     beta= 0.70
     CG style diagonalization
     ethr =  1.05E-10,  avg # of iterations =  4.7

     total cpu time spent up to now is      155.3 secs

     total energy              =    -367.41491457 Ry
     Harris-Foulkes estimate   =    -367.41491458 Ry
     estimated scf accuracy    <       0.00000001 Ry

     iteration # 10     ecut=    70.00 Ry     beta= 0.70
     CG style diagonalization
     ethr =  2.30E-11,  avg # of iterations =  3.6

     total cpu time spent up to now is      170.2 secs

     End of self-consistent calculation

          k = 0.0000 0.0000 0.0000 (  8403 PWs)   bands (ev):

   -33.6469 -33.6329 -16.6008 -16.5835 -15.0588 -15.0588 -14.7028 -14.7028
   -14.6428 -14.5049 -13.6578 -13.6578 -13.1014 -13.1014  -3.3225  -3.1049
    -1.4110  -1.3903  -1.3903  -1.1552  -1.1552   0.0508   2.4292   2.4292
     2.7226   2.7226   2.9738   2.9738   3.7186   3.7186   3.7378   4.1959

          k =-0.1718-0.0992 0.0543 (  8433 PWs)   bands (ev):

   -33.6461 -33.6335 -16.6234 -16.5617 -15.0563 -14.9961 -14.7620 -14.6963
   -14.6553 -14.5820 -13.6196 -13.5289 -13.1804 -13.1197  -3.2531  -3.1226
    -1.3739  -1.3625  -1.3092  -1.1704  -1.1483  -0.0470   2.4634   2.5075
     2.6686   2.7374   2.8254   2.8970   3.5906   3.6253   3.9113   4.1815

          k =-0.3436-0.1984 0.1086 (  8435 PWs)   bands (ev):

   -33.6440 -33.6353 -16.6484 -16.5337 -15.0456 -14.9259 -14.9029 -14.7500
   -14.6061 -14.5908 -13.5299 -13.3631 -13.3262 -13.1766  -3.1273  -3.1175
    -1.3849  -1.2961  -1.1744  -1.1595  -1.0201  -0.2439   2.4312   2.4523
     2.6023   2.6113   2.7898   2.8724   3.4090   3.4354   4.1312   4.1608

          k =-0.5153-0.2975 0.1629 (  8445 PWs)   bands (ev):

   -33.6411 -33.6380 -16.6234 -16.5620 -14.9843 -14.9430 -14.9291 -14.8555
   -14.5832 -14.5506 -13.4254 -13.3524 -13.3285 -13.2753  -3.0785  -3.0466
    -1.3991  -1.3285  -1.1326  -1.1104  -0.7177  -0.4509   2.2255   2.2977
     2.5383   2.5784   2.8946   2.9629   3.2673   3.2760   4.1869   4.2240

          k =-0.1718 0.0992 0.1086 (  8427 PWs)   bands (ev):

   -33.6460 -33.6337 -16.6263 -16.5600 -15.0256 -15.0229 -14.7415 -14.7025
   -14.6519 -14.6125 -13.5713 -13.5549 -13.1631 -13.1491  -3.2488  -3.1338
    -1.3499  -1.3498  -1.3264  -1.1718  -1.1380  -0.0663   2.4684   2.5010
     2.6668   2.6999   2.8715   2.9112   3.5389   3.6598   3.9066   4.1695

          k =-0.3436-0.0000 0.1629 (  8424 PWs)   bands (ev):

   -33.6444 -33.6350 -16.6503 -16.5349 -15.0293 -14.9942 -14.7948 -14.7309
   -14.6363 -14.6242 -13.5148 -13.4556 -13.2473 -13.1816  -3.1472  -3.1439
    -1.3616  -1.2834  -1.2640  -1.1246  -1.0529  -0.2169   2.4368   2.5144
     2.5941   2.6525   2.7667   2.9082   3.3657   3.5420   4.0855   4.1495

          k =-0.5153-0.0992 0.2171 (  8424 PWs)   bands (ev):

   -33.6420 -33.6372 -16.6359 -16.5520 -15.0336 -14.9697 -14.8470 -14.8053
   -14.6053 -14.5662 -13.4814 -13.4179 -13.2724 -13.2227  -3.0957  -3.0620
    -1.3719  -1.3129  -1.1915  -1.1037  -0.7867  -0.3846   2.2615   2.3742
     2.5435   2.5544   2.8159   2.9452   3.2430   3.3918   4.1803   4.2188

          k = 0.5153 0.4959-0.1086 (  8435 PWs)   bands (ev):

   -33.6399 -33.6391 -16.6182 -16.5710 -15.0175 -14.9538 -14.9068 -14.8085
   -14.5928 -14.5560 -13.4759 -13.3844 -13.3013 -13.2301  -3.0755  -3.0148
    -1.4098  -1.3147  -1.1461  -1.0895  -0.5924  -0.5315   2.1861   2.2578
     2.4918   2.5629   2.8449   2.9251   3.2764   3.3120   4.2055   4.2609

          k = 0.3436 0.3967-0.0543 (  8446 PWs)   bands (ev):

   -33.6427 -33.6364 -16.6644 -16.5150 -15.0642 -14.9689 -14.8906 -14.7339
   -14.6343 -14.5359 -13.5237 -13.4100 -13.2611 -13.2075  -3.1299  -3.0203
    -1.4287  -1.2415  -1.1725  -1.1130  -0.8721  -0.3467   2.2218   2.4456
     2.5027   2.5829   2.7413   2.9765   3.2977   3.4001   4.1528   4.2531

          k = 0.1718 0.2975 0.0000 (  8433 PWs)   bands (ev):

   -33.6450 -33.6345 -16.6549 -16.5266 -15.0226 -15.0079 -14.7918 -14.7180
   -14.6661 -14.6070 -13.5262 -13.4609 -13.2393 -13.1728  -3.1412  -3.1378
    -1.3845  -1.2693  -1.2586  -1.1233  -1.1136  -0.1785   2.4428   2.5516
     2.5666   2.6895   2.7180   2.8642   3.4341   3.5426   4.0880   4.1613

          k =-0.3436 0.1984 0.2171 (  8438 PWs)   bands (ev):

   -33.6438 -33.6355 -16.6803 -16.5030 -15.0529 -15.0096 -14.7425 -14.6823
   -14.6723 -14.6572 -13.5029 -13.4547 -13.2392 -13.2018  -3.1888  -3.0657
    -1.3974  -1.2745  -1.2132  -1.0903  -0.9713  -0.3008   2.3125   2.4938
     2.5400   2.7144   2.7424   3.0253   3.1974   3.5539   4.0994   4.1643

          k =-0.5153 0.0992 0.2714 (  8443 PWs)   bands (ev):

   -33.6423 -33.6368 -16.6840 -16.5008 -15.0942 -14.9952 -14.7848 -14.7151
   -14.6489 -14.5625 -13.5802 -13.4126 -13.2630 -13.1680  -3.1706  -2.9870
    -1.4130  -1.2799  -1.1824  -1.0642  -0.7864  -0.4024   2.1614   2.3869
     2.5299   2.6703   2.7560   2.9476   3.1839   3.4694   4.1051   4.2796

          k = 0.5153 0.6942-0.0543 (  8438 PWs)   bands (ev):

   -33.6403 -33.6387 -16.6283 -16.5687 -15.0568 -14.9397 -14.8394 -14.7583
   -14.6400 -14.5830 -13.5333 -13.4076 -13.2720 -13.1907  -3.0690  -3.0070
    -1.3691  -1.3401  -1.1901  -1.0569  -0.5821  -0.4923   2.1358   2.2296
     2.5328   2.5787   2.7691   2.8015   3.2867   3.3920   4.2157   4.2861

          k = 0.3436 0.5951 0.0000 (  8459 PWs)   bands (ev):

   -33.6408 -33.6382 -16.6424 -16.5471 -15.0485 -14.9767 -14.8990 -14.6769
   -14.6671 -14.5502 -13.5464 -13.4068 -13.2726 -13.1840  -3.0873  -2.9863
    -1.4368  -1.2188  -1.2101  -1.0816  -0.6608  -0.4463   2.1363   2.2783
     2.4834   2.5486   2.7551   2.8782   3.3428   3.3435   4.2012   4.3065

          k =-0.5153 0.2975 0.3257 (  8423 PWs)   bands (ev):

   -33.6421 -33.6370 -16.7208 -16.4518 -15.1297 -15.1004 -14.6893 -14.6726
   -14.6603 -14.4956 -13.6473 -13.5320 -13.1731 -13.1389  -3.2262  -2.8942
    -1.4812  -1.2489  -1.1149  -1.0329  -0.7412  -0.4686   2.0445   2.3275
     2.5657   2.7581   2.7681   2.8404   3.2143   3.4613   4.0238   4.3566

          k = 0.5153 0.8926 0.0000 (  8443 PWs)   bands (ev):

   -33.6414 -33.6376 -16.6990 -16.4855 -15.1006 -15.0651 -14.7205 -14.6880
   -14.6634 -14.5291 -13.6342 -13.4816 -13.2038 -13.1450  -3.1793  -2.9067
    -1.4464  -1.2908  -1.1400  -1.0302  -0.6545  -0.4758   2.0313   2.2770
     2.6041   2.6829   2.7472   2.7541   3.2728   3.4254   4.0817   4.3638

          k =-0.0000-0.0000 0.1629 (  8394 PWs)   bands (ev):

   -33.6462 -33.6335 -16.6010 -16.5854 -15.0461 -15.0461 -14.7290 -14.7290
   -14.6345 -14.5104 -13.6218 -13.6218 -13.1242 -13.1242  -3.3220  -3.1304
    -1.3775  -1.3775  -1.3274  -1.1659  -1.1659  -0.0128   2.4444   2.4444
     2.7103   2.7103   3.0025   3.0025   3.6738   3.6738   3.7562   4.1644

          k =-0.1718-0.0992 0.2171 (  8440 PWs)   bands (ev):

   -33.6451 -33.6345 -16.6166 -16.5718 -15.0593 -14.9578 -14.8418 -14.6852
   -14.6522 -14.5584 -13.6065 -13.4699 -13.2308 -13.1309  -3.2609  -3.1451
    -1.3538  -1.3440  -1.2277  -1.1777  -1.1341  -0.1341   2.4656   2.5240
     2.6547   2.7086   2.8409   2.9945   3.5149   3.5730   3.9178   4.1466

          k =-0.3436-0.1984 0.2714 (  8409 PWs)   bands (ev):

   -33.6428 -33.6365 -16.6171 -16.5728 -15.0354 -14.9563 -14.8862 -14.7388
   -14.6139 -14.5744 -13.5203 -13.3538 -13.3524 -13.1775  -3.1597  -3.1039
    -1.3297  -1.3251  -1.1941  -1.1737  -0.8938  -0.3186   2.3989   2.4935
     2.5790   2.5994   2.7887   2.9813   3.3002   3.4017   4.1042   4.1674

          k = 0.6871 0.3967-0.0543 (  8416 PWs)   bands (ev):

   -33.6400 -33.6391 -16.6232 -16.5661 -15.0340 -14.9462 -14.8874 -14.8187
   -14.5981 -14.5439 -13.4461 -13.4161 -13.3074 -13.2255  -3.1221  -3.0067
    -1.4176  -1.2939  -1.1607  -1.0962  -0.6301  -0.5174   2.2014   2.3054
     2.5109   2.6206   2.8467   3.0649   3.1561   3.2948   4.1572   4.2465

          k = 0.5153 0.2975 0.0000 (  8436 PWs)   bands (ev):

   -33.6419 -33.6372 -16.6733 -16.5045 -15.0554 -15.0201 -14.8443 -14.7719
   -14.6238 -14.5114 -13.5313 -13.3886 -13.2762 -13.2117  -3.1470  -2.9736
    -1.4605  -1.2260  -1.1661  -1.0830  -0.7836  -0.4206   2.1376   2.3709
     2.4823   2.6614   2.7709   3.0878   3.1743   3.3627   4.1225   4.2852

          k = 0.3436 0.1984 0.0543 (  8438 PWs)   bands (ev):

   -33.6444 -33.6349 -16.6708 -16.5084 -15.0421 -14.9939 -14.8201 -14.7144
   -14.6465 -14.6097 -13.5279 -13.4023 -13.2812 -13.1818  -3.1575  -3.0833
    -1.3997  -1.2835  -1.1919  -1.1210  -1.0484  -0.2399   2.3580   2.4832
     2.6249   2.6651   2.6717   2.9545   3.3372   3.5266   4.1361   4.1510

          k =-0.1718 0.0992 0.2714 (  8416 PWs)   bands (ev):

   -33.6445 -33.6351 -16.6245 -16.5667 -15.0336 -14.9706 -14.8154 -14.7196
   -14.6307 -14.6029 -13.5399 -13.4809 -13.2159 -13.1806  -3.2476  -3.1733
    -1.3494  -1.3185  -1.2463  -1.1501  -1.0984  -0.1895   2.4799   2.5078
     2.6551   2.6556   2.9154   3.0316   3.4195   3.6092   3.9191   4.1159

          k =-0.3436-0.0000 0.3257 (  8418 PWs)   bands (ev):

   -33.6430 -33.6364 -16.6365 -16.5569 -15.0297 -14.9785 -14.8164 -14.6987
   -14.6708 -14.6068 -13.4873 -13.4427 -13.2633 -13.2064  -3.1603  -3.1578
    -1.3298  -1.2860  -1.2642  -1.1330  -0.9066  -0.3293   2.4245   2.4612
     2.6082   2.6752   2.7945   3.0265   3.2327   3.4922   4.0808   4.1225

          k = 0.6871 0.5951 0.0000 (  8427 PWs)   bands (ev):

   -33.6407 -33.6384 -16.5999 -16.5972 -15.0331 -14.9576 -14.8429 -14.7635
   -14.6163 -14.6017 -13.4934 -13.3900 -13.3101 -13.2038  -3.1076  -3.0593
    -1.3766  -1.2815  -1.2225  -1.0953  -0.6735  -0.4631   2.2646   2.3040
     2.5593   2.6258   2.7947   2.9588   3.2051   3.3549   4.1765   4.2096

          k = 0.5153 0.4959 0.0543 (  8440 PWs)   bands (ev):

   -33.6407 -33.6384 -16.6601 -16.5275 -15.0617 -14.9971 -14.8649 -14.7152
   -14.6359 -14.5367 -13.5594 -13.3882 -13.2922 -13.1774  -3.1294  -2.9593
    -1.4556  -1.2153  -1.1906  -1.0778  -0.6395  -0.4890   2.1089   2.2927
     2.4727   2.6394   2.7830   2.9340   3.2618   3.3392   4.1494   4.3121

          k = 0.3436 0.3967 0.1086 (  8446 PWs)   bands (ev):

   -33.6428 -33.6363 -16.6815 -16.4964 -15.0904 -14.9851 -14.8561 -14.6809
   -14.6680 -14.5351 -13.5728 -13.3848 -13.2860 -13.1723  -3.1566  -2.9935
    -1.4357  -1.2446  -1.1571  -1.1046  -0.8675  -0.3548   2.1822   2.4624
     2.4778   2.6238   2.7205   3.0029   3.2398   3.4490   4.1239   4.2749

          k =-0.3436 0.1984 0.3800 (  8426 PWs)   bands (ev):

   -33.6424 -33.6369 -16.6740 -16.5173 -15.0864 -14.9584 -14.7533 -14.7174
   -14.6740 -14.6084 -13.5012 -13.4616 -13.2392 -13.2075  -3.2112  -3.0644
    -1.4038  -1.2590  -1.1949  -1.0961  -0.8274  -0.4150   2.2962   2.4309
     2.6066   2.7213   2.8143   3.0346   3.1020   3.5033   4.0697   4.1704

          k = 0.6871 0.7934 0.0543 (  8443 PWs)   bands (ev):

   -33.6412 -33.6379 -16.6697 -16.5250 -15.0761 -14.9931 -14.7457 -14.7070
   -14.6664 -14.6064 -13.5392 -13.4576 -13.2279 -13.1951  -3.1674  -2.9995
    -1.4057  -1.2905  -1.1677  -1.0744  -0.6793  -0.4761   2.1684   2.3271
     2.6134   2.7081   2.7681   2.8392   3.2002   3.4223   4.1093   4.2665

          k = 0.5153 0.6942 0.1086 (  8457 PWs)   bands (ev):

   -33.6398 -33.6392 -16.6113 -16.5899 -15.0286 -14.9774 -14.7933 -14.7364
   -14.6637 -14.6181 -13.4982 -13.4492 -13.2415 -13.2103  -3.0497  -3.0277
    -1.3765  -1.3411  -1.1599  -1.0788  -0.5429  -0.5185   2.1509   2.1850
     2.5719   2.6075   2.7532   2.7646   3.3065   3.3618   4.2375   4.2635

          k = 0.3436 0.5951 0.1629 (  8441 PWs)   bands (ev):

   -33.6407 -33.6383 -16.6389 -16.5529 -15.0572 -14.9596 -14.8733 -14.7373
   -14.6284 -14.5617 -13.5461 -13.3995 -13.2784 -13.1841  -3.0824  -2.9919
    -1.4072  -1.3096  -1.1294  -1.1068  -0.6332  -0.4609   2.1346   2.2654
     2.5026   2.5503   2.7609   2.8523   3.3144   3.3740   4.2040   4.3011

          k = 0.6871-0.3967-0.2714 (  8438 PWs)   bands (ev):

   -33.6414 -33.6377 -16.7097 -16.4694 -15.1324 -15.0710 -14.6962 -14.6862
   -14.6623 -14.5015 -13.6119 -13.5491 -13.1618 -13.1604  -3.2211  -2.9039
    -1.4815  -1.2409  -1.1021  -1.0635  -0.6769  -0.5092   2.0598   2.3116
     2.6122   2.7291   2.7556   2.8491   3.2147   3.4178   4.0370   4.3445

          k = 0.5153-0.4959-0.2171 (  8442 PWs)   bands (ev):

   -33.6412 -33.6378 -16.6888 -16.4967 -15.0889 -15.0499 -14.7766 -14.6719
   -14.6611 -14.5323 -13.6153 -13.4543 -13.2295 -13.1506  -3.1662  -2.9206
    -1.4564  -1.2697  -1.1144  -1.0770  -0.6542  -0.4755   2.0520   2.2855
     2.5302   2.6854   2.7552   2.8334   3.2698   3.3936   4.1016   4.3498

          k = 0.5153-0.2975-0.1629 (  8451 PWs)   bands (ev):

   -33.6423 -33.6368 -16.7077 -16.4643 -15.0960 -15.0909 -14.7512 -14.6959
   -14.6564 -14.4931 -13.6160 -13.4708 -13.2127 -13.1570  -3.1995  -2.9188
    -1.4800  -1.2319  -1.0978  -1.0893  -0.7861  -0.4317   2.0721   2.3772
     2.4758   2.7249   2.7483   3.0138   3.1763   3.4336   4.0591   4.3340

          k =-0.0000-0.0000 0.3257 (  8410 PWs)   bands (ev):

   -33.6443 -33.6355 -16.6011 -16.5901 -15.0089 -15.0089 -14.7945 -14.7945
   -14.6122 -14.5265 -13.5288 -13.5288 -13.1895 -13.1895  -3.3159  -3.1894
    -1.3424  -1.3424  -1.1963  -1.1963  -1.1028  -0.1961   2.4870   2.4870
     2.6730   2.6730   3.0885   3.0885   3.5528   3.5528   3.8084   4.0841

          k =-0.1718-0.0992 0.3800 (  8410 PWs)   bands (ev):

   -33.6430 -33.6367 -16.6065 -16.5874 -15.0357 -14.9148 -14.9103 -14.7305
   -14.6256 -14.5550 -13.5369 -13.3926 -13.3056 -13.1800  -3.2641  -3.1849
    -1.3299  -1.2902  -1.2186  -1.2143  -0.9428  -0.3198   2.4812   2.5455
     2.6309   2.6420   2.9411   3.1431   3.3554   3.4854   3.9363   4.0826

          k = 0.8589 0.4959 0.0543 (  8405 PWs)   bands (ev):

   -33.6410 -33.6384 -16.6153 -16.5811 -15.0638 -14.9221 -14.8879 -14.6921
   -14.6617 -14.5612 -13.5232 -13.3734 -13.3370 -13.1798  -3.1961  -3.0867
    -1.3714  -1.2348  -1.2166  -1.1715  -0.7331  -0.4586   2.3416   2.4527
     2.6401   2.6694   2.7311   3.1377   3.1672   3.3416   4.0758   4.1677

          k = 0.6871 0.3967 0.1086 (  8420 PWs)   bands (ev):

   -33.6403 -33.6387 -16.6755 -16.5111 -15.0990 -15.0165 -14.7845 -14.7319
   -14.6395 -14.5149 -13.5249 -13.5152 -13.2191 -13.1801  -3.1843  -2.9444
    -1.4671  -1.2089  -1.1674  -1.0858  -0.5997  -0.5579   2.1153   2.3264
     2.5232   2.7056   2.7767   2.9942   3.1882   3.3291   4.0893   4.3027

          k =-0.1718 0.0992 0.4343 (  8419 PWs)   bands (ev):

   -33.6422 -33.6374 -16.6170 -16.5791 -15.0242 -14.8994 -14.8956 -14.7776
   -14.5995 -14.5882 -13.4871 -13.3762 -13.3098 -13.2270  -3.2412  -3.2190
    -1.3270  -1.2785  -1.2481  -1.1827  -0.8621  -0.4025   2.5059   2.5199
     2.6141   2.6345   3.0195   3.1783   3.2580   3.4869   3.9569   4.0445

          k = 0.8589 0.6942 0.1086 (  8430 PWs)   bands (ev):

   -33.6409 -33.6385 -16.6141 -16.5858 -15.0148 -14.9897 -14.7972 -14.7405
   -14.6422 -14.6092 -13.4571 -13.4384 -13.2648 -13.2399  -3.1702  -3.1692
    -1.3200  -1.3045  -1.2083  -1.1597  -0.7100  -0.5033   2.4158   2.4259
     2.6335   2.6675   2.8828   3.0181   3.2374   3.3804   4.0822   4.0964

          k = 0.6871 0.5951 0.1629 (  8441 PWs)   bands (ev):

   -33.6398 -33.6393 -16.6393 -16.5608 -15.0483 -14.9812 -14.7942 -14.6866
   -14.6620 -14.6289 -13.4887 -13.4639 -13.2508 -13.2047  -3.1454  -3.0255
    -1.4038  -1.2808  -1.1472  -1.1211  -0.5673  -0.5666   2.2062   2.3009
     2.6326   2.6880   2.7449   2.8717   3.2627   3.3220   4.1366   4.2401

          k = 0.8589-0.4959-0.2171 (  8418 PWs)   bands (ev):

   -33.6405 -33.6389 -16.6514 -16.5457 -15.0892 -14.9118 -14.8434 -14.7071
   -14.6607 -14.5727 -13.5247 -13.4145 -13.2892 -13.1881  -3.2149  -3.0733
    -1.3986  -1.2386  -1.1757  -1.1482  -0.6416  -0.5660   2.3060   2.4193
     2.6668   2.6894   2.8106   2.9924   3.1931   3.3877   4.0609   4.1699

          k =-0.0000-0.0000 0.4886 (  8395 PWs)   bands (ev):

   -33.6414 -33.6383 -16.5994 -16.5955 -14.9497 -14.9497 -14.8745 -14.8745
   -14.5821 -14.5515 -13.4088 -13.4088 -13.2891 -13.2891  -3.2944  -3.2508
    -1.2935  -1.2935  -1.2415  -1.2415  -0.7959  -0.4729   2.5485   2.5485
     2.6153   2.6153   3.2242   3.2242   3.3898   3.3898   3.8873   3.9838

          k = 1.0307 0.5951 0.1629 (  8415 PWs)   bands (ev):

   -33.6402 -33.6394 -16.6038 -16.5934 -15.0066 -14.9502 -14.8613 -14.7976
   -14.5983 -14.5708 -13.4486 -13.3777 -13.3215 -13.2508  -3.2517  -3.2207
    -1.3095  -1.2530  -1.2466  -1.2258  -0.6717  -0.5785   2.5083   2.5447
     2.6080   2.6109   3.0783   3.1859   3.3027   3.3568   3.9797   4.0143

     highest occupied level (ev):     4.3638

!    total energy              =    -367.41491457 Ry
     Harris-Foulkes estimate   =    -367.41491458 Ry
     estimated scf accuracy    <          2.0E-09 Ry

     The total energy is the sum of the following terms:

     one-electron contribution =    -141.44622677 Ry
     hartree contribution      =     100.23337270 Ry
     xc contribution           =     -75.01841029 Ry
     ewald contribution        =    -251.18365021 Ry

     convergence has been achieved in  10 iterations

     Forces acting on atoms (cartesian axes, Ry/au):

     atom    1 type  1   force =     0.00000000    0.00000000   -0.00000000
     atom    2 type  1   force =     0.00000000    0.00000000   -0.00000000
     atom    3 type  2   force =    -0.00000000    0.00000000   -0.00000000
     atom    4 type  2   force =     0.00000000   -0.00000000   -0.00000000
     atom    5 type  3   force =    -0.03547440    0.06144346    0.00000000
     atom    6 type  3   force =     0.07094879   -0.00000000    0.00000000
     atom    7 type  3   force =    -0.03547440   -0.06144346   -0.00000000
     atom    8 type  3   force =    -0.07094879    0.00000000   -0.00000000
     atom    9 type  3   force =     0.03547440    0.06144346    0.00000000
     atom   10 type  3   force =     0.03547440   -0.06144346   -0.00000000

     Total force =     0.173788     Total SCF correction =     0.000078


     Computing stress (Cartesian axis) and pressure

          total   stress  (Ry/bohr**3)                   (kbar)     P=  -58.34
  -0.00068107   0.00000000   0.00000000       -100.19      0.00      0.00
   0.00000000  -0.00068107  -0.00000000          0.00   -100.19     -0.00
  -0.00000000  -0.00000000   0.00017235         -0.00     -0.00     25.35


     BFGS Geometry Optimization

     number of scf cycles    =   1
     number of bfgs steps    =   0

     energy   new            =    -367.4149145737 Ry

     new trust radius        =       0.0709487930 bohr
     new conv_thr            =       0.0000000100 Ry


ATOMIC_POSITIONS (crystal)
Ca       0.500000000   0.500000000   0.500000000
Ca       0.000000000   0.000000000  -0.000000000
C        0.250000000   0.250000000   0.250000000
C        0.750000000   0.750000000   0.750000000
O        0.499757286   1.000242714   0.250000000
O        1.000242714   0.250000000   0.499757286
O        0.250000000   0.499757286   1.000242714
O       -0.000242714   0.750000000   0.500242714
O        0.750000000   0.500242714  -0.000242714
O        0.500242714  -0.000242714   0.750000000



     Writing output data file CCO_rand4.save/
     NEW-OLD atomic charge density approx. for the potential

     Check: negative core charge=   -0.000003

     total cpu time spent up to now is      172.5 secs

     Self-consistent Calculation

     iteration #  1     ecut=    70.00 Ry     beta= 0.70
     CG style diagonalization
     c_bands:  2 eigenvalues not converged
     c_bands:  3 eigenvalues not converged
     c_bands:  1 eigenvalues not converged
     c_bands:  4 eigenvalues not converged
     c_bands:  3 eigenvalues not converged
     c_bands:  3 eigenvalues not converged
     c_bands:  4 eigenvalues not converged
     c_bands:  4 eigenvalues not converged
     c_bands:  5 eigenvalues not converged
     c_bands:  1 eigenvalues not converged
     c_bands:  3 eigenvalues not converged
     c_bands:  4 eigenvalues not converged
     c_bands:  2 eigenvalues not converged
     c_bands:  3 eigenvalues not converged
     c_bands:  2 eigenvalues not converged
     c_bands:  3 eigenvalues not converged
     c_bands:  5 eigenvalues not converged
     c_bands:  5 eigenvalues not converged
     c_bands:  5 eigenvalues not converged
     c_bands:  5 eigenvalues not converged
     c_bands:  5 eigenvalues not converged
     c_bands:  5 eigenvalues not converged
     c_bands:  5 eigenvalues not converged
     c_bands:  4 eigenvalues not converged
     c_bands:  3 eigenvalues not converged
     c_bands:  2 eigenvalues not converged
     ethr =  1.00E-06,  avg # of iterations = 13.4

     total cpu time spent up to now is      227.0 secs

     total energy              =    -367.41981959 Ry
     Harris-Foulkes estimate   =    -367.43312536 Ry
     estimated scf accuracy    <       0.01810567 Ry

     iteration #  2     ecut=    70.00 Ry     beta= 0.70
     CG style diagonalization
     ethr =  2.83E-05,  avg # of iterations =  4.0

     total cpu time spent up to now is      243.5 secs

     total energy              =    -367.42473690 Ry
     Harris-Foulkes estimate   =    -367.42959119 Ry
     estimated scf accuracy    <       0.00878694 Ry

     iteration #  3     ecut=    70.00 Ry     beta= 0.70
     CG style diagonalization
     ethr =  1.37E-05,  avg # of iterations =  3.6

     total cpu time spent up to now is      258.1 secs

     total energy              =    -367.42684710 Ry
     Harris-Foulkes estimate   =    -367.42693595 Ry
     estimated scf accuracy    <       0.00018971 Ry

     iteration #  4     ecut=    70.00 Ry     beta= 0.70
     CG style diagonalization
     ethr =  2.96E-07,  avg # of iterations =  4.2

     total cpu time spent up to now is      275.3 secs

     total energy              =    -367.42698082 Ry
     Harris-Foulkes estimate   =    -367.42701037 Ry
     estimated scf accuracy    <       0.00007716 Ry

     iteration #  5     ecut=    70.00 Ry     beta= 0.70
     CG style diagonalization
     ethr =  1.21E-07,  avg # of iterations =  3.5

     total cpu time spent up to now is      289.8 secs

     total energy              =    -367.42699030 Ry
     Harris-Foulkes estimate   =    -367.42699216 Ry
     estimated scf accuracy    <       0.00000327 Ry

     iteration #  6     ecut=    70.00 Ry     beta= 0.70
     CG style diagonalization
     ethr =  5.11E-09,  avg # of iterations =  4.1

     total cpu time spent up to now is      307.0 secs

     total energy              =    -367.42699149 Ry
     Harris-Foulkes estimate   =    -367.42699171 Ry
     estimated scf accuracy    <       0.00000041 Ry

     iteration #  7     ecut=    70.00 Ry     beta= 0.70
     CG style diagonalization
     ethr =  6.48E-10,  avg # of iterations =  4.1

     total cpu time spent up to now is      323.7 secs

     total energy              =    -367.42699164 Ry
     Harris-Foulkes estimate   =    -367.42699167 Ry
     estimated scf accuracy    <       0.00000005 Ry

     iteration #  8     ecut=    70.00 Ry     beta= 0.70
     CG style diagonalization
     ethr =  7.57E-11,  avg # of iterations =  3.9

     total cpu time spent up to now is      339.9 secs

     End of self-consistent calculation

          k = 0.0000 0.0000 0.0000 (  8403 PWs)   bands (ev):

   -33.7660 -33.7527 -17.0612 -17.0055 -15.1438 -15.1438 -14.8087 -14.8087
   -14.7532 -14.6800 -13.8722 -13.8722 -13.3539 -13.3539  -3.2172  -2.9461
    -1.6411  -1.4657  -1.4657  -1.2426  -1.2426  -0.2843   2.4643   2.4643
     2.7088   2.7088   2.9653   2.9653   3.7267   3.7267   3.9305   4.3640

          k =-0.1718-0.0992 0.0543 (  8433 PWs)   bands (ev):

   -33.7653 -33.7533 -17.0748 -16.9915 -15.1422 -15.0876 -14.8733 -14.8063
   -14.7662 -14.7362 -13.8361 -13.7515 -13.4286 -13.3699  -3.1446  -2.9636
    -1.5784  -1.4417  -1.4113  -1.2652  -1.2381  -0.3684   2.4899   2.5264
     2.6667   2.7345   2.8174   2.8964   3.6222   3.6395   4.0702   4.3470

          k =-0.3436-0.1984 0.1086 (  8435 PWs)   bands (ev):

   -33.7633 -33.7550 -17.0871 -16.9778 -15.1341 -15.0208 -15.0064 -14.8535
   -14.7443 -14.7231 -13.7525 -13.5955 -13.5643 -13.4204  -2.9978  -2.9691
    -1.5241  -1.3861  -1.2686  -1.2574  -1.2129  -0.5380   2.4351   2.4562
     2.6050   2.6086   2.8160   2.8825   3.4355   3.4599   4.2854   4.3222

          k =-0.5153-0.2975 0.1629 (  8445 PWs)   bands (ev):

   -33.7605 -33.7576 -17.0609 -17.0072 -15.0767 -15.0384 -15.0241 -14.9524
   -14.7241 -14.6957 -13.6552 -13.5839 -13.5637 -13.5100  -2.9266  -2.9095
    -1.5149  -1.4338  -1.2382  -1.2171  -0.9517  -0.7155   2.2317   2.3000
     2.5425   2.5744   2.9238   2.9811   3.2948   3.3061   4.3445   4.3779

          k =-0.1718 0.0992 0.1086 (  8427 PWs)   bands (ev):

   -33.7651 -33.7535 -17.0763 -16.9907 -15.1137 -15.1127 -14.8541 -14.8114
   -14.7671 -14.7617 -13.7891 -13.7771 -13.4121 -13.3981  -3.1403  -2.9768
    -1.5492  -1.4302  -1.4298  -1.2696  -1.2276  -0.3856   2.4964   2.5194
     2.6618   2.6978   2.8711   2.9059   3.5641   3.6733   4.0719   4.3354

          k =-0.3436-0.0000 0.1629 (  8424 PWs)   bands (ev):

   -33.7637 -33.7547 -17.0893 -16.9771 -15.1200 -15.0868 -14.9040 -14.8491
   -14.7588 -14.7529 -13.7380 -13.6821 -13.4910 -13.4264  -3.0283  -2.9905
    -1.4938  -1.3997  -1.3555  -1.2245  -1.2144  -0.5163   2.4445   2.5299
     2.5934   2.6535   2.7751   2.9219   3.3881   3.5649   4.2426   4.3120

          k =-0.5153-0.0992 0.2171 (  8424 PWs)   bands (ev):

   -33.7613 -33.7568 -17.0721 -16.9971 -15.1228 -15.0677 -14.9503 -14.9058
   -14.7406 -14.7058 -13.7050 -13.6496 -13.5082 -13.4644  -2.9420  -2.9307
    -1.4891  -1.4166  -1.3056  -1.2041  -1.0033  -0.6598   2.2690   2.3810
     2.5427   2.5575   2.8383   2.9678   3.2672   3.4205   4.3390   4.3711

          k = 0.5153 0.4959-0.1086 (  8435 PWs)   bands (ev):

   -33.7594 -33.7586 -17.0534 -17.0169 -15.1096 -15.0484 -15.0033 -14.9113
   -14.7278 -14.7036 -13.6995 -13.6145 -13.5363 -13.4708  -2.9272  -2.8710
    -1.5208  -1.4279  -1.2569  -1.1952  -0.8445  -0.7801   2.1919   2.2643
     2.4981   2.5631   2.8706   2.9498   3.3013   3.3416   4.3593   4.4149

          k = 0.3436 0.3967-0.0543 (  8446 PWs)   bands (ev):

   -33.7621 -33.7561 -17.0953 -16.9688 -15.1532 -15.0617 -14.9883 -14.8437
   -14.7585 -14.6838 -13.7478 -13.6397 -13.4978 -13.4508  -2.9717  -2.8923
    -1.5459  -1.3465  -1.2748  -1.2123  -1.0966  -0.6242   2.2278   2.4442
     2.5175   2.5755   2.7725   2.9906   3.3193   3.4293   4.3114   4.4059

          k = 0.1718 0.2975 0.0000 (  8433 PWs)   bands (ev):

   -33.7642 -33.7542 -17.0943 -16.9696 -15.1108 -15.1019 -14.8953 -14.8519
   -14.7738 -14.7397 -13.7476 -13.6886 -13.4840 -13.4180  -3.0232  -2.9804
    -1.5297  -1.3842  -1.3502  -1.2676  -1.2165  -0.4823   2.4468   2.5558
     2.5777   2.7020   2.7191   2.8725   3.4594   3.5638   4.2439   4.3231

          k =-0.3436 0.1984 0.2171 (  8438 PWs)   bands (ev):

   -33.7631 -33.7552 -17.1093 -16.9563 -15.1418 -15.1053 -14.8609 -14.8128
   -14.7900 -14.7672 -13.7245 -13.6800 -13.4823 -13.4492  -3.0324  -2.9479
    -1.4850  -1.3775  -1.3720  -1.1830  -1.1466  -0.5912   2.3240   2.5213
     2.5401   2.7040   2.7546   3.0405   3.2169   3.5745   4.2621   4.3232

          k =-0.5153 0.0992 0.2714 (  8443 PWs)   bands (ev):

   -33.7617 -33.7565 -17.1080 -16.9595 -15.1800 -15.0953 -14.8981 -14.8197
   -14.7644 -14.7081 -13.7965 -13.6394 -13.5036 -13.4164  -3.0148  -2.8591
    -1.5011  -1.3930  -1.3306  -1.1598  -0.9971  -0.6771   2.1747   2.4126
     2.5315   2.6646   2.7720   2.9673   3.2066   3.4948   4.2651   4.4331

          k = 0.5153 0.6942-0.0543 (  8438 PWs)   bands (ev):

   -33.7598 -33.7582 -17.0613 -17.0133 -15.1439 -15.0441 -14.9498 -14.8723
   -14.7606 -14.7189 -13.7500 -13.6329 -13.5130 -13.4366  -2.9184  -2.8648
    -1.4855  -1.4360  -1.3292  -1.1579  -0.8183  -0.7543   2.1495   2.2438
     2.5357   2.5792   2.7943   2.8284   3.3138   3.4191   4.3694   4.4366

          k = 0.3436 0.5951 0.0000 (  8459 PWs)   bands (ev):

   -33.7602 -33.7578 -17.0735 -16.9970 -15.1421 -15.0685 -14.9961 -14.8069
   -14.7743 -14.6992 -13.7662 -13.6342 -13.5097 -13.4291  -2.9341  -2.8462
    -1.5507  -1.3373  -1.3160  -1.1855  -0.9089  -0.7025   2.1433   2.2912
     2.4877   2.5498   2.7838   2.9014   3.3640   3.3748   4.3550   4.4574

          k =-0.5153 0.2975 0.3257 (  8423 PWs)   bands (ev):

   -33.7615 -33.7566 -17.1349 -16.9270 -15.2161 -15.1859 -14.7957 -14.7793
   -14.7703 -14.6639 -13.8585 -13.7506 -13.4188 -13.3906  -3.0684  -2.7646
    -1.5618  -1.3693  -1.2769  -1.1273  -0.9570  -0.7360   2.0603   2.3649
     2.5708   2.7429   2.7823   2.8607   3.2364   3.4853   4.1877   4.5103

          k = 0.5153 0.8926 0.0000 (  8443 PWs)   bands (ev):

   -33.7608 -33.7572 -17.1165 -16.9517 -15.1840 -15.1628 -14.8251 -14.8061
   -14.7706 -14.6870 -13.8443 -13.7026 -13.4485 -13.3956  -3.0232  -2.7713
    -1.5293  -1.4151  -1.2961  -1.1268  -0.8825  -0.7388   2.0471   2.3090
     2.6041   2.6802   2.7674   2.7741   3.2973   3.4511   4.2412   4.5151

          k =-0.0000-0.0000 0.1629 (  8394 PWs)   bands (ev):

   -33.7654 -33.7534 -17.0593 -17.0090 -15.1319 -15.1319 -14.8337 -14.8337
   -14.7485 -14.6825 -13.8382 -13.8382 -13.3749 -13.3749  -3.2159  -2.9793
    -1.5559  -1.4536  -1.4536  -1.2528  -1.2528  -0.3393   2.4766   2.4766
     2.6973   2.6973   2.9968   2.9968   3.6821   3.6821   3.9473   4.3344

          k =-0.1718-0.0992 0.2171 (  8440 PWs)   bands (ev):

   -33.7643 -33.7543 -17.0669 -17.0022 -15.1466 -15.0492 -14.9463 -14.7940
   -14.7679 -14.7158 -13.8254 -13.6946 -13.4754 -13.3795  -3.1505  -2.9957
    -1.4978  -1.4326  -1.3518  -1.2678  -1.2598  -0.4445   2.4902   2.5408
     2.6515   2.7019   2.8402   2.9992   3.5296   3.6000   4.0803   4.3145

          k =-0.3436-0.1984 0.2714 (  8409 PWs)   bands (ev):

   -33.7622 -33.7562 -17.0609 -17.0095 -15.1281 -15.0522 -14.9792 -14.8468
   -14.7405 -14.7236 -13.7451 -13.5893 -13.5839 -13.4203  -3.0358  -2.9541
    -1.4620  -1.4182  -1.2900  -1.2736  -1.0937  -0.6044   2.4105   2.4982
     2.5741   2.6007   2.8039   3.0040   3.3236   3.4308   4.2584   4.3305

          k = 0.6871 0.3967-0.0543 (  8416 PWs)   bands (ev):

   -33.7595 -33.7587 -17.0545 -17.0162 -15.1256 -15.0388 -14.9855 -14.9196
   -14.7284 -14.6987 -13.6720 -13.6423 -13.5451 -13.4653  -2.9792  -2.8614
    -1.5193  -1.4128  -1.2723  -1.2031  -0.8627  -0.7802   2.2089   2.3151
     2.5137   2.6169   2.8668   3.0894   3.1814   3.3294   4.3104   4.4047

          k = 0.5153 0.2975 0.0000 (  8436 PWs)   bands (ev):

   -33.7613 -33.7568 -17.0997 -16.9641 -15.1426 -15.1111 -14.9447 -14.8741
   -14.7496 -14.6675 -13.7525 -13.6170 -13.5141 -13.4552  -2.9902  -2.8411
    -1.5678  -1.3389  -1.2678  -1.1933  -1.0190  -0.6859   2.1473   2.3736
     2.4953   2.6507   2.7986   3.1024   3.1969   3.3958   4.2806   4.4399

          k = 0.3436 0.1984 0.0543 (  8438 PWs)   bands (ev):

   -33.7637 -33.7547 -17.1042 -16.9585 -15.1319 -15.0860 -14.9318 -14.8282
   -14.7694 -14.7386 -13.7491 -13.6320 -13.5224 -13.4279  -2.9970  -2.9657
    -1.5225  -1.3778  -1.3325  -1.2153  -1.2090  -0.5358   2.3663   2.4832
     2.6497   2.6624   2.6777   2.9637   3.3600   3.5497   4.2976   4.3075

          k =-0.1718 0.0992 0.2714 (  8416 PWs)   bands (ev):

   -33.7638 -33.7548 -17.0707 -17.0000 -15.1233 -15.0612 -14.9251 -14.8262
   -14.7530 -14.7493 -13.7630 -13.7036 -13.4610 -13.4272  -3.1371  -3.0278
    -1.4544  -1.4007  -1.3837  -1.2586  -1.2396  -0.4938   2.5062   2.5227
     2.6459   2.6567   2.9215   3.0323   3.4361   3.6222   4.0911   4.2846

          k =-0.3436-0.0000 0.3257 (  8418 PWs)   bands (ev):

   -33.7623 -33.7561 -17.0748 -16.9973 -15.1209 -15.0752 -14.9185 -14.8301
   -14.7806 -14.7415 -13.7137 -13.6680 -13.5047 -13.4496  -3.0385  -3.0135
    -1.4142  -1.4097  -1.3718  -1.2277  -1.1071  -0.6155   2.4361   2.4803
     2.6027   2.6733   2.8082   3.0449   3.2520   3.5152   4.2409   4.2860

          k = 0.6871 0.5951 0.0000 (  8427 PWs)   bands (ev):

   -33.7602 -33.7580 -17.0420 -17.0328 -15.1249 -15.0547 -14.9492 -14.8747
   -14.7440 -14.7381 -13.7141 -13.6198 -13.5470 -13.4477  -2.9711  -2.9128
    -1.4778  -1.3815  -1.3559  -1.1992  -0.8975  -0.7310   2.2760   2.3200
     2.5582   2.6253   2.8110   2.9840   3.2315   3.3868   4.3296   4.3672

          k = 0.5153 0.4959 0.0543 (  8440 PWs)   bands (ev):

   -33.7601 -33.7579 -17.0860 -16.9836 -15.1531 -15.0881 -14.9663 -14.8233
   -14.7564 -14.6928 -13.7764 -13.6146 -13.5312 -13.4234  -2.9771  -2.8197
    -1.5609  -1.3393  -1.2943  -1.1909  -0.8882  -0.7391   2.1189   2.3095
     2.4799   2.6330   2.8047   2.9576   3.2834   3.3737   4.3041   4.4653

          k = 0.3436 0.3967 0.1086 (  8446 PWs)   bands (ev):

   -33.7622 -33.7560 -17.1080 -16.9552 -15.1771 -15.0793 -14.9590 -14.8009
   -14.7760 -14.6844 -13.7923 -13.6157 -13.5221 -13.4193  -2.9978  -2.8667
    -1.5431  -1.3526  -1.2806  -1.2034  -1.0794  -0.6325   2.1915   2.4743
     2.4855   2.6187   2.7430   3.0186   3.2594   3.4770   4.2836   4.4281

          k =-0.3436 0.1984 0.3800 (  8426 PWs)   bands (ev):

   -33.7618 -33.7566 -17.1005 -16.9707 -15.1740 -15.0606 -14.8743 -14.8241
   -14.7873 -14.7434 -13.7232 -13.6844 -13.4854 -13.4515  -3.0629  -2.9433
    -1.4874  -1.3582  -1.3327  -1.1920  -1.0416  -0.6908   2.3089   2.4592
     2.6029   2.7132   2.8330   3.0500   3.1251   3.5226   4.2324   4.3311

          k = 0.6871 0.7934 0.0543 (  8443 PWs)   bands (ev):

   -33.7607 -33.7575 -17.0940 -16.9794 -15.1643 -15.0947 -14.8614 -14.8246
   -14.7746 -14.7451 -13.7559 -13.6806 -13.4722 -13.4419  -3.0172  -2.8677
    -1.4935  -1.4013  -1.3100  -1.1755  -0.9075  -0.7389   2.1836   2.3534
     2.6142   2.6970   2.7929   2.8562   3.2317   3.4472   4.2672   4.4208

          k = 0.5153 0.6942 0.1086 (  8457 PWs)   bands (ev):

   -33.7593 -33.7587 -17.0470 -17.0299 -15.1185 -15.0756 -14.9110 -14.8719
   -14.7716 -14.7432 -13.7161 -13.6706 -13.4855 -13.4559  -2.9018  -2.8829
    -1.4908  -1.4453  -1.2885  -1.1877  -0.7856  -0.7729   2.1674   2.2013
     2.5733   2.6048   2.7788   2.7920   3.3365   3.3902   4.3896   4.4143

          k = 0.3436 0.5951 0.1629 (  8441 PWs)   bands (ev):

   -33.7601 -33.7579 -17.0704 -17.0013 -15.1470 -15.0555 -14.9792 -14.8472
   -14.7519 -14.7068 -13.7644 -13.6272 -13.5162 -13.4296  -2.9299  -2.8513
    -1.5181  -1.4252  -1.2447  -1.2137  -0.8733  -0.7197   2.1439   2.2783
     2.5062   2.5518   2.7895   2.8769   3.3373   3.4026   4.3581   4.4519

          k = 0.6871-0.3967-0.2714 (  8438 PWs)   bands (ev):

   -33.7608 -33.7573 -17.1247 -16.9412 -15.2189 -15.1593 -14.8041 -14.7927
   -14.7698 -14.6716 -13.8237 -13.7671 -13.4105 -13.4080  -3.0668  -2.7715
    -1.5667  -1.3622  -1.2477  -1.1643  -0.9095  -0.7655   2.0749   2.3475
     2.6148   2.7404   2.7458   2.8697   3.2449   3.4414   4.1977   4.4991

          k = 0.5153-0.4959-0.2171 (  8442 PWs)   bands (ev):

   -33.7606 -33.7574 -17.1085 -16.9602 -15.1772 -15.1427 -14.8844 -14.7814
   -14.7716 -14.6923 -13.8275 -13.6767 -13.4727 -13.4000  -3.0111  -2.7841
    -1.5500  -1.3923  -1.2539  -1.1787  -0.8885  -0.7328   2.0662   2.3137
     2.5362   2.6761   2.7721   2.8585   3.2935   3.4228   4.2592   4.5017

          k = 0.5153-0.2975-0.1629 (  8451 PWs)   bands (ev):

   -33.7617 -33.7564 -17.1259 -16.9351 -15.1807 -15.1788 -14.8557 -14.8046
   -14.7696 -14.6556 -13.8307 -13.6932 -13.4555 -13.4064  -3.0408  -2.7891
    -1.5727  -1.3502  -1.2420  -1.1863  -1.0035  -0.6990   2.0859   2.4021
     2.4852   2.7109   2.7642   3.0357   3.1921   3.4626   4.2209   4.4881

          k =-0.0000-0.0000 0.3257 (  8410 PWs)   bands (ev):

   -33.7635 -33.7552 -17.0533 -17.0185 -15.0972 -15.0972 -14.8959 -14.8959
   -14.7358 -14.6903 -13.7507 -13.7507 -13.4352 -13.4352  -3.2070  -3.0534
    -1.4204  -1.4204  -1.3345  -1.2817  -1.2817  -0.4997   2.5113   2.5113
     2.6646   2.6646   3.0879   3.0879   3.5612   3.5612   3.9955   4.2580

          k =-0.1718-0.0992 0.3800 (  8410 PWs)   bands (ev):

   -33.7623 -33.7563 -17.0532 -17.0201 -15.1266 -15.0126 -15.0021 -14.8373
   -14.7503 -14.7097 -13.7609 -13.6214 -13.5446 -13.4243  -3.1494  -3.0494
    -1.4094  -1.3980  -1.3087  -1.3035  -1.1582  -0.6086   2.5016   2.5563
     2.6299   2.6422   2.9441   3.1520   3.3697   3.5034   4.1057   4.2536

          k = 0.8589 0.4959 0.0543 (  8405 PWs)   bands (ev):

   -33.7604 -33.7579 -17.0458 -17.0293 -15.1555 -15.0212 -14.9826 -14.8112
   -14.7732 -14.7141 -13.7471 -13.6014 -13.5746 -13.4232  -3.0657  -2.9482
    -1.4603  -1.3618  -1.3106  -1.2742  -0.9557  -0.7294   2.3555   2.4656
     2.6395   2.6609   2.7522   3.1598   3.1883   3.3700   4.2330   4.3314

          k = 0.6871 0.3967 0.1086 (  8420 PWs)   bands (ev):

   -33.7598 -33.7583 -17.0963 -16.9735 -15.1873 -15.1073 -14.8885 -14.8369
   -14.7554 -14.6800 -13.7422 -13.7358 -13.4643 -13.4242  -3.0353  -2.8063
    -1.5623  -1.3332  -1.2734  -1.2053  -0.8526  -0.7988   2.1274   2.3515
     2.5275   2.6945   2.7911   3.0185   3.2156   3.3608   4.2451   4.4595

          k =-0.1718 0.0992 0.4343 (  8419 PWs)   bands (ev):

   -33.7616 -33.7570 -17.0583 -17.0163 -15.1141 -14.9994 -14.9952 -14.8784
   -14.7329 -14.7316 -13.7130 -13.6056 -13.5491 -13.4690  -3.1259  -3.0866
    -1.4157  -1.3626  -1.3404  -1.2732  -1.0948  -0.6823   2.5243   2.5296
     2.6219   2.6294   3.0305   3.1850   3.2690   3.4993   4.1307   4.2158

          k = 0.8589 0.6942 0.1086 (  8430 PWs)   bands (ev):

   -33.7603 -33.7581 -17.0522 -17.0246 -15.1079 -15.0866 -14.9001 -14.8567
   -14.7672 -14.7443 -13.6845 -13.6648 -13.5048 -13.4809  -3.0433  -3.0346
    -1.4112  -1.3963  -1.3199  -1.2592  -0.9456  -0.7680   2.4297   2.4421
     2.6338   2.6678   2.8970   3.0340   3.2581   3.4024   4.2449   4.2602

          k = 0.6871 0.5951 0.1629 (  8441 PWs)   bands (ev):

   -33.7593 -33.7588 -17.0676 -17.0092 -15.1419 -15.0759 -14.9102 -14.8094
   -14.7734 -14.7629 -13.7097 -13.6848 -13.4947 -13.4494  -3.0022  -2.8871
    -1.5009  -1.3903  -1.2620  -1.2390  -0.8182  -0.8093   2.2210   2.3233
     2.6309   2.6813   2.7651   2.8951   3.2936   3.3513   4.2914   4.3961

          k = 0.8589-0.4959-0.2171 (  8418 PWs)   bands (ev):

   -33.7599 -33.7584 -17.0782 -16.9972 -15.1778 -15.0138 -14.9524 -14.8130
   -14.7766 -14.7207 -13.7464 -13.6393 -13.5316 -13.4321  -3.0759  -2.9451
    -1.4864  -1.3394  -1.2884  -1.2534  -0.8896  -0.8174   2.3195   2.4411
     2.6651   2.6860   2.8268   3.0114   3.2200   3.4073   4.2216   4.3323

          k =-0.0000-0.0000 0.4886 (  8395 PWs)   bands (ev):

   -33.7608 -33.7579 -17.0435 -17.0311 -15.0419 -15.0419 -14.9714 -14.9714
   -14.7192 -14.7029 -13.6387 -13.6387 -13.5274 -13.5274  -3.1802  -3.1277
    -1.3741  -1.3741  -1.3247  -1.3247  -1.0434  -0.7471   2.5613   2.5613
     2.6162   2.6162   3.2284   3.2284   3.3970   3.3970   4.0698   4.1619

          k = 1.0307 0.5951 0.1629 (  8415 PWs)   bands (ev):

   -33.7597 -33.7589 -17.0403 -17.0354 -15.0994 -15.0468 -14.9568 -14.8983
   -14.7346 -14.7163 -13.6774 -13.6123 -13.5548 -13.4901  -3.1298  -3.0971
    -1.3918  -1.3431  -1.3358  -1.3163  -0.9227  -0.8403   2.5210   2.5520
     2.6137   2.6160   3.0852   3.1989   3.3134   3.3691   4.1519   4.1873

     highest occupied level (ev):     4.5151

!    total energy              =    -367.42699166 Ry
     Harris-Foulkes estimate   =    -367.42699166 Ry
     estimated scf accuracy    <          2.2E-09 Ry

     The total energy is the sum of the following terms:

     one-electron contribution =    -146.60722728 Ry
     hartree contribution      =     102.76950622 Ry
     xc contribution           =     -75.28103561 Ry
     ewald contribution        =    -248.30823498 Ry

     convergence has been achieved in   8 iterations

     Forces acting on atoms (cartesian axes, Ry/au):

     atom    1 type  1   force =     0.00000000    0.00000000    0.00000000
     atom    2 type  1   force =     0.00000000    0.00000000   -0.00000000
     atom    3 type  2   force =    -0.00000000   -0.00000000   -0.00000000
     atom    4 type  2   force =     0.00000000   -0.00000000   -0.00000000
     atom    5 type  3   force =     0.00891590   -0.01544280   -0.00000000
     atom    6 type  3   force =    -0.01783181   -0.00000000    0.00000000
     atom    7 type  3   force =     0.00891590    0.01544280    0.00000000
     atom    8 type  3   force =     0.01783181    0.00000000   -0.00000000
     atom    9 type  3   force =    -0.00891590   -0.01544280   -0.00000000
     atom   10 type  3   force =    -0.00891590    0.01544280    0.00000000

     Total force =     0.043679     Total SCF correction =     0.000114


     Computing stress (Cartesian axis) and pressure

          total   stress  (Ry/bohr**3)                   (kbar)     P=    2.55
  -0.00002322  -0.00000000   0.00000000         -3.42     -0.00      0.00
   0.00000000  -0.00002322  -0.00000000          0.00     -3.42     -0.00
  -0.00000000  -0.00000000   0.00009844         -0.00     -0.00     14.48


     number of scf cycles    =   2
     number of bfgs steps    =   1

     energy   old            =    -367.4149145737 Ry
     energy   new            =    -367.4269916551 Ry

     CASE: energy  _new < energy  _old

     new trust radius        =       0.0142502435 bohr
     new conv_thr            =       0.0000000018 Ry


ATOMIC_POSITIONS (crystal)
Ca       0.500000000   0.500000000   0.500000000
Ca       0.000000000   0.000000000  -0.000000000
C        0.250000000   0.250000000   0.250000000
C        0.750000000   0.750000000   0.750000000
O        0.501215409   0.998784591   0.250000000
O        0.998784591   0.250000000   0.501215409
O        0.250000000   0.501215409   0.998784591
O        0.001215409   0.750000000   0.498784591
O        0.750000000   0.498784591   0.001215409
O        0.498784591   0.001215409   0.750000000



     Writing output data file CCO_rand4.save/
     NEW-OLD atomic charge density approx. for the potential

     Check: negative core charge=   -0.000003

     total cpu time spent up to now is      341.8 secs

     Self-consistent Calculation

     iteration #  1     ecut=    70.00 Ry     beta= 0.70
     CG style diagonalization
     c_bands:  2 eigenvalues not converged
     c_bands:  1 eigenvalues not converged
     c_bands:  1 eigenvalues not converged
     c_bands:  1 eigenvalues not converged
     c_bands:  1 eigenvalues not converged
     ethr =  1.00E-06,  avg # of iterations =  5.9

     total cpu time spent up to now is      366.6 secs

     total energy              =    -367.42737320 Ry
     Harris-Foulkes estimate   =    -367.42791739 Ry
     estimated scf accuracy    <       0.00073672 Ry

     iteration #  2     ecut=    70.00 Ry     beta= 0.70
     CG style diagonalization
     ethr =  1.15E-06,  avg # of iterations =  4.0

     total cpu time spent up to now is      383.0 secs

     total energy              =    -367.42758903 Ry
     Harris-Foulkes estimate   =    -367.42777068 Ry
     estimated scf accuracy    <       0.00032398 Ry

     iteration #  3     ecut=    70.00 Ry     beta= 0.70
     CG style diagonalization
     ethr =  5.06E-07,  avg # of iterations =  3.6

     total cpu time spent up to now is      397.6 secs

     total energy              =    -367.42766769 Ry
     Harris-Foulkes estimate   =    -367.42766982 Ry
     estimated scf accuracy    <       0.00000506 Ry

     iteration #  4     ecut=    70.00 Ry     beta= 0.70
     CG style diagonalization
     ethr =  7.91E-09,  avg # of iterations =  4.4

     total cpu time spent up to now is      415.6 secs

     total energy              =    -367.42767205 Ry
     Harris-Foulkes estimate   =    -367.42767384 Ry
     estimated scf accuracy    <       0.00000462 Ry

     iteration #  5     ecut=    70.00 Ry     beta= 0.70
     CG style diagonalization
     ethr =  7.22E-09,  avg # of iterations =  3.5

     total cpu time spent up to now is      429.9 secs

     total energy              =    -367.42767249 Ry
     Harris-Foulkes estimate   =    -367.42767263 Ry
     estimated scf accuracy    <       0.00000027 Ry

     iteration #  6     ecut=    70.00 Ry     beta= 0.70
     CG style diagonalization
     ethr =  4.26E-10,  avg # of iterations =  4.0

     total cpu time spent up to now is      446.2 secs

     total energy              =    -367.42767256 Ry
     Harris-Foulkes estimate   =    -367.42767256 Ry
     estimated scf accuracy    <       0.00000002 Ry

     iteration #  7     ecut=    70.00 Ry     beta= 0.70
     CG style diagonalization
     ethr =  2.55E-11,  avg # of iterations =  4.0

     total cpu time spent up to now is      462.5 secs

     total energy              =    -367.42767257 Ry
     Harris-Foulkes estimate   =    -367.42767257 Ry
     estimated scf accuracy    <          6.4E-09 Ry

     iteration #  8     ecut=    70.00 Ry     beta= 0.70
     CG style diagonalization
     ethr =  1.00E-11,  avg # of iterations =  3.9

     total cpu time spent up to now is      478.4 secs

     End of self-consistent calculation

          k = 0.0000 0.0000 0.0000 (  8403 PWs)   bands (ev):

   -33.7421 -33.7286 -16.9662 -16.9166 -15.1261 -15.1261 -14.7873 -14.7873
   -14.7309 -14.6465 -13.8273 -13.8273 -13.3019 -13.3019  -3.2385  -2.9782
    -1.5928  -1.4506  -1.4506  -1.2252  -1.2252  -0.2149   2.4574   2.4574
     2.7109   2.7109   2.9667   2.9667   3.7250   3.7250   3.8905   4.3288

          k =-0.1718-0.0992 0.0543 (  8433 PWs)   bands (ev):

   -33.7413 -33.7292 -16.9813 -16.9012 -15.1244 -15.0689 -14.8506 -14.7841
   -14.7439 -14.7066 -13.7909 -13.7052 -13.3775 -13.3184  -3.1664  -2.9957
    -1.5320  -1.4257  -1.3935  -1.2470  -1.2203  -0.3017   2.4849   2.5229
     2.6664   2.7343   2.8186   2.8962   3.6171   3.6366   4.0356   4.3123

          k =-0.3436-0.1984 0.1086 (  8435 PWs)   bands (ev):

   -33.7393 -33.7309 -16.9958 -16.8850 -15.1158 -15.0014 -14.9852 -14.8323
   -14.7174 -14.6971 -13.7062 -13.5475 -13.5150 -13.3701  -3.0218  -3.0010
    -1.4925  -1.3678  -1.2498  -1.2380  -1.1760  -0.4771   2.4341   2.4555
     2.6062   2.6071   2.8103   2.8800   3.4305   3.4549   4.2525   4.2883

          k =-0.5153-0.2975 0.1629 (  8445 PWs)   bands (ev):

   -33.7365 -33.7335 -16.9697 -16.9144 -15.0576 -15.0188 -15.0046 -14.9325
   -14.6966 -14.6674 -13.6076 -13.5360 -13.5151 -13.4614  -2.9571  -2.9370
    -1.4901  -1.4118  -1.2173  -1.1958  -0.9044  -0.6612   2.2302   2.2994
     2.5415   2.5750   2.9177   2.9772   3.2894   3.3001   4.3112   4.3453

          k =-0.1718 0.0992 0.1086 (  8427 PWs)   bands (ev):

   -33.7412 -33.7294 -16.9830 -16.9003 -15.0950 -15.0947 -14.8314 -14.7891
   -14.7395 -14.7376 -13.7437 -13.7309 -13.3608 -13.3467  -3.1621  -3.0084
    -1.5018  -1.4141  -1.4136  -1.2511  -1.2098  -0.3193   2.4911   2.5160
     2.6620   2.6977   2.8710   2.9065   3.5598   3.6706   4.0364   4.3006

          k =-0.3436-0.0000 0.1629 (  8424 PWs)   bands (ev):

   -33.7397 -33.7306 -16.9979 -16.8847 -15.1013 -15.0677 -14.8818 -14.8252
   -14.7347 -14.7278 -13.6916 -13.6351 -13.4407 -13.3759  -3.0515  -3.0220
    -1.4612  -1.3774  -1.3371  -1.2012  -1.1887  -0.4542   2.4430   2.5271
     2.5932   2.6529   2.7730   2.9186   3.3838   3.5604   4.2091   4.2778

          k =-0.5153-0.0992 0.2171 (  8424 PWs)   bands (ev):

   -33.7373 -33.7327 -16.9811 -16.9042 -15.1043 -15.0476 -14.9292 -14.8853
   -14.7141 -14.6786 -13.6585 -13.6016 -13.4595 -13.4145  -2.9729  -2.9570
    -1.4635  -1.3952  -1.2826  -1.1841  -0.9604  -0.6032   2.2672   2.3796
     2.5430   2.5564   2.8336   2.9629   3.2623   3.4148   4.3056   4.3387

          k = 0.5153 0.4959-0.1086 (  8435 PWs)   bands (ev):

   -33.7354 -33.7346 -16.9625 -16.9241 -15.0906 -15.0289 -14.9834 -14.8903
   -14.7014 -14.6749 -13.6531 -13.5668 -13.4877 -13.4211  -2.9570  -2.8998
    -1.4976  -1.4039  -1.2348  -1.1742  -0.7930  -0.7296   2.1905   2.2628
     2.4966   2.5629   2.8652   2.9446   3.2963   3.3357   4.3267   4.3823

          k = 0.3436 0.3967-0.0543 (  8446 PWs)   bands (ev):

   -33.7381 -33.7320 -17.0052 -16.8744 -15.1348 -15.0426 -14.9682 -14.8214
   -14.7341 -14.6550 -13.7012 -13.5921 -13.4488 -13.4007  -3.0036  -2.9179
    -1.5205  -1.3246  -1.2546  -1.1926  -1.0516  -0.5670   2.2263   2.4443
     2.5144   2.5768   2.7660   2.9874   3.3150   3.4234   4.2780   4.3735

          k = 0.1718 0.2975 0.0000 (  8433 PWs)   bands (ev):

   -33.7402 -33.7301 -17.0028 -16.8770 -15.0926 -15.0827 -14.8742 -14.8256
   -14.7520 -14.7137 -13.7015 -13.6414 -13.4335 -13.3674  -3.0463  -3.0128
    -1.4947  -1.3607  -1.3319  -1.2408  -1.1980  -0.4193   2.4460   2.5551
     2.5757   2.6985   2.7186   2.8701   3.4547   3.5596   4.2106   4.2890

          k =-0.3436 0.1984 0.2171 (  8438 PWs)   bands (ev):

   -33.7391 -33.7311 -17.0196 -16.8619 -15.1234 -15.0858 -14.8373 -14.7851
   -14.7684 -14.7451 -13.6785 -13.6331 -13.4322 -13.3982  -3.0639  -2.9714
    -1.4667  -1.3523  -1.3402  -1.1646  -1.1148  -0.5310   2.3217   2.5166
     2.5389   2.7059   2.7518   3.0370   3.2129   3.5704   4.2279   4.2895

          k =-0.5153 0.0992 0.2714 (  8443 PWs)   bands (ev):

   -33.7377 -33.7324 -17.0192 -16.8642 -15.1622 -15.0749 -14.8751 -14.7985
   -14.7413 -14.6799 -13.7514 -13.5923 -13.4540 -13.3653  -3.0461  -2.8847
    -1.4832  -1.3695  -1.2984  -1.1408  -0.9562  -0.6204   2.1719   2.4074
     2.5310   2.6657   2.7683   2.9630   3.2018   3.4897   4.2314   4.4006

          k = 0.5153 0.6942-0.0543 (  8438 PWs)   bands (ev):

   -33.7357 -33.7342 -16.9707 -16.9206 -15.1258 -15.0229 -14.9272 -14.8494
   -14.7368 -14.6924 -13.7048 -13.5862 -13.4633 -13.3859  -2.9487  -2.8933
    -1.4613  -1.4163  -1.3000  -1.1378  -0.7710  -0.7007   2.1466   2.2409
     2.5350   2.5789   2.7890   2.8227   3.3082   3.4136   4.3369   4.4047

          k = 0.3436 0.5951 0.0000 (  8459 PWs)   bands (ev):

   -33.7362 -33.7337 -16.9833 -16.9033 -15.1228 -15.0495 -14.9762 -14.7813
   -14.7526 -14.6703 -13.7204 -13.5870 -13.4607 -13.3786  -2.9649  -2.8743
    -1.5268  -1.3103  -1.2968  -1.1649  -0.8583  -0.6504   2.1417   2.2886
     2.4866   2.5493   2.7777   2.8965   3.3596   3.3684   4.3225   4.4254

          k =-0.5153 0.2975 0.3257 (  8423 PWs)   bands (ev):

   -33.7375 -33.7326 -17.0479 -16.8289 -15.1981 -15.1682 -14.7742 -14.7578
   -14.7480 -14.6314 -13.8143 -13.7048 -13.3682 -13.3388  -3.1002  -2.7905
    -1.5458  -1.3446  -1.2408  -1.1085  -0.9155  -0.6809   2.0571   2.3573
     2.5696   2.7458   2.7792   2.8563   3.2317   3.4804   4.1532   4.4778

          k = 0.5153 0.8926 0.0000 (  8443 PWs)   bands (ev):

   -33.7368 -33.7332 -17.0288 -16.8552 -15.1666 -15.1429 -14.8039 -14.7821
   -14.7489 -14.6568 -13.8003 -13.6565 -13.3982 -13.3440  -3.0546  -2.7984
    -1.5130  -1.3894  -1.2621  -1.1075  -0.8376  -0.6849   2.0439   2.3026
     2.6039   2.6810   2.7626   2.7697   3.2922   3.4459   4.2076   4.4830

          k =-0.0000-0.0000 0.1629 (  8394 PWs)   bands (ev):

   -33.7414 -33.7293 -16.9646 -16.9198 -15.1142 -15.1142 -14.8125 -14.8125
   -14.7255 -14.6495 -13.7930 -13.7930 -13.3232 -13.3232  -3.2373  -3.0096
    -1.5082  -1.4383  -1.4383  -1.2355  -1.2355  -0.2717   2.4703   2.4703
     2.6993   2.6993   2.9976   2.9976   3.6803   3.6803   3.9076   4.2988

          k =-0.1718-0.0992 0.2171 (  8440 PWs)   bands (ev):

   -33.7403 -33.7302 -16.9735 -16.9119 -15.1285 -15.0304 -14.9250 -14.7721
   -14.7448 -14.6855 -13.7797 -13.6480 -13.4249 -13.3283  -3.1727  -3.0257
    -1.4602  -1.4168  -1.3280  -1.2499  -1.2386  -0.3801   2.4855   2.5376
     2.6517   2.7026   2.8400   2.9979   3.5265   3.5955   4.0452   4.2793

          k =-0.3436-0.1984 0.2714 (  8409 PWs)   bands (ev):

   -33.7381 -33.7321 -16.9685 -16.9181 -15.1090 -15.0324 -14.9601 -14.8249
   -14.7156 -14.6947 -13.6983 -13.5405 -13.5361 -13.3703  -3.0606  -2.9842
    -1.4314  -1.4002  -1.2710  -1.2537  -1.0547  -0.5453   2.4082   2.4970
     2.5749   2.6002   2.8004   2.9991   3.3188   3.4253   4.2255   4.2962

          k = 0.6871 0.3967-0.0543 (  8416 PWs)   bands (ev):

   -33.7354 -33.7346 -16.9642 -16.9227 -15.1067 -15.0197 -14.9653 -14.8990
   -14.7028 -14.6687 -13.6250 -13.5954 -13.4960 -13.4158  -3.0078  -2.8906
    -1.4982  -1.3871  -1.2502  -1.1818  -0.8158  -0.7263   2.2072   2.3129
     2.5130   2.6175   2.8625   3.0842   3.1763   3.3226   4.2779   4.3713

          k = 0.5153 0.2975 0.0000 (  8436 PWs)   bands (ev):

   -33.7373 -33.7327 -17.0104 -16.8688 -15.1245 -15.0923 -14.9242 -14.8532
   -14.7248 -14.6372 -13.7065 -13.5696 -13.4650 -13.4050  -3.0218  -2.8676
    -1.5451  -1.3151  -1.2478  -1.1708  -0.9717  -0.6315   2.1452   2.3728
     2.4925   2.6527   2.7927   3.0991   3.1924   3.3892   4.2472   4.4072

          k = 0.3436 0.1984 0.0543 (  8438 PWs)   bands (ev):

   -33.7397 -33.7306 -17.0138 -16.8647 -15.1133 -15.0671 -14.9092 -14.8050
   -14.7452 -14.7133 -13.7031 -13.5844 -13.4726 -13.3772  -3.0293  -2.9893
    -1.4941  -1.3587  -1.3017  -1.1966  -1.1815  -0.4744   2.3645   2.4832
     2.6451   2.6642   2.6741   2.9613   3.3556   3.5450   4.2636   4.2743

          k =-0.1718 0.0992 0.2714 (  8416 PWs)   bands (ev):

   -33.7398 -33.7307 -16.9780 -16.9091 -15.1048 -15.0426 -14.9029 -14.8045
   -14.7256 -14.7241 -13.7166 -13.6574 -13.4104 -13.3764  -3.1592  -3.0569
    -1.4283  -1.3842  -1.3541  -1.2321  -1.2218  -0.4307   2.5010   2.5199
     2.6473   2.6559   2.9200   3.0317   3.4329   3.6195   4.0548   4.2492

          k =-0.3436-0.0000 0.3257 (  8418 PWs)   bands (ev):

   -33.7383 -33.7320 -16.9834 -16.9053 -15.1021 -15.0554 -14.8976 -14.8041
   -14.7586 -14.7152 -13.6666 -13.6212 -13.4549 -13.3995  -3.0624  -3.0429
    -1.3974  -1.3792  -1.3525  -1.2088  -1.0684  -0.5563   2.4339   2.4764
     2.6035   2.6735   2.8051   3.0408   3.2480   3.5107   4.2070   4.2516

          k = 0.6871 0.5951 0.0000 (  8427 PWs)   bands (ev):

   -33.7362 -33.7339 -16.9498 -16.9417 -15.1059 -15.0347 -14.9275 -14.8522
   -14.7183 -14.7122 -13.6682 -13.5721 -13.4981 -13.3975  -2.9984  -2.9422
    -1.4569  -1.3588  -1.3298  -1.1784  -0.8528  -0.6760   2.2736   2.3167
     2.5582   2.6252   2.8073   2.9787   3.2261   3.3805   4.2971   4.3339

          k = 0.5153 0.4959 0.0543 (  8440 PWs)   bands (ev):

   -33.7361 -33.7339 -16.9968 -16.8889 -15.1343 -15.0693 -14.9456 -14.8013
   -14.7326 -14.6626 -13.7311 -13.5675 -13.4819 -13.3727  -3.0077  -2.8477
    -1.5389  -1.3127  -1.2739  -1.1680  -0.8378  -0.6883   2.1167   2.3060
     2.4782   2.6342   2.8000   2.9527   3.2789   3.3669   4.2714   4.4329

          k = 0.3436 0.3967 0.1086 (  8446 PWs)   bands (ev):

   -33.7382 -33.7319 -17.0188 -16.8600 -15.1591 -15.0599 -14.9379 -14.7770
   -14.7542 -14.6554 -13.7465 -13.5678 -13.4733 -13.3685  -3.0298  -2.8921
    -1.5200  -1.3305  -1.2540  -1.1837  -1.0385  -0.5752   2.1895   2.4735
     2.4821   2.6196   2.7381   3.0152   3.2553   3.4713   4.2499   4.3956

          k =-0.3436 0.1984 0.3800 (  8426 PWs)   bands (ev):

   -33.7378 -33.7325 -17.0112 -16.8763 -15.1558 -15.0399 -14.8496 -14.8024
   -14.7648 -14.7171 -13.6768 -13.6381 -13.4346 -13.4012  -3.0927  -2.9674
    -1.4707  -1.3381  -1.3021  -1.1728  -1.0000  -0.6338   2.3063   2.4534
     2.6034   2.7147   2.8290   3.0467   3.1203   3.5187   4.1981   4.2972

          k = 0.6871 0.7934 0.0543 (  8443 PWs)   bands (ev):

   -33.7366 -33.7334 -17.0051 -16.8849 -15.1460 -15.0742 -14.8378 -14.8009
   -14.7528 -14.7186 -13.7107 -13.6342 -13.4219 -13.3911  -3.0474  -2.8941
    -1.4758  -1.3786  -1.2793  -1.1551  -0.8623  -0.6851   2.1805   2.3480
     2.6139   2.6990   2.7877   2.8523   3.2253   3.4422   4.2338   4.3881

          k = 0.5153 0.6942 0.1086 (  8457 PWs)   bands (ev):

   -33.7352 -33.7347 -16.9559 -16.9380 -15.0999 -15.0554 -14.8871 -14.8454
   -14.7498 -14.7187 -13.6708 -13.6246 -13.4352 -13.4053  -2.9315  -2.9120
    -1.4670  -1.4236  -1.2618  -1.1656  -0.7367  -0.7214   2.1640   2.1979
     2.5728   2.6051   2.7734   2.7862   3.3304   3.3845   4.3574   4.3823

          k = 0.3436 0.5951 0.1629 (  8441 PWs)   bands (ev):

   -33.7361 -33.7339 -16.9801 -16.9080 -15.1284 -15.0358 -14.9576 -14.8249
   -14.7276 -14.6787 -13.7189 -13.5800 -13.4671 -13.3790  -2.9606  -2.8795
    -1.4948  -1.4011  -1.2211  -1.1922  -0.8250  -0.6669   2.1419   2.2756
     2.5052   2.5512   2.7836   2.8717   3.3326   3.3968   4.3255   4.4199

          k = 0.6871-0.3967-0.2714 (  8438 PWs)   bands (ev):

   -33.7368 -33.7332 -17.0375 -16.8437 -15.2009 -15.1411 -14.7822 -14.7713
   -14.7481 -14.6387 -13.7794 -13.7214 -13.3590 -13.3573  -3.0979  -2.7979
    -1.5495  -1.3372  -1.2160  -1.1438  -0.8638  -0.7131   2.0718   2.3402
     2.6142   2.7421   2.7433   2.8653   3.2388   3.4366   4.1638   4.4664

          k = 0.5153-0.4959-0.2171 (  8442 PWs)   bands (ev):

   -33.7366 -33.7334 -17.0204 -16.8641 -15.1588 -15.1237 -14.8624 -14.7592
   -14.7494 -14.6615 -13.7831 -13.6303 -13.4227 -13.3487  -3.0423  -2.8114
    -1.5308  -1.3669  -1.2241  -1.1581  -0.8420  -0.6803   2.0632   2.3079
     2.5348   2.6778   2.7683   2.8533   3.2886   3.4169   4.2259   4.4696

          k = 0.5153-0.2975-0.1629 (  8451 PWs)   bands (ev):

   -33.7376 -33.7324 -17.0382 -16.8378 -15.1631 -15.1605 -14.8345 -14.7825
   -14.7469 -14.6242 -13.7858 -13.6468 -13.4055 -13.3551  -3.0728  -2.8151
    -1.5535  -1.3259  -1.2102  -1.1667  -0.9617  -0.6441   2.0830   2.3971
     2.4830   2.7136   2.7606   3.0312   3.1886   3.4568   4.1868   4.4555

          k =-0.0000-0.0000 0.3257 (  8410 PWs)   bands (ev):

   -33.7395 -33.7311 -16.9595 -16.9285 -15.0789 -15.0789 -14.8753 -14.8753
   -14.7112 -14.6587 -13.7045 -13.7045 -13.3845 -13.3845  -3.2288  -3.0804
    -1.4048  -1.4048  -1.2864  -1.2647  -1.2647  -0.4368   2.5065   2.5065
     2.6659   2.6659   3.0877   3.0877   3.5593   3.5593   3.9566   4.2217

          k =-0.1718-0.0992 0.3800 (  8410 PWs)   bands (ev):

   -33.7383 -33.7322 -16.9604 -16.9294 -15.1078 -14.9925 -14.9832 -14.8157
   -14.7256 -14.6797 -13.7142 -13.5740 -13.4952 -13.3740  -3.1723  -3.0763
    -1.3935  -1.3741  -1.2907  -1.2855  -1.1158  -0.5488   2.4976   2.5543
     2.6299   2.6417   2.9430   3.1499   3.3666   3.5001   4.0699   4.2178

          k = 0.8589 0.4959 0.0543 (  8405 PWs)   bands (ev):

   -33.7364 -33.7339 -16.9556 -16.9361 -15.1365 -15.0008 -14.9631 -14.7874
   -14.7510 -14.6845 -13.7004 -13.5542 -13.5254 -13.3731  -3.0918  -2.9759
    -1.4422  -1.3337  -1.2924  -1.2535  -0.9113  -0.6737   2.3527   2.4629
     2.6395   2.6623   2.7476   3.1552   3.1838   3.3644   4.1997   4.2970

          k = 0.6871 0.3967 0.1086 (  8420 PWs)   bands (ev):

   -33.7358 -33.7342 -17.0080 -16.8777 -15.1690 -15.0886 -14.8673 -14.8157
   -14.7323 -14.6481 -13.6970 -13.6897 -13.4138 -13.3740  -3.0652  -2.8340
    -1.5427  -1.3066  -1.2524  -1.1807  -0.8015  -0.7502   2.1249   2.3463
     2.5264   2.6965   2.7878   3.0135   3.2101   3.3544   4.2120   4.4264

          k =-0.1718 0.0992 0.4343 (  8419 PWs)   bands (ev):

   -33.7376 -33.7330 -16.9664 -16.9249 -15.0955 -14.9782 -14.9756 -14.8579
   -14.7056 -14.7048 -13.6660 -13.5581 -13.4996 -13.4191  -3.1489  -3.1130
    -1.3974  -1.3458  -1.3214  -1.2551  -1.0477  -0.6244   2.5205   2.5277
     2.6202   2.6302   3.0280   3.1833   3.2665   3.4967   4.0942   4.1799

          k = 0.8589 0.6942 0.1086 (  8430 PWs)   bands (ev):

   -33.7363 -33.7340 -16.9607 -16.9329 -15.0887 -15.0667 -14.8791 -14.8332
   -14.7428 -14.7180 -13.6372 -13.6178 -13.4553 -13.4312  -3.0684  -3.0617
    -1.3924  -1.3777  -1.2967  -1.2390  -0.8982  -0.7136   2.4269   2.4387
     2.6337   2.6677   2.8937   3.0304   3.2538   3.3980   4.2106   4.2257

          k = 0.6871 0.5951 0.1629 (  8441 PWs)   bands (ev):

   -33.7353 -33.7348 -16.9778 -16.9158 -15.1226 -15.0564 -14.8869 -14.7838
   -14.7508 -14.7381 -13.6636 -13.6389 -13.4444 -13.3991  -3.0309  -2.9148
    -1.4810  -1.3674  -1.2385  -1.2147  -0.7674  -0.7604   2.2179   2.3188
     2.6311   2.6826   2.7606   2.8901   3.2875   3.3453   4.2586   4.3631

          k = 0.8589-0.4959-0.2171 (  8418 PWs)   bands (ev):

   -33.7359 -33.7344 -16.9888 -16.9033 -15.1594 -14.9931 -14.9301 -14.7916
   -14.7536 -14.6920 -13.7001 -13.5927 -13.4815 -13.3819  -3.1037  -2.9706
    -1.4686  -1.3187  -1.2650  -1.2319  -0.8393  -0.7662   2.3167   2.4366
     2.6654   2.6867   2.8230   3.0074   3.2145   3.4032   4.1876   4.2981

          k =-0.0000-0.0000 0.4886 (  8395 PWs)   bands (ev):

   -33.7368 -33.7338 -16.9511 -16.9400 -15.0229 -15.0229 -14.9515 -14.9515
   -14.6923 -14.6736 -13.5910 -13.5910 -13.4781 -13.4781  -3.2029  -3.1521
    -1.3580  -1.3580  -1.3081  -1.3081  -0.9921  -0.6902   2.5587   2.5587
     2.6158   2.6158   3.2272   3.2272   3.3953   3.3953   4.0318   4.1248

          k = 1.0307 0.5951 0.1629 (  8415 PWs)   bands (ev):

   -33.7357 -33.7349 -16.9491 -16.9433 -15.0803 -15.0270 -14.9372 -14.8778
   -14.7079 -14.6879 -13.6299 -13.5637 -13.5066 -13.4407  -3.1541  -3.1216
    -1.3753  -1.3249  -1.3175  -1.2982  -0.8711  -0.7863   2.5184   2.5504
     2.6125   2.6148   3.0834   3.1960   3.3110   3.3665   4.1157   4.1510

     highest occupied level (ev):     4.4830

!    total energy              =    -367.42767257 Ry
     Harris-Foulkes estimate   =    -367.42767257 Ry
     estimated scf accuracy    <          4.2E-10 Ry

     The total energy is the sum of the following terms:

     one-electron contribution =    -145.51456569 Ry
     hartree contribution      =     102.23178088 Ry
     xc contribution           =     -75.22627818 Ry
     ewald contribution        =    -248.91860958 Ry

     convergence has been achieved in   8 iterations

     Forces acting on atoms (cartesian axes, Ry/au):

     atom    1 type  1   force =    -0.00000000    0.00000000   -0.00000000
     atom    2 type  1   force =    -0.00000000    0.00000000   -0.00000000
     atom    3 type  2   force =     0.00000000   -0.00000000   -0.00000000
     atom    4 type  2   force =     0.00000000   -0.00000000   -0.00000000
     atom    5 type  3   force =    -0.00088079    0.00152558    0.00000000
     atom    6 type  3   force =     0.00176159    0.00000000   -0.00000000
     atom    7 type  3   force =    -0.00088079   -0.00152558   -0.00000000
     atom    8 type  3   force =    -0.00176159   -0.00000000    0.00000000
     atom    9 type  3   force =     0.00088079    0.00152558    0.00000000
     atom   10 type  3   force =     0.00088079   -0.00152558   -0.00000000

     Total force =     0.004315     Total SCF correction =     0.000021


     Computing stress (Cartesian axis) and pressure

          total   stress  (Ry/bohr**3)                   (kbar)     P=  -10.89
  -0.00016755  -0.00000000   0.00000000        -24.65     -0.00      0.00
   0.00000000  -0.00016755  -0.00000000          0.00    -24.65     -0.00
  -0.00000000  -0.00000000   0.00011300         -0.00     -0.00     16.62


     number of scf cycles    =   3
     number of bfgs steps    =   2

     energy   old            =    -367.4269916551 Ry
     energy   new            =    -367.4276725678 Ry

     CASE: energy  _new < energy  _old

     new trust radius        =       0.0012812004 bohr
     new conv_thr            =       0.0000000002 Ry


ATOMIC_POSITIONS (crystal)
Ca       0.500000000   0.500000000   0.500000000
Ca      -0.000000000   0.000000000   0.000000000
C        0.250000000   0.250000000   0.250000000
C        0.750000000   0.750000000   0.750000000
O        0.501084313   0.998915687   0.250000000
O        0.998915687   0.250000000   0.501084313
O        0.250000000   0.501084313   0.998915687
O        0.001084313   0.750000000   0.498915687
O        0.750000000   0.498915687   0.001084313
O        0.498915687   0.001084313   0.750000000



     Writing output data file CCO_rand4.save/
     NEW-OLD atomic charge density approx. for the potential

     Check: negative core charge=   -0.000003

     total cpu time spent up to now is      480.3 secs

     Self-consistent Calculation

     iteration #  1     ecut=    70.00 Ry     beta= 0.70
     CG style diagonalization
     ethr =  1.00E-06,  avg # of iterations =  2.8

     Threshold (ethr) on eigenvalues was too large:
     Diagonalizing with lowered threshold

     CG style diagonalization
     c_bands:  1 eigenvalues not converged
     c_bands:  1 eigenvalues not converged
     c_bands:  1 eigenvalues not converged
     c_bands:  1 eigenvalues not converged
     ethr =  7.49E-09,  avg # of iterations =  4.5

     total cpu time spent up to now is      511.3 secs

     total energy              =    -367.42767719 Ry
     Harris-Foulkes estimate   =    -367.42768152 Ry
     estimated scf accuracy    <       0.00000588 Ry

     iteration #  2     ecut=    70.00 Ry     beta= 0.70
     CG style diagonalization
     ethr =  9.19E-09,  avg # of iterations =  4.0

     total cpu time spent up to now is      527.9 secs

     total energy              =    -367.42767888 Ry
     Harris-Foulkes estimate   =    -367.42768037 Ry
     estimated scf accuracy    <       0.00000268 Ry

     iteration #  3     ecut=    70.00 Ry     beta= 0.70
     CG style diagonalization
     ethr =  4.18E-09,  avg # of iterations =  3.6

     total cpu time spent up to now is      542.5 secs

     total energy              =    -367.42767952 Ry
     Harris-Foulkes estimate   =    -367.42767954 Ry
     estimated scf accuracy    <       0.00000005 Ry

     iteration #  4     ecut=    70.00 Ry     beta= 0.70
     CG style diagonalization
     ethr =  8.14E-11,  avg # of iterations =  4.3

     total cpu time spent up to now is      560.2 secs

     total energy              =    -367.42767956 Ry
     Harris-Foulkes estimate   =    -367.42767957 Ry
     estimated scf accuracy    <       0.00000004 Ry

     iteration #  5     ecut=    70.00 Ry     beta= 0.70
     CG style diagonalization
     ethr =  5.66E-11,  avg # of iterations =  3.5

     total cpu time spent up to now is      574.6 secs

     total energy              =    -367.42767956 Ry
     Harris-Foulkes estimate   =    -367.42767957 Ry
     estimated scf accuracy    <          1.8E-09 Ry

     iteration #  6     ecut=    70.00 Ry     beta= 0.70
     CG style diagonalization
     ethr =  2.84E-12,  avg # of iterations =  4.0

     total cpu time spent up to now is      591.4 secs

     End of self-consistent calculation

          k = 0.0000 0.0000 0.0000 (  8403 PWs)   bands (ev):

   -33.7443 -33.7308 -16.9747 -16.9245 -15.1277 -15.1277 -14.7892 -14.7892
   -14.7329 -14.6495 -13.8313 -13.8313 -13.3065 -13.3065  -3.2366  -2.9753
    -1.5971  -1.4519  -1.4519  -1.2268  -1.2268  -0.2211   2.4580   2.4580
     2.7108   2.7108   2.9666   2.9666   3.7252   3.7252   3.8941   4.3319

          k =-0.1718-0.0992 0.0543 (  8433 PWs)   bands (ev):

   -33.7435 -33.7314 -16.9896 -16.9092 -15.1260 -15.0706 -14.8527 -14.7861
   -14.7459 -14.7093 -13.7949 -13.7093 -13.3820 -13.3230  -3.1645  -2.9928
    -1.5361  -1.4272  -1.3951  -1.2486  -1.2219  -0.3077   2.4854   2.5232
     2.6664   2.7343   2.8185   2.8963   3.6176   3.6369   4.0386   4.3154

          k =-0.3436-0.1984 0.1086 (  8435 PWs)   bands (ev):

   -33.7415 -33.7331 -17.0039 -16.8933 -15.1175 -15.0032 -14.9872 -14.8343
   -14.7199 -14.6995 -13.7103 -13.5518 -13.5194 -13.3745  -3.0196  -2.9981
    -1.4953  -1.3694  -1.2515  -1.2397  -1.1794  -0.4825   2.4342   2.4556
[...]

          k =-0.3436-0.0000 0.1629 (  8424 PWs)   bands (ev):

   -33.7419 -33.7328 -17.0060 -16.8929 -15.1030 -15.0694 -14.8838 -14.8273
   -14.7369 -14.7301 -13.6957 -13.6393 -13.4452 -13.3804  -3.0494  -3.0191
    -1.4640  -1.3794  -1.3387  -1.2031  -1.1913  -0.4597   2.4432   2.5274
     2.5932   2.6530   2.7732   2.9189   3.3842   3.5608   4.2121   4.2809

          k =-0.5153-0.0992 0.2171 (  8424 PWs)   bands (ev):

   -33.7395 -33.7349 -16.9892 -16.9125 -15.1060 -15.0494 -14.9311 -14.8872
   -14.7166 -14.6811 -13.6626 -13.6059 -13.4638 -13.4190  -2.9701  -2.9546
    -1.4657  -1.3971  -1.2847  -1.1859  -0.9643  -0.6082   2.2674   2.3797
     2.5430   2.5565   2.8341   2.9634   3.2628   3.4154   4.3086   4.3416

          k = 0.5153 0.4959-0.1086 (  8435 PWs)   bands (ev):

   -33.7376 -33.7368 -16.9706 -16.9323 -15.0923 -15.0307 -14.9852 -14.8922
   -14.7038 -14.6776 -13.6572 -13.5711 -13.4920 -13.4255  -2.9543  -2.8972
    -1.4996  -1.4060  -1.2368  -1.1761  -0.7976  -0.7341   2.1907   2.2629
     2.4968   2.5629   2.8657   2.9451   3.2968   3.3362   4.3297   4.3853

          k = 0.3436 0.3967-0.0543 (  8446 PWs)   bands (ev):

   -33.7403 -33.7342 -17.0133 -16.8828 -15.1364 -15.0443 -14.9700 -14.8235
   -14.7363 -14.6576 -13.7053 -13.5963 -13.4532 -13.4052  -3.0007  -2.9156
    -1.5228  -1.3265  -1.2564  -1.1944  -1.0556  -0.5721   2.2265   2.4443
     2.5147   2.5767   2.7666   2.9877   3.3154   3.4240   4.2810   4.3764

          k = 0.1718 0.2975 0.0000 (  8433 PWs)   bands (ev):

   -33.7424 -33.7323 -17.0110 -16.8853 -15.0942 -15.0844 -14.8761 -14.8280
   -14.7540 -14.7161 -13.7056 -13.6456 -13.4380 -13.3719  -3.0442  -3.0098
    -1.4977  -1.3628  -1.3336  -1.2433  -1.1997  -0.4249   2.4461   2.5552
     2.5759   2.6989   2.7187   2.8704   3.4552   3.5600   4.2136   4.2921

          k =-0.3436 0.1984 0.2171 (  8438 PWs)   bands (ev):

   -33.7413 -33.7334 -17.0276 -16.8703 -15.1251 -15.0875 -14.8394 -14.7876
   -14.7704 -14.7471 -13.6826 -13.6373 -13.4367 -13.4027  -3.0611  -2.9693
    -1.4683  -1.3540  -1.3434  -1.1662  -1.1177  -0.5363   2.3219   2.5171
     2.5390   2.7058   2.7521   3.0373   3.2133   3.5708   4.2309   4.2926

          k =-0.5153 0.0992 0.2714 (  8443 PWs)   bands (ev):

   -33.7399 -33.7346 -17.0270 -16.8727 -15.1638 -15.0768 -14.8771 -14.8004
   -14.7434 -14.6825 -13.7554 -13.5965 -13.4584 -13.3698  -3.0433  -2.8824
    -1.4848  -1.3716  -1.3012  -1.1425  -0.9599  -0.6255   2.1722   2.4079
     2.5311   2.6656   2.7687   2.9634   3.2023   3.4902   4.2344   4.4035

          k = 0.5153 0.6942-0.0543 (  8438 PWs)   bands (ev):

   -33.7379 -33.7364 -16.9788 -16.9289 -15.1274 -15.0248 -14.9292 -14.8515
   -14.7390 -14.6948 -13.7089 -13.5904 -13.4677 -13.3904  -2.9459  -2.8908
    -1.4635  -1.4181  -1.3025  -1.1396  -0.7752  -0.7055   2.1469   2.2411
     2.5350   2.5790   2.7895   2.8232   3.3088   3.4141   4.3398   4.4075

          k = 0.3436 0.5951 0.0000 (  8459 PWs)   bands (ev):

   -33.7384 -33.7359 -16.9913 -16.9117 -15.1246 -15.0512 -14.9780 -14.7836
   -14.7546 -14.6729 -13.7245 -13.5912 -13.4650 -13.3831  -2.9621  -2.8718
    -1.5289  -1.3127  -1.2985  -1.1667  -0.8628  -0.6551   2.1418   2.2888
     2.4867   2.5494   2.7783   2.8969   3.3601   3.3690   4.3254   4.4283

          k =-0.5153 0.2975 0.3257 (  8423 PWs)   bands (ev):

   -33.7397 -33.7348 -17.0557 -16.8377 -15.1997 -15.1698 -14.7761 -14.7598
   -14.7500 -14.6343 -13.8182 -13.7089 -13.3728 -13.3434  -3.0973  -2.7882
    -1.5473  -1.3468  -1.2439  -1.1101  -0.9192  -0.6858   2.0574   2.3580
     2.5697   2.7456   2.7795   2.8567   3.2322   3.4809   4.1563   4.4807

          k = 0.5153 0.8926 0.0000 (  8443 PWs)   bands (ev):

   -33.7390 -33.7354 -17.0366 -16.8638 -15.1682 -15.1447 -14.8058 -14.7842
   -14.7509 -14.6596 -13.8042 -13.6606 -13.4027 -13.3486  -3.0518  -2.7960
    -1.5145  -1.3916  -1.2651  -1.1092  -0.8417  -0.6897   2.0442   2.3032
     2.6040   2.6810   2.7631   2.7702   3.2927   3.4464   4.2106   4.4859

          k =-0.0000-0.0000 0.1629 (  8394 PWs)   bands (ev):

   -33.7436 -33.7315 -16.9730 -16.9277 -15.1158 -15.1158 -14.8145 -14.8145
   -14.7276 -14.6526 -13.7970 -13.7970 -13.3278 -13.3278  -3.2353  -3.0069
    -1.5125  -1.4397  -1.4397  -1.2371  -1.2371  -0.2777   2.4709   2.4709
     2.6992   2.6992   2.9975   2.9975   3.6805   3.6805   3.9112   4.3020

          k =-0.1718-0.0992 0.2171 (  8440 PWs)   bands (ev):

   -33.7425 -33.7324 -16.9818 -16.9199 -15.1302 -15.0321 -14.9269 -14.7741
   -14.7469 -14.6882 -13.7837 -13.6521 -13.4294 -13.3329  -3.1707  -3.0230
    -1.4634  -1.4182  -1.3302  -1.2515  -1.2405  -0.3859   2.4860   2.5379
     2.6517   2.7026   2.8400   2.9981   3.5268   3.5960   4.0484   4.2825

          k =-0.3436-0.1984 0.2714 (  8409 PWs)   bands (ev):

   -33.7403 -33.7343 -16.9768 -16.9263 -15.1107 -15.0342 -14.9618 -14.8269
   -14.7179 -14.6973 -13.7025 -13.5449 -13.5403 -13.3747  -3.0584  -2.9815
    -1.4341  -1.4018  -1.2727  -1.2555  -1.0583  -0.5506   2.4084   2.4971
     2.5749   2.6003   2.8008   2.9995   3.3193   3.4258   4.2284   4.2993

          k = 0.6871 0.3967-0.0543 (  8416 PWs)   bands (ev):

   -33.7376 -33.7368 -16.9723 -16.9310 -15.1084 -15.0215 -14.9671 -14.9009
   -14.7052 -14.6715 -13.6292 -13.5996 -13.5003 -13.4203  -3.0052  -2.8879
    -1.5001  -1.3893  -1.2522  -1.1837  -0.8200  -0.7311   2.2074   2.3131
     2.5131   2.6174   2.8629   3.0847   3.1767   3.3233   4.2808   4.3743

          k = 0.5153 0.2975 0.0000 (  8436 PWs)   bands (ev):

   -33.7395 -33.7349 -17.0184 -16.8773 -15.1261 -15.0940 -14.9260 -14.8551
   -14.7271 -14.6400 -13.7106 -13.5738 -13.4693 -13.4095  -3.0190  -2.8652
    -1.5471  -1.3172  -1.2496  -1.1728  -0.9759  -0.6363   2.1454   2.3729
     2.4928   2.6526   2.7933   3.0994   3.1928   3.3898   4.2502   4.4101

          k = 0.3436 0.1984 0.0543 (  8438 PWs)   bands (ev):

   -33.7419 -33.7328 -17.0219 -16.8730 -15.1150 -15.0688 -14.9112 -14.8071
   -14.7474 -14.7156 -13.7072 -13.5886 -13.4771 -13.3817  -3.0264  -2.9871
    -1.4965  -1.3604  -1.3044  -1.1983  -1.1840  -0.4798   2.3647   2.4832
     2.6455   2.6640   2.6745   2.9616   3.3560   3.5455   4.2666   4.2773

          k =-0.1718 0.0992 0.2714 (  8416 PWs)   bands (ev):

   -33.7420 -33.7329 -16.9863 -16.9172 -15.1064 -15.0443 -14.9049 -14.8064
   -14.7278 -14.7268 -13.7207 -13.6615 -13.4149 -13.3809  -3.1572  -3.0542
    -1.4304  -1.3857  -1.3568  -1.2346  -1.2234  -0.4363   2.5015   2.5202
     2.6472   2.6560   2.9202   3.0318   3.4332   3.6198   4.0581   4.2524

          k =-0.3436-0.0000 0.3257 (  8418 PWs)   bands (ev):

   -33.7405 -33.7342 -16.9916 -16.9135 -15.1038 -15.0572 -14.8995 -14.8065
   -14.7606 -14.7176 -13.6708 -13.6254 -13.4593 -13.4040  -3.0602  -3.0402
    -1.3989  -1.3818  -1.3543  -1.2105  -1.0719  -0.5615   2.4341   2.4767
     2.6035   2.6735   2.8054   3.0412   3.2484   3.5111   4.2100   4.2547

          k = 0.6871 0.5951 0.0000 (  8427 PWs)   bands (ev):

   -33.7384 -33.7361 -16.9580 -16.9498 -15.1076 -15.0365 -14.9295 -14.8543
   -14.7207 -14.7146 -13.6723 -13.5763 -13.5025 -13.4020  -2.9959  -2.9395
    -1.4588  -1.3607  -1.3322  -1.1802  -0.8569  -0.6809   2.2739   2.3170
     2.5582   2.6253   2.8077   2.9792   3.2266   3.3811   4.3000   4.3369

          k = 0.5153 0.4959 0.0543 (  8440 PWs)   bands (ev):

   -33.7383 -33.7361 -17.0047 -16.8973 -15.1360 -15.0710 -14.9475 -14.8033
   -14.7347 -14.6654 -13.7351 -13.5717 -13.4863 -13.3773  -3.0049  -2.8452
    -1.5408  -1.3150  -1.2757  -1.1700  -0.8423  -0.6929   2.1169   2.3064
     2.4784   2.6341   2.8004   2.9531   3.2793   3.3675   4.2743   4.4358

          k = 0.3436 0.3967 0.1086 (  8446 PWs)   bands (ev):

   -33.7404 -33.7341 -17.0267 -16.8684 -15.1607 -15.0617 -14.9398 -14.7792
   -14.7562 -14.6580 -13.7506 -13.5721 -13.4777 -13.3730  -3.0269  -2.8898
    -1.5220  -1.3324  -1.2563  -1.1854  -1.0422  -0.5803   2.1897   2.4736
     2.4824   2.6195   2.7385   3.0155   3.2557   3.4719   4.2530   4.3985

          k =-0.3436 0.1984 0.3800 (  8426 PWs)   bands (ev):

   -33.7400 -33.7347 -17.0191 -16.8847 -15.1575 -15.0418 -14.8519 -14.8044
   -14.7669 -14.7196 -13.6810 -13.6423 -13.4391 -13.4057  -3.0900  -2.9653
    -1.4721  -1.3399  -1.3047  -1.1745  -1.0038  -0.6389   2.3066   2.4539
     2.6034   2.7146   2.8293   3.0470   3.1207   3.5190   4.2012   4.3002

          k = 0.6871 0.7934 0.0543 (  8443 PWs)   bands (ev):

   -33.7388 -33.7356 -17.0130 -16.8933 -15.1476 -15.0760 -14.8399 -14.8030
   -14.7548 -14.7210 -13.7148 -13.6383 -13.4264 -13.3956  -3.0447  -2.8917
    -1.4774  -1.3806  -1.2820  -1.1569  -0.8664  -0.6899   2.1808   2.3485
     2.6140   2.6988   2.7882   2.8527   3.2259   3.4426   4.2368   4.3911

          k = 0.5153 0.6942 0.1086 (  8457 PWs)   bands (ev):

   -33.7374 -33.7369 -16.9640 -16.9462 -15.1015 -15.0573 -14.8893 -14.8478
   -14.7518 -14.7209 -13.6748 -13.6287 -13.4397 -13.4098  -2.9288  -2.9093
    -1.4691  -1.4255  -1.2642  -1.1676  -0.7411  -0.7260   2.1643   2.1982
     2.5729   2.6051   2.7739   2.7868   3.3310   3.3851   4.3603   4.3851

          k = 0.3436 0.5951 0.1629 (  8441 PWs)   bands (ev):

   -33.7383 -33.7361 -16.9882 -16.9163 -15.1301 -15.0376 -14.9596 -14.8269
   -14.7298 -14.6813 -13.7229 -13.5842 -13.4715 -13.3835  -2.9578  -2.8769
    -1.4968  -1.4032  -1.2232  -1.1942  -0.8293  -0.6717   2.1421   2.2759
     2.5053   2.5513   2.7841   2.8722   3.3330   3.3974   4.3284   4.4228

          k = 0.6871-0.3967-0.2714 (  8438 PWs)   bands (ev):

   -33.7390 -33.7354 -17.0452 -16.8524 -15.2025 -15.1427 -14.7842 -14.7732
   -14.7501 -14.6417 -13.7834 -13.7254 -13.3636 -13.3619  -3.0951  -2.7956
    -1.5510  -1.3394  -1.2188  -1.1456  -0.8679  -0.7178   2.0721   2.3409
     2.6143   2.7424   2.7430   2.8657   3.2394   3.4370   4.1669   4.4694

          k = 0.5153-0.4959-0.2171 (  8442 PWs)   bands (ev):

   -33.7388 -33.7356 -17.0282 -16.8727 -15.1605 -15.1255 -14.8644 -14.7612
   -14.7514 -14.6643 -13.7870 -13.6344 -13.4271 -13.3533  -3.0395  -2.8089
    -1.5325  -1.3692  -1.2268  -1.1599  -0.8462  -0.6850   2.0635   2.3085
     2.5349   2.6776   2.7687   2.8537   3.2891   3.4174   4.2289   4.4724

          k = 0.5153-0.2975-0.1629 (  8451 PWs)   bands (ev):

   -33.7398 -33.7346 -17.0460 -16.8465 -15.1647 -15.1622 -14.8364 -14.7845
   -14.7490 -14.6271 -13.7898 -13.6509 -13.4100 -13.3596  -3.0699  -2.8127
    -1.5552  -1.3281  -1.2130  -1.1685  -0.9655  -0.6490   2.0833   2.3975
     2.4832   2.7133   2.7610   3.0316   3.1889   3.4573   4.1898   4.4584

          k =-0.0000-0.0000 0.3257 (  8410 PWs)   bands (ev):

   -33.7417 -33.7333 -16.9679 -16.9365 -15.0806 -15.0806 -14.8772 -14.8772
   -14.7135 -14.6616 -13.7086 -13.7086 -13.3890 -13.3890  -3.2269  -3.0779
    -1.4062  -1.4062  -1.2907  -1.2663  -1.2663  -0.4424   2.5070   2.5070
     2.6658   2.6658   3.0877   3.0877   3.5595   3.5595   3.9601   4.2250

          k =-0.1718-0.0992 0.3800 (  8410 PWs)   bands (ev):

   -33.7405 -33.7344 -16.9686 -16.9375 -15.1095 -14.9943 -14.9849 -14.8176
   -14.7279 -14.6825 -13.7184 -13.5782 -13.4996 -13.3784  -3.1703  -3.0739
    -1.3949  -1.3762  -1.2923  -1.2871  -1.1197  -0.5542   2.4980   2.5545
     2.6299   2.6417   2.9431   3.1501   3.3669   3.5004   4.0731   4.2210

          k = 0.8589 0.4959 0.0543 (  8405 PWs)   bands (ev):

   -33.7386 -33.7361 -16.9636 -16.9444 -15.1382 -15.0027 -14.9649 -14.7896
   -14.7530 -14.6872 -13.7046 -13.5584 -13.5298 -13.3776  -3.0894  -2.9734
    -1.4438  -1.3362  -1.2940  -1.2553  -0.9153  -0.6787   2.3530   2.4632
     2.6395   2.6622   2.7480   3.1556   3.1842   3.3649   4.2027   4.3001

          k = 0.6871 0.3967 0.1086 (  8420 PWs)   bands (ev):

   -33.7380 -33.7364 -17.0158 -16.8862 -15.1707 -15.0902 -14.8692 -14.8176
   -14.7344 -14.6510 -13.7010 -13.6938 -13.4183 -13.3785  -3.0625  -2.8315
    -1.5444  -1.3089  -1.2542  -1.1829  -0.8060  -0.7545   2.1251   2.3468
     2.5266   2.6964   2.7881   3.0139   3.2106   3.3550   4.2150   4.4294

          k =-0.1718 0.0992 0.4343 (  8419 PWs)   bands (ev):

   -33.7398 -33.7352 -16.9745 -16.9330 -15.0972 -14.9801 -14.9773 -14.8597
   -14.7080 -14.7074 -13.6702 -13.5623 -13.5040 -13.4235  -3.1468  -3.1106
    -1.3990  -1.3473  -1.3230  -1.2567  -1.0519  -0.6295   2.5209   2.5279
     2.6204   2.6302   3.0282   3.1834   3.2668   3.4969   4.0975   4.1831

          k = 0.8589 0.6942 0.1086 (  8430 PWs)   bands (ev):

   -33.7385 -33.7362 -16.9689 -16.9410 -15.0904 -15.0685 -14.8810 -14.8353
   -14.7450 -14.7204 -13.6414 -13.6219 -13.4597 -13.4357  -3.0661  -3.0592
    -1.3941  -1.3793  -1.2987  -1.2408  -0.9024  -0.7185   2.4272   2.4390
     2.6337   2.6677   2.8940   3.0307   3.2542   3.3984   4.2137   4.2287

          k = 0.6871 0.5951 0.1629 (  8441 PWs)   bands (ev):

   -33.7375 -33.7370 -16.9858 -16.9241 -15.1243 -15.0582 -14.8890 -14.7861
   -14.7528 -14.7404 -13.6677 -13.6430 -13.4489 -13.4036  -3.0283  -2.9123
    -1.4827  -1.3694  -1.2405  -1.2169  -0.7720  -0.7648   2.2182   2.3192
     2.6311   2.6825   2.7610   2.8905   3.2881   3.3459   4.2615   4.3661

          k = 0.8589-0.4959-0.2171 (  8418 PWs)   bands (ev):

   -33.7381 -33.7366 -16.9967 -16.9116 -15.1610 -14.9950 -14.9321 -14.7935
   -14.7557 -14.6947 -13.7042 -13.5968 -13.4860 -13.3864  -3.1012  -2.9683
    -1.4702  -1.3205  -1.2671  -1.2338  -0.8438  -0.7708   2.3170   2.4371
     2.6654   2.6867   2.8233   3.0078   3.2150   3.4036   4.1907   4.3012

          k =-0.0000-0.0000 0.4886 (  8395 PWs)   bands (ev):

   -33.7390 -33.7360 -16.9593 -16.9481 -15.0247 -15.0247 -14.9533 -14.9533
   -14.6947 -14.6762 -13.5952 -13.5952 -13.4825 -13.4825  -3.2009  -3.1499
    -1.3594  -1.3594  -1.3095  -1.3095  -0.9967  -0.6953   2.5590   2.5590
     2.6159   2.6159   3.2273   3.2273   3.3954   3.3954   4.0352   4.1281

          k = 1.0307 0.5951 0.1629 (  8415 PWs)   bands (ev):

   -33.7379 -33.7371 -16.9572 -16.9515 -15.0820 -15.0288 -14.9390 -14.8797
   -14.7103 -14.6905 -13.6341 -13.5680 -13.5109 -13.4451  -3.1519  -3.1194
    -1.3768  -1.3265  -1.3191  -1.2998  -0.8757  -0.7911   2.5187   2.5506
     2.6126   2.6149   3.0836   3.1963   3.3112   3.3668   4.1190   4.1543

     highest occupied level (ev):     4.4859

!    total energy              =    -367.42767956 Ry
     Harris-Foulkes estimate   =    -367.42767956 Ry
     estimated scf accuracy    <          1.5E-10 Ry

     The total energy is the sum of the following terms:

     one-electron contribution =    -145.61156275 Ry
     hartree contribution      =     102.27944066 Ry
     xc contribution           =     -75.23113376 Ry
     ewald contribution        =    -248.86442371 Ry

     convergence has been achieved in   6 iterations

     Forces acting on atoms (cartesian axes, Ry/au):

     atom    1 type  1   force =    -0.00000000    0.00000000   -0.00000000
     atom    2 type  1   force =     0.00000000   -0.00000000   -0.00000000
     atom    3 type  2   force =    -0.00000000    0.00000000   -0.00000000
     atom    4 type  2   force =     0.00000000   -0.00000000   -0.00000000
     atom    5 type  3   force =    -0.00002357    0.00004083    0.00000000
     atom    6 type  3   force =     0.00004714    0.00000000   -0.00000000
     atom    7 type  3   force =    -0.00002357   -0.00004083   -0.00000000
     atom    8 type  3   force =    -0.00004714   -0.00000000    0.00000000
     atom    9 type  3   force =     0.00002357    0.00004083    0.00000000
     atom   10 type  3   force =     0.00002357   -0.00004083   -0.00000000

     Total force =     0.000115     Total SCF correction =     0.000038
     SCF correction compared to forces is large: reduce conv_thr to get better values


     Computing stress (Cartesian axis) and pressure

          total   stress  (Ry/bohr**3)                   (kbar)     P=   -9.72
  -0.00015492  -0.00000000   0.00000000        -22.79     -0.00      0.00
   0.00000000  -0.00015492  -0.00000000          0.00    -22.79     -0.00
   0.00000000  -0.00000000   0.00011161          0.00     -0.00     16.42


     bfgs converged in   4 scf cycles and   3 bfgs steps
     (criteria: energy <  1.0E-04 Ry, force <  1.0E-03 Ry/Bohr)

     End of BFGS Geometry Optimization

     Final energy   =    -367.4276795649 Ry
Begin final coordinates

ATOMIC_POSITIONS (crystal)
Ca       0.500000000   0.500000000   0.500000000
Ca      -0.000000000   0.000000000   0.000000000
C        0.250000000   0.250000000   0.250000000
C        0.750000000   0.750000000   0.750000000
O        0.501084313   0.998915687   0.250000000
O        0.998915687   0.250000000   0.501084313
O        0.250000000   0.501084313   0.998915687
O        0.001084313   0.750000000   0.498915687
O        0.750000000   0.498915687   0.001084313
O        0.498915687   0.001084313   0.750000000
End final coordinates



     Writing output data file CCO_rand4.save/
 
     init_run     :      4.79s CPU      6.08s WALL (       1 calls)
     electrons    :    517.07s CPU    578.40s WALL (       4 calls)
     update_pot   :      0.30s CPU      0.33s WALL (       3 calls)
     forces       :      2.03s CPU      2.20s WALL (       4 calls)
     stress       :      4.35s CPU      4.53s WALL (       4 calls)

     Called by init_run:
     wfcinit      :      4.50s CPU      5.35s WALL (       1 calls)
     potinit      :      0.05s CPU      0.09s WALL (       1 calls)
     hinit0       :      0.18s CPU      0.39s WALL (       1 calls)

     Called by electrons:
     c_bands      :    484.25s CPU    542.95s WALL (      33 calls)
     sum_band     :     31.81s CPU     33.95s WALL (      33 calls)
     v_of_rho     :      0.58s CPU      0.64s WALL (      36 calls)
     newd         :      0.38s CPU      0.47s WALL (      36 calls)
     mix_rho      :      0.06s CPU      0.12s WALL (      33 calls)

     Called by c_bands:
     init_us_2    :      1.14s CPU      1.32s WALL (    3300 calls)
     ccgdiagg     :    402.40s CPU    445.11s WALL (    1468 calls)
     wfcrot       :     85.15s CPU     99.79s WALL (    1292 calls)

     Called by sum_band:
     sum_band:bec :      0.36s CPU      0.41s WALL (    1452 calls)
     addusdens    :      0.35s CPU      0.42s WALL (      33 calls)

     Called by *cgdiagg:
     h_psi        :    331.67s CPU    359.25s WALL (  158438 calls)
     s_psi        :     31.91s CPU     37.07s WALL (  315584 calls)
     cdiaghg      :     27.08s CPU     37.66s WALL (    1292 calls)

     Called by h_psi:
     h_psi:pot    :    325.96s CPU    352.56s WALL (  158438 calls)
     h_psi:calbec :     36.14s CPU     39.73s WALL (  158438 calls)
     vloc_psi     :    263.95s CPU    284.76s WALL (  158438 calls)
     add_vuspsi   :     19.58s CPU     22.06s WALL (  158438 calls)
     hs_1psi      :    307.10s CPU    334.12s WALL (  157146 calls)
     s_1psi       :     48.07s CPU     55.54s WALL (  157146 calls)

     General routines
     calbec       :     56.12s CPU     64.47s WALL (  317916 calls)
     fft          :      0.64s CPU      0.72s WALL (     500 calls)
     ffts         :      0.04s CPU      0.04s WALL (      33 calls)
     fftw         :    276.24s CPU    296.95s WALL (  445204 calls)
 
     Parallel routines
     fft_scatt_xy :     15.91s CPU     17.12s WALL (  445737 calls)
     fft_scatt_yz :    209.67s CPU    226.05s WALL (  445737 calls)
 
     PWSCF        :   8m50.88s CPU   9m57.01s WALL

 
   This run was terminated on:  23:44:37   3May2022            

=------------------------------------------------------------------------------=
   JOB DONE.
=------------------------------------------------------------------------------=
s WALL (  439001 calls)
 
     PWSCF        :   8m42.09s CPU   9m51.03s WALL

 
   This run was terminated on:  23:37:54   3May2022            

=------------------------------------------------------------------------------=
   JOB DONE.
=------------------------------------------------------------------------------=
