
     Program PWSCF v.6.4.1 starts on  3May2022 at 23:34:48 

     This program is part of the open-source Quantum ESPRESSO suite
     for quantum simulation of materials; please cite
         "P. Giannozzi et al., J. Phys.:Condens. Matter 21 395502 (2009);
         "P. Giannozzi et al., J. Phys.:Condens. Matter 29 465901 (2017);
          URL http://www.quantum-espresso.org", 
     in publications or presentations arising from this work. More details at
     http://www.quantum-espresso.org/quote

     Parallel version (MPI & OpenMP), running on      68 processor cores
     Number of MPI processes:                68
     Threads/MPI process:                     1

     MPI processes distributed on     1 nodes
     R & G space division:  proc/nbgrp/npool/nimage =      68
     Waiting for input...
     Reading input from standard input
Warning: card &CELL ignored
Warning: card  CELL_DYNAMICS = 'BFGS', ignored
Warning: card  PRESS=0.1D0, ignored
Warning: card / ignored

     Current dimensions of program PWSCF are:
     Max number of different atomic species (ntypx) = 10
     Max number of k-points (npk) =  40000
     Max angular momentum in pseudopotentials (lmaxx) =  3

     Subspace diagonalization in iterative solution of the eigenvalue problem:
     one sub-group per band group will be used
     scalapack distributed-memory algorithm (size of sub-group:  5*  5 procs)

 
     Parallelization info
     --------------------
     sticks:   dense  smooth     PW     G-vecs:    dense   smooth      PW
     Min          33      33      9                  988      988     151
     Max          34      34     10                  995      995     156
     Sum        2303    2303    665                67453    67453   10475
 


     bravais-lattice index     =            5
     lattice parameter (alat)  =      11.6303  a.u.
     unit-cell volume          =     852.5484 (a.u.)^3
     number of atoms/cell      =           10
     number of atomic types    =            3
     number of electrons       =        64.00
     number of Kohn-Sham states=           32
     kinetic-energy cutoff     =      70.0000  Ry
     charge density cutoff     =     280.0000  Ry
     convergence threshold     =      1.0E-08
     mixing beta               =       0.7000
     number of iterations used =            8  plain     mixing
     Exchange-correlation      = SLA  PW   PBE  PBE ( 1  4  3  4 0 0)
     nstep                     =           50


     celldm(1)=  11.630300  celldm(2)=   0.000000  celldm(3)=   0.000000
     celldm(4)=   0.641300  celldm(5)=   0.000000  celldm(6)=   0.000000

     crystal axes: (cart. coord. in units of alat)
               a(1) = (   0.423497  -0.244506   0.872277 )  
               a(2) = (   0.000000   0.489013   0.872277 )  
               a(3) = (  -0.423497  -0.244506   0.872277 )  

     reciprocal axes: (cart. coord. in units 2 pi/alat)
               b(1) = (  1.180645 -0.681646  0.382142 )  
               b(2) = ( -0.000000  1.363291  0.382142 )  
               b(3) = ( -1.180645 -0.681646  0.382142 )  


     PseudoPot. # 1 for Ca read from file:
     ./Ca_PBE.UPF
     MD5 check sum: 403a4c14b9e4d4dfdc3024c9a3812218
     Pseudo is Ultrasoft + core correction, Zval = 10.0
     Generated by new atomic code, or converted to UPF format
     Using radial grid of  845 points,  6 beta functions with: 
                l(1) =   0
                l(2) =   0
                l(3) =   1
                l(4) =   1
                l(5) =   2
                l(6) =   2
     Q(r) pseudized with  8 coefficients,  rinner =    1.500   1.500   1.500
                                                       1.500   1.500

     PseudoPot. # 2 for C  read from file:
     ./C_PBE.UPF
     MD5 check sum: d1aef80898a10debaa0f26306b886e00
     Pseudo is Ultrasoft + core correction, Zval =  4.0
     Generated by new atomic code, or converted to UPF format
     Using radial grid of  721 points,  4 beta functions with: 
                l(1) =   0
                l(2) =   0
                l(3) =   1
                l(4) =   1
     Q(r) pseudized with  8 coefficients,  rinner =    1.100   1.100   1.100


     PseudoPot. # 3 for O  read from file:
     ./O_PBE.UPF
     MD5 check sum: 734c27235a0248c51dbae37a1fbe46ec
     Pseudo is Ultrasoft + core correction, Zval =  6.0
     Generated by new atomic code, or converted to UPF format
     Using radial grid of  737 points,  5 beta functions with: 
                l(1) =   0
                l(2) =   0
                l(3) =   1
                l(4) =   1
                l(5) =   2
     Q(r) pseudized with  8 coefficients,  rinner =    0.900   0.900   0.900
                                                       0.900   0.900

     atomic species   valence    mass     pseudopotential
        Ca            10.00    40.07800     Ca( 1.00)
        C              4.00    12.01070     C ( 1.00)
        O              6.00    16.00000     O ( 1.00)

     12 Sym. Ops., with inversion, found ( 6 have fractional translation)



   Cartesian axes

     site n.     atom                  positions (alat units)
         1           Ca  tau(   1) = (   0.0000000  -0.0000000   1.3084151  )
         2           Ca  tau(   2) = (   0.0000000   0.0000000   0.0000000  )
         3           C   tau(   3) = (   0.0000000  -0.0000000   0.6542075  )
         4           C   tau(   4) = (  -0.0000000  -0.0000000   1.9626226  )
         5           O   tau(   5) = (   0.1088460   0.3004858   1.5264843  )
         6           O   tau(   6) = (   0.2058053  -0.2445063   1.5264843  )
         7           O   tau(   7) = (  -0.3146513  -0.0559795   1.5264843  )
         8           O   tau(   8) = (  -0.2058053   0.2445063   1.0903459  )
         9           O   tau(   9) = (   0.3146513   0.0559795   1.0903459  )
        10           O   tau(  10) = (  -0.1088460  -0.3004858   1.0903459  )

     number of k points=    44
                       cart. coord. in units 2pi/alat
        k(    1) = (   0.0000000   0.0000000   0.0000000), wk =   0.0058309
        k(    2) = (  -0.1686636  -0.0973780   0.0545917), wk =   0.0349854
        k(    3) = (  -0.3373271  -0.1947559   0.1091834), wk =   0.0349854
        k(    4) = (  -0.5059907  -0.2921339   0.1637750), wk =   0.0349854
        k(    5) = (  -0.1686636   0.0973780   0.1091834), wk =   0.0349854
        k(    6) = (  -0.3373271  -0.0000000   0.1637750), wk =   0.0699708
        k(    7) = (  -0.5059907  -0.0973780   0.2183667), wk =   0.0699708
        k(    8) = (   0.5059907   0.4868898  -0.1091834), wk =   0.0699708
        k(    9) = (   0.3373271   0.3895118  -0.0545917), wk =   0.0699708
        k(   10) = (   0.1686636   0.2921339   0.0000000), wk =   0.0349854
        k(   11) = (  -0.3373271   0.1947559   0.2183667), wk =   0.0349854
        k(   12) = (  -0.5059907   0.0973780   0.2729584), wk =   0.0699708
        k(   13) = (   0.5059907   0.6816457  -0.0545917), wk =   0.0699708
        k(   14) = (   0.3373271   0.5842677   0.0000000), wk =   0.0349854
        k(   15) = (  -0.5059907   0.2921339   0.3275501), wk =   0.0349854
        k(   16) = (   0.5059907   0.8764016   0.0000000), wk =   0.0349854
        k(   17) = (  -0.0000000  -0.0000000   0.1637750), wk =   0.0116618
        k(   18) = (  -0.1686636  -0.0973780   0.2183667), wk =   0.0349854
        k(   19) = (  -0.3373271  -0.1947559   0.2729584), wk =   0.0349854
        k(   20) = (   0.6746543   0.3895118  -0.0545917), wk =   0.0349854
        k(   21) = (   0.5059907   0.2921339   0.0000000), wk =   0.0349854
        k(   22) = (   0.3373271   0.1947559   0.0545917), wk =   0.0349854
        k(   23) = (  -0.1686636   0.0973780   0.2729584), wk =   0.0349854
        k(   24) = (  -0.3373271   0.0000000   0.3275501), wk =   0.0699708
        k(   25) = (   0.6746543   0.5842677   0.0000000), wk =   0.0699708
        k(   26) = (   0.5059907   0.4868898   0.0545917), wk =   0.0699708
        k(   27) = (   0.3373271   0.3895118   0.1091834), wk =   0.0699708
        k(   28) = (  -0.3373271   0.1947559   0.3821417), wk =   0.0349854
        k(   29) = (   0.6746543   0.7790236   0.0545917), wk =   0.0699708
        k(   30) = (   0.5059907   0.6816457   0.1091834), wk =   0.0699708
        k(   31) = (   0.3373271   0.5842677   0.1637750), wk =   0.0699708
        k(   32) = (   0.6746543  -0.3895118  -0.2729584), wk =   0.0349854
        k(   33) = (   0.5059907  -0.4868898  -0.2183667), wk =   0.0699708
        k(   34) = (   0.5059907  -0.2921339  -0.1637750), wk =   0.0349854
        k(   35) = (  -0.0000000  -0.0000000   0.3275501), wk =   0.0116618
        k(   36) = (  -0.1686636  -0.0973780   0.3821417), wk =   0.0349854
        k(   37) = (   0.8433178   0.4868898   0.0545917), wk =   0.0349854
        k(   38) = (   0.6746543   0.3895118   0.1091834), wk =   0.0349854
        k(   39) = (  -0.1686636   0.0973780   0.4367334), wk =   0.0349854
        k(   40) = (   0.8433178   0.6816457   0.1091834), wk =   0.0699708
        k(   41) = (   0.6746543   0.5842677   0.1637750), wk =   0.0699708
        k(   42) = (   0.8433178  -0.4868898  -0.2183667), wk =   0.0349854
        k(   43) = (  -0.0000000   0.0000000   0.4913251), wk =   0.0116618
        k(   44) = (   1.0119814   0.5842677   0.1637750), wk =   0.0349854

     Dense  grid:    67453 G-vectors     FFT dimensions: (  64,  64,  64)

     Estimated max dynamical RAM per process >      14.47 MB

     Estimated total dynamical RAM >     983.76 MB

     Check: negative core charge=   -0.000003

     Initial potential from superposition of free atoms

     starting charge   63.98899, renormalised to   64.00000
     Starting wfcs are   52 randomized atomic wfcs

     total cpu time spent up to now is        7.2 secs

     Self-consistent Calculation

     iteration #  1     ecut=    70.00 Ry     beta= 0.70
     CG style diagonalization
     ethr =  1.00E-02,  avg # of iterations =  2.6

     total cpu time spent up to now is       18.8 secs

     total energy              =    -366.59672430 Ry
     Harris-Foulkes estimate   =    -367.83657590 Ry
     estimated scf accuracy    <       1.76877287 Ry

     iteration #  2     ecut=    70.00 Ry     beta= 0.70
     CG style diagonalization
     ethr =  2.76E-03,  avg # of iterations =  4.4

     total cpu time spent up to now is       36.9 secs

     total energy              =    -367.01171407 Ry
     Harris-Foulkes estimate   =    -367.97188733 Ry
     estimated scf accuracy    <       2.04837991 Ry

     iteration #  3     ecut=    70.00 Ry     beta= 0.70
     CG style diagonalization
     ethr =  2.76E-03,  avg # of iterations =  3.8

     total cpu time spent up to now is       52.4 secs

     total energy              =    -367.38922875 Ry
     Harris-Foulkes estimate   =    -367.39244555 Ry
     estimated scf accuracy    <       0.01212616 Ry

     iteration #  4     ecut=    70.00 Ry     beta= 0.70
     CG style diagonalization
     ethr =  1.89E-05,  avg # of iterations =  4.5

     total cpu time spent up to now is       71.0 secs

     total energy              =    -367.40101733 Ry
     Harris-Foulkes estimate   =    -367.40266760 Ry
     estimated scf accuracy    <       0.00407000 Ry

     iteration #  5     ecut=    70.00 Ry     beta= 0.70
     CG style diagonalization
     ethr =  6.36E-06,  avg # of iterations =  3.6

     total cpu time spent up to now is       85.5 secs

     total energy              =    -367.40159949 Ry
     Harris-Foulkes estimate   =    -367.40163560 Ry
     estimated scf accuracy    <       0.00018601 Ry

     iteration #  6     ecut=    70.00 Ry     beta= 0.70
     CG style diagonalization
     ethr =  2.91E-07,  avg # of iterations =  4.2

     total cpu time spent up to now is      102.5 secs

     total energy              =    -367.40166005 Ry
     Harris-Foulkes estimate   =    -367.40167361 Ry
     estimated scf accuracy    <       0.00002417 Ry

     iteration #  7     ecut=    70.00 Ry     beta= 0.70
     CG style diagonalization
     ethr =  3.78E-08,  avg # of iterations =  4.1

     total cpu time spent up to now is      119.4 secs

     total energy              =    -367.40167090 Ry
     Harris-Foulkes estimate   =    -367.40167272 Ry
     estimated scf accuracy    <       0.00000375 Ry

     iteration #  8     ecut=    70.00 Ry     beta= 0.70
     CG style diagonalization
     ethr =  5.85E-09,  avg # of iterations =  4.1

     total cpu time spent up to now is      136.0 secs

     total energy              =    -367.40167200 Ry
     Harris-Foulkes estimate   =    -367.40167204 Ry
     estimated scf accuracy    <       0.00000007 Ry

     iteration #  9     ecut=    70.00 Ry     beta= 0.70
     CG style diagonalization
     ethr =  1.11E-10,  avg # of iterations =  4.7

     total cpu time spent up to now is      155.1 secs

     total energy              =    -367.40167209 Ry
     Harris-Foulkes estimate   =    -367.40167209 Ry
     estimated scf accuracy    <       0.00000002 Ry

     iteration # 10     ecut=    70.00 Ry     beta= 0.70
     CG style diagonalization
     ethr =  2.39E-11,  avg # of iterations =  3.6

     total cpu time spent up to now is      170.0 secs

     End of self-consistent calculation

          k = 0.0000 0.0000 0.0000 (  8493 PWs)   bands (ev):

   -33.6470 -33.6326 -16.4519 -16.4261 -15.0471 -15.0471 -14.6987 -14.6987
   -14.6494 -14.4981 -13.5794 -13.5794 -13.0196 -13.0196  -3.3233  -3.1272
    -1.3382  -1.3382  -1.3237  -1.1154  -1.1154   0.1891   2.4556   2.4556
     2.7052   2.7052   2.9792   2.9792   3.7269   3.7699   3.7699   4.1993

          k =-0.1687-0.0974 0.0546 (  8424 PWs)   bands (ev):

   -33.6463 -33.6333 -16.4777 -16.4039 -15.0442 -14.9836 -14.7536 -14.6924
   -14.6568 -14.5729 -13.5426 -13.4575 -13.0979 -13.0388  -3.2573  -3.1464
    -1.3125  -1.3123  -1.2434  -1.1182  -1.1090   0.0873   2.4859   2.5256
     2.6614   2.7381   2.8312   2.9040   3.6326   3.6764   3.9090   4.1790

          k =-0.3373-0.1948 0.1092 (  8429 PWs)   bands (ev):

   -33.6441 -33.6352 -16.5068 -16.3773 -15.0317 -14.9150 -14.8892 -14.7480
   -14.5976 -14.5779 -13.4552 -13.2962 -13.2442 -13.0983  -3.1546  -3.1305
    -1.3385  -1.2495  -1.1279  -1.1214  -0.9321  -0.1178   2.4458   2.4664
     2.6021   2.6137   2.8176   2.9023   3.4602   3.4841   4.1160   4.1465

          k =-0.5060-0.2921 0.1638 (  8443 PWs)   bands (ev):

   -33.6411 -33.6379 -16.4808 -16.4126 -14.9690 -14.9300 -14.9177 -14.8464
   -14.5710 -14.5339 -13.3537 -13.2747 -13.2617 -13.1980  -3.1071  -3.0698
    -1.3558  -1.2856  -1.0919  -1.0667  -0.6182  -0.3372   2.2479   2.3199
     2.5399   2.5822   2.9300   2.9991   3.3190   3.3243   4.1645   4.2014

          k =-0.1687 0.0974 0.1092 (  8422 PWs)   bands (ev):

   -33.6461 -33.6335 -16.4810 -16.4022 -15.0137 -15.0103 -14.7314 -14.6975
   -14.6571 -14.6013 -13.4967 -13.4813 -13.0824 -13.0671  -3.2535  -3.1573
    -1.3015  -1.2983  -1.2529  -1.1165  -1.0966   0.0675   2.4942   2.5147
     2.6557   2.7073   2.8779   2.9170   3.5822   3.7131   3.8990   4.1662

          k =-0.3373-0.0000 0.1638 (  8435 PWs)   bands (ev):

   -33.6445 -33.6348 -16.5085 -16.3776 -15.0163 -14.9809 -14.7836 -14.7253
   -14.6308 -14.6151 -13.4409 -13.3807 -13.1712 -13.1021  -3.1729  -3.1552
    -1.3161  -1.2324  -1.2183  -1.0815  -0.9697  -0.0892   2.4469   2.5325
     2.5928   2.6634   2.7823   2.9335   3.4117   3.5941   4.0710   4.1369

          k =-0.5060-0.0974 0.2184 (  8437 PWs)   bands (ev):

   -33.6420 -33.6371 -16.4944 -16.4009 -15.0178 -14.9546 -14.8356 -14.7979
   -14.5971 -14.5505 -13.4025 -13.3460 -13.1997 -13.1493  -3.1245  -3.0827
    -1.3276  -1.2716  -1.1465  -1.0579  -0.6924  -0.2669   2.2767   2.3895
     2.5534   2.5621   2.8476   2.9803   3.2904   3.4423   4.1581   4.1973

          k = 0.5060 0.4869-0.1092 (  8435 PWs)   bands (ev):

   -33.6399 -33.6391 -16.4755 -16.4239 -15.0010 -14.9393 -14.8943 -14.7986
   -14.5809 -14.5402 -13.4000 -13.3107 -13.2286 -13.1594  -3.1037  -3.0423
    -1.3695  -1.2699  -1.1018  -1.0463  -0.4878  -0.4238   2.2048   2.2736
     2.5034   2.5760   2.8795   2.9625   3.3258   3.3602   4.1813   4.2349

          k = 0.3373 0.3895-0.0546 (  8440 PWs)   bands (ev):

   -33.6428 -33.6363 -16.5252 -16.3594 -15.0472 -14.9562 -14.8793 -14.7292
   -14.6280 -14.5183 -13.4431 -13.3394 -13.1827 -13.1383  -3.1593  -3.0399
    -1.3880  -1.1946  -1.1305  -1.0707  -0.7788  -0.2254   2.2366   2.4600
     2.5119   2.5898   2.7712   3.0145   3.3488   3.4508   4.1322   4.2307

          k = 0.1687 0.2921 0.0000 (  8415 PWs)   bands (ev):

   -33.6451 -33.6343 -16.5135 -16.3679 -15.0102 -14.9943 -14.7842 -14.7027
   -14.6686 -14.5967 -13.4534 -13.3870 -13.1625 -13.0922  -3.1675  -3.1480
    -1.3383  -1.2179  -1.2129  -1.0831  -1.0326  -0.0490   2.4510   2.5577
     2.5840   2.7015   2.7232   2.8913   3.4837   3.5952   4.0744   4.1500

          k =-0.3373 0.1948 0.2184 (  8447 PWs)   bands (ev):

   -33.6439 -33.6354 -16.5416 -16.3437 -15.0410 -14.9934 -14.7324 -14.6779
   -14.6621 -14.6500 -13.4266 -13.3758 -13.1661 -13.1265  -3.2150  -3.0798
    -1.3590  -1.2265  -1.1627  -1.0421  -0.8884  -0.1762   2.3290   2.5203
     2.5405   2.7222   2.7542   3.0559   3.2399   3.6101   4.0818   4.1439

          k =-0.5060 0.0974 0.2730 (  8435 PWs)   bands (ev):

   -33.6424 -33.6367 -16.5467 -16.3446 -15.0780 -14.9778 -14.7737 -14.7104
   -14.6488 -14.5434 -13.4979 -13.3337 -13.1921 -13.0990  -3.1988  -3.0079
    -1.3747  -1.2356  -1.1355  -1.0126  -0.6974  -0.2844   2.1814   2.4034
     2.5446   2.6819   2.7766   2.9838   3.2248   3.5244   4.0809   4.2549

          k = 0.5060 0.6816-0.0546 (  8436 PWs)   bands (ev):

   -33.6403 -33.6387 -16.4876 -16.4222 -15.0397 -14.9208 -14.8250 -14.7451
   -14.6336 -14.5699 -13.4547 -13.3320 -13.2016 -13.1214  -3.0990  -3.0348
    -1.3289  -1.2992  -1.1417  -1.0065  -0.4831  -0.3834   2.1496   2.2407
     2.5525   2.6056   2.8015   2.8335   3.3304   3.4426   4.1880   4.2592

          k = 0.3373 0.5843 0.0000 (  8455 PWs)   bands (ev):

   -33.6408 -33.6382 -16.5025 -16.3981 -15.0277 -14.9623 -14.8867 -14.6666
   -14.6618 -14.5328 -13.4667 -13.3326 -13.1997 -13.1159  -3.1178  -3.0133
    -1.3980  -1.1766  -1.1610  -1.0366  -0.5608  -0.3345   2.1478   2.2863
     2.5031   2.5730   2.7869   2.9177   3.3909   3.3913   4.1757   4.2793

          k =-0.5060 0.2921 0.3276 (  8437 PWs)   bands (ev):

   -33.6421 -33.6369 -16.5865 -16.2903 -15.1163 -15.0812 -14.6850 -14.6691
   -14.6641 -14.4713 -13.5654 -13.4420 -13.1061 -13.0711  -3.2541  -2.9172
    -1.4449  -1.2034  -1.0714  -0.9771  -0.6543  -0.3528   2.0750   2.3487
     2.5869   2.7655   2.7851   2.8732   3.2520   3.5211   3.9958   4.3289

          k = 0.5060 0.8764 0.0000 (  8425 PWs)   bands (ev):

   -33.6414 -33.6376 -16.5636 -16.3298 -15.0820 -15.0466 -14.7137 -14.6862
   -14.6615 -14.5049 -13.5531 -13.3967 -13.1365 -13.0773  -3.2084  -2.9327
    -1.4090  -1.2472  -1.0945  -0.9746  -0.5637  -0.3638   2.0572   2.2942
     2.6359   2.6966   2.7717   2.7767   3.3111   3.4834   4.0530   4.3351

          k =-0.0000-0.0000 0.1638 (  8400 PWs)   bands (ev):

   -33.6463 -33.6333 -16.4521 -16.4286 -15.0346 -15.0346 -14.7239 -14.7239
   -14.6400 -14.5039 -13.5438 -13.5438 -13.0427 -13.0427  -3.3243  -3.1518
    -1.3255  -1.3255  -1.2372  -1.1250  -1.1250   0.1240   2.4685   2.4685
     2.6958   2.6958   3.0085   3.0085   3.7218   3.7218   3.7453   4.1661

          k =-0.1687-0.0974 0.2184 (  8420 PWs)   bands (ev):

   -33.6452 -33.6344 -16.4701 -16.4158 -15.0469 -14.9465 -14.8318 -14.6807
   -14.6531 -14.5506 -13.5273 -13.3993 -13.1477 -13.0519  -3.2674  -3.1677
    -1.3050  -1.2869  -1.1739  -1.1385  -1.0568  -0.0025   2.4840   2.5428
     2.6494   2.7078   2.8474   3.0080   3.5590   3.6163   3.9120   4.1414

          k =-0.3373-0.1948 0.2730 (  8428 PWs)   bands (ev):

   -33.6429 -33.6364 -16.4725 -16.4213 -15.0210 -14.9427 -14.8768 -14.7348
   -14.6015 -14.5645 -13.4432 -13.2858 -13.2715 -13.1015  -3.1748  -3.1301
    -1.2872  -1.2738  -1.1447  -1.1349  -0.8016  -0.1971   2.4165   2.5064
     2.5847   2.5983   2.8152   3.0141   3.3423   3.4501   4.0887   4.1501

          k = 0.6747 0.3895-0.0546 (  8426 PWs)   bands (ev):

   -33.6400 -33.6391 -16.4799 -16.4182 -15.0202 -14.9317 -14.8752 -14.8094
   -14.5861 -14.5277 -13.3666 -13.3461 -13.2347 -13.1534  -3.1465  -3.0343
    -1.3788  -1.2446  -1.1142  -1.0567  -0.5270  -0.4092   2.2260   2.3255
     2.5159   2.6259   2.8799   3.1034   3.2018   3.3434   4.1358   4.2208

          k = 0.5060 0.2921 0.0000 (  8453 PWs)   bands (ev):

   -33.6420 -33.6371 -16.5349 -16.3487 -15.0382 -15.0075 -14.8336 -14.7682
   -14.6155 -14.4917 -13.4541 -13.3102 -13.2045 -13.1420  -3.1758  -2.9960
    -1.4214  -1.1778  -1.1241  -1.0419  -0.6879  -0.3038   2.1631   2.3888
     2.4880   2.6664   2.8012   3.1257   3.2254   3.4134   4.1009   4.2597

          k = 0.3373 0.1948 0.0546 (  8439 PWs)   bands (ev):

   -33.6445 -33.6348 -16.5312 -16.3490 -15.0277 -14.9824 -14.8077 -14.7119
   -14.6399 -14.5969 -13.4522 -13.3304 -13.2035 -13.1045  -3.1847  -3.0959
    -1.3584  -1.2357  -1.1424  -1.0790  -0.9659  -0.1126   2.3733   2.4905
     2.6468   2.6739   2.6756   2.9856   3.3870   3.5806   4.1213   4.1331

          k =-0.1687 0.0974 0.2730 (  8429 PWs)   bands (ev):

   -33.6446 -33.6349 -16.4788 -16.4106 -15.0215 -14.9590 -14.8030 -14.7146
   -14.6338 -14.5934 -13.4630 -13.4077 -13.1337 -13.1022  -3.2553  -3.1950
    -1.3016  -1.2661  -1.1987  -1.1050  -1.0115  -0.0595   2.5035   2.5160
     2.6458   2.6658   2.9246   3.0435   3.4583   3.6592   3.9064   4.1092

          k =-0.3373 0.0000 0.3276 (  8432 PWs)   bands (ev):

   -33.6430 -33.6363 -16.4933 -16.4032 -15.0165 -14.9638 -14.8068 -14.6894
   -14.6638 -14.6006 -13.4106 -13.3651 -13.1896 -13.1299  -3.1843  -3.1718
    -1.2869  -1.2405  -1.2138  -1.0848  -0.8148  -0.2070   2.4356   2.4764
     2.6071   2.6956   2.8074   3.0548   3.2700   3.5417   4.0639   4.1067

          k = 0.6747 0.5843 0.0000 (  8440 PWs)   bands (ev):

   -33.6408 -33.6384 -16.4554 -16.4514 -15.0173 -14.9429 -14.8304 -14.7522
   -14.6053 -14.5908 -13.4140 -13.3168 -13.2379 -13.1322  -3.1301  -3.0867
    -1.3375  -1.2368  -1.1724  -1.0478  -0.5752  -0.3520   2.2835   2.3173
     2.5670   2.6434   2.8254   2.9910   3.2489   3.4018   4.1541   4.1851

          k = 0.5060 0.4869 0.0546 (  8434 PWs)   bands (ev):

   -33.6407 -33.6383 -16.5212 -16.3762 -15.0426 -14.9827 -14.8532 -14.7103
   -14.6279 -14.5167 -13.4805 -13.3091 -13.2232 -13.1086  -3.1581  -2.9861
    -1.4177  -1.1714  -1.1399  -1.0347  -0.5402  -0.3791   2.1307   2.3069
     2.4866   2.6548   2.8147   2.9729   3.3067   3.3878   4.1249   4.2843

          k = 0.3373 0.3895 0.1092 (  8439 PWs)   bands (ev):

   -33.6429 -33.6362 -16.5438 -16.3389 -15.0735 -14.9716 -14.8446 -14.6731
   -14.6690 -14.5166 -13.4904 -13.3122 -13.2094 -13.1031  -3.1858  -3.0131
    -1.3968  -1.1991  -1.1110  -1.0601  -0.7776  -0.2334   2.1996   2.4749
     2.4907   2.6334   2.7449   3.0419   3.2872   3.5024   4.1021   4.2512

          k =-0.3373 0.1948 0.3821 (  8432 PWs)   bands (ev):

   -33.6425 -33.6368 -16.5347 -16.3607 -15.0739 -14.9406 -14.7398 -14.7127
   -14.6681 -14.6013 -13.4162 -13.3857 -13.1654 -13.1377  -3.2353  -3.0814
    -1.3651  -1.2102  -1.1493  -1.0428  -0.7352  -0.2963   2.3126   2.4491
     2.6196   2.7328   2.8276   3.0659   3.1332   3.5570   4.0495   4.1488

          k = 0.6747 0.7790 0.0546 (  8423 PWs)   bands (ev):

   -33.6413 -33.6378 -16.5313 -16.3724 -15.0607 -14.9735 -14.7346 -14.7003
   -14.6657 -14.5875 -13.4595 -13.3765 -13.1584 -13.1259  -3.1940  -3.0225
    -1.3674  -1.2470  -1.1200  -1.0193  -0.5852  -0.3643   2.1889   2.3432
     2.6376   2.7243   2.7850   2.8673   3.2385   3.4751   4.0841   4.2411

          k = 0.5060 0.6816 0.1092 (  8439 PWs)   bands (ev):

   -33.6398 -33.6392 -16.4692 -16.4458 -15.0116 -14.9594 -14.7779 -14.7136
   -14.6615 -14.6087 -13.4209 -13.3731 -13.1715 -13.1406  -3.0789  -3.0562
    -1.3369  -1.3008  -1.1091  -1.0273  -0.4417  -0.4137   2.1648   2.1979
     2.5931   2.6367   2.7828   2.7951   3.3503   3.4098   4.2096   4.2363

          k = 0.3373 0.5843 0.1638 (  8442 PWs)   bands (ev):

   -33.6407 -33.6383 -16.4988 -16.4046 -15.0383 -14.9443 -14.8581 -14.7288
   -14.6222 -14.5449 -13.4667 -13.3248 -13.2065 -13.1155  -3.1128  -3.0191
    -1.3674  -1.2674  -1.0819  -1.0593  -0.5342  -0.3497   2.1470   2.2744
     2.5244   2.5728   2.7922   2.8900   3.3610   3.4237   4.1776   4.2740

          k = 0.6747-0.3895-0.2730 (  8426 PWs)   bands (ev):

   -33.6414 -33.6376 -16.5745 -16.3107 -15.1186 -15.0512 -14.6959 -14.6810
   -14.6597 -14.4785 -13.5330 -13.4585 -13.0948 -13.0921  -3.2481  -2.9284
    -1.4452  -1.1943  -1.0606  -1.0062  -0.5850  -0.3975   2.0896   2.3323
     2.6340   2.7558   2.7651   2.8718   3.2504   3.4760   4.0099   4.3164

          k = 0.5060-0.4869-0.2184 (  8440 PWs)   bands (ev):

   -33.6412 -33.6378 -16.5525 -16.3422 -15.0691 -15.0336 -14.7676 -14.6700
   -14.6582 -14.5084 -13.5347 -13.3714 -13.1617 -13.0827  -3.1952  -2.9468
    -1.4191  -1.2259  -1.0693  -1.0230  -0.5609  -0.3640   2.0767   2.3014
     2.5500   2.7013   2.7834   2.8655   3.3089   3.4488   4.0744   4.3213

          k = 0.5060-0.2921-0.1638 (  8445 PWs)   bands (ev):

   -33.6423 -33.6367 -16.5722 -16.3039 -15.0778 -15.0778 -14.7439 -14.6972
   -14.6511 -14.4711 -13.5350 -13.3855 -13.1443 -13.0889  -3.2281  -2.9411
    -1.4431  -1.1868  -1.0552  -1.0378  -0.6970  -0.3142   2.1008   2.3955
     2.4883   2.7308   2.7722   3.0569   3.2143   3.4902   4.0341   4.3068

          k =-0.0000-0.0000 0.3276 (  8400 PWs)   bands (ev):

   -33.6443 -33.6353 -16.4516 -16.4352 -14.9978 -14.9978 -14.7874 -14.7874
   -14.6151 -14.5211 -13.4512 -13.4512 -13.1090 -13.1090  -3.3222  -3.2086
    -1.2910  -1.2910  -1.1527  -1.1527  -1.0042  -0.0644   2.5049   2.5049
     2.6654   2.6654   3.0977   3.0977   3.5923   3.5923   3.7980   4.0816

          k =-0.1687-0.0974 0.3821 (  8407 PWs)   bands (ev):

   -33.6430 -33.6365 -16.4584 -16.4344 -15.0230 -14.9039 -14.9006 -14.7232
   -14.6251 -14.5486 -13.4561 -13.3211 -13.2231 -13.1033  -3.2746  -3.2050
    -1.2828  -1.2359  -1.1774  -1.1660  -0.8440  -0.1945   2.4946   2.5580
     2.6290   2.6486   2.9494   3.1656   3.3893   3.5270   3.9243   4.0732

          k = 0.8433 0.4869 0.0546 (  8435 PWs)   bands (ev):

   -33.6410 -33.6383 -16.4692 -16.4330 -15.0498 -14.9082 -14.8767 -14.6858
   -14.6528 -14.5510 -13.4391 -13.3034 -13.2598 -13.1079  -3.2143  -3.1106
    -1.3317  -1.1801  -1.1661  -1.1309  -0.6325  -0.3451   2.3576   2.4632
     2.6451   2.6888   2.7485   3.1704   3.2058   3.3860   4.0570   4.1471

          k = 0.6747 0.3895 0.1092 (  8424 PWs)   bands (ev):

   -33.6404 -33.6387 -16.5372 -16.3575 -15.0851 -14.9980 -14.7775 -14.7254
   -14.6327 -14.4953 -13.4507 -13.4288 -13.1494 -13.1115  -3.2100  -2.9707
    -1.4303  -1.1616  -1.1125  -1.0464  -0.4993  -0.4508   2.1425   2.3455
     2.5339   2.7148   2.8082   3.0297   3.2242   3.3818   4.0656   4.2749

          k =-0.1687 0.0974 0.4367 (  8414 PWs)   bands (ev):

   -33.6422 -33.6373 -16.4698 -16.4258 -15.0127 -14.8886 -14.8826 -14.7712
   -14.5988 -14.5819 -13.4070 -13.3025 -13.2284 -13.1516  -3.2533  -3.2379
    -1.2820  -1.2265  -1.2034  -1.1335  -0.7591  -0.2799   2.5212   2.5236
     2.6258   2.6347   3.0335   3.2001   3.2858   3.5293   3.9431   4.0336

          k = 0.8433 0.6816 0.1092 (  8407 PWs)   bands (ev):

   -33.6409 -33.6385 -16.4684 -16.4363 -15.0011 -14.9749 -14.7877 -14.7293
   -14.6364 -14.6025 -13.3774 -13.3579 -13.1935 -13.1669  -3.1914  -3.1869
    -1.2776  -1.2620  -1.1561  -1.1082  -0.6070  -0.3896   2.4262   2.4369
     2.6441   2.6865   2.8977   3.0433   3.2736   3.4244   4.0633   4.0779

          k = 0.6747 0.5843 0.1638 (  8416 PWs)   bands (ev):

   -33.6398 -33.6393 -16.4980 -16.4125 -15.0326 -14.9644 -14.7802 -14.6779
   -14.6569 -14.6133 -13.4074 -13.3879 -13.1802 -13.1351  -3.1701  -3.0509
    -1.3655  -1.2377  -1.0920  -1.0731  -0.4645  -0.4623   2.2255   2.3156
     2.6498   2.7126   2.7670   2.8964   3.3033   3.3701   4.1124   4.2144

          k = 0.8433-0.4869-0.2184 (  8411 PWs)   bands (ev):

   -33.6405 -33.6388 -16.5095 -16.3933 -15.0759 -14.8959 -14.8295 -14.7005
   -14.6562 -14.5635 -13.4372 -13.3409 -13.2152 -13.1188  -3.2363  -3.0938
    -1.3597  -1.1888  -1.1334  -1.0924  -0.5383  -0.4558   2.3218   2.4331
     2.6895   2.6998   2.8261   3.0156   3.2288   3.4359   4.0398   4.1480

          k =-0.0000 0.0000 0.4913 (  8394 PWs)   bands (ev):

   -33.6414 -33.6382 -16.4488 -16.4428 -14.9395 -14.9395 -14.8656 -14.8656
   -14.5817 -14.5482 -13.3309 -13.3309 -13.2099 -13.2099  -3.3057  -3.2665
    -1.2437  -1.2437  -1.1945  -1.1945  -0.6854  -0.3504   2.5579   2.5579
     2.6160   2.6160   3.2413   3.2413   3.4179   3.4179   3.8781   3.9772

          k = 1.0120 0.5843 0.1638 (  8390 PWs)   bands (ev):

   -33.6402 -33.6393 -16.4541 -16.4430 -14.9946 -14.9380 -14.8524 -14.7892
   -14.5948 -14.5668 -13.3657 -13.2977 -13.2475 -13.1769  -3.2667  -3.2372
    -1.2653  -1.2084  -1.1961  -1.1735  -0.5600  -0.4632   2.5154   2.5507
     2.6132   2.6226   3.0949   3.2084   3.3353   3.3897   3.9665   4.0017

     highest occupied level (ev):     4.3351

!    total energy              =    -367.40167209 Ry
     Harris-Foulkes estimate   =    -367.40167209 Ry
     estimated scf accuracy    <          1.3E-09 Ry

     The total energy is the sum of the following terms:

     one-electron contribution =    -139.44342786 Ry
     hartree contribution      =      99.26497077 Ry
     xc contribution           =     -74.93736941 Ry
     ewald contribution        =    -252.28584560 Ry

     convergence has been achieved in  10 iterations

     Forces acting on atoms (cartesian axes, Ry/au):

     atom    1 type  1   force =     0.00000000    0.00000000    0.00000000
     atom    2 type  1   force =     0.00000000    0.00000000    0.00000000
     atom    3 type  2   force =    -0.00000000    0.00000000   -0.00000000
     atom    4 type  2   force =     0.00000000   -0.00000000   -0.00000000
     atom    5 type  3   force =    -0.04534072    0.07853244    0.00000000
     atom    6 type  3   force =     0.09068145   -0.00000000   -0.00000000
     atom    7 type  3   force =    -0.04534072   -0.07853244   -0.00000000
     atom    8 type  3   force =    -0.09068145    0.00000000    0.00000000
     atom    9 type  3   force =     0.04534072    0.07853244    0.00000000
     atom   10 type  3   force =     0.04534072   -0.07853244   -0.00000000

     Total force =     0.222123     Total SCF correction =     0.000071


     Computing stress (Cartesian axis) and pressure

          total   stress  (Ry/bohr**3)                   (kbar)     P=  -76.08
  -0.00088375  -0.00000000   0.00000000       -130.00     -0.00      0.00
  -0.00000000  -0.00088375  -0.00000000         -0.00   -130.00     -0.00
  -0.00000000  -0.00000000   0.00021592         -0.00     -0.00     31.76


     BFGS Geometry Optimization

     number of scf cycles    =   1
     number of bfgs steps    =   0

     energy   new            =    -367.4016720869 Ry

     new trust radius        =       0.0906814500 bohr
     new conv_thr            =       0.0000000100 Ry


ATOMIC_POSITIONS (crystal)
Ca       0.500000000   0.500000000   0.500000000
Ca       0.000000000   0.000000000   0.000000000
C        0.250000000   0.250000000   0.250000000
C        0.750000000   0.750000000   0.750000000
O        0.497811466   1.002188534   0.250000000
O        1.002188534   0.250000000   0.497811466
O        0.250000000   0.497811466   1.002188534
O       -0.002188534   0.750000000   0.502188534
O        0.750000000   0.502188534  -0.002188534
O        0.502188534  -0.002188534   0.750000000



     Writing output data file CCO_rand5.save/
     NEW-OLD atomic charge density approx. for the potential

     Check: negative core charge=   -0.000003

     total cpu time spent up to now is      172.2 secs

     Self-consistent Calculation

     iteration #  1     ecut=    70.00 Ry     beta= 0.70
     CG style diagonalization
     c_bands:  2 eigenvalues not converged
     c_bands:  2 eigenvalues not converged
     c_bands:  1 eigenvalues not converged
     c_bands:  4 eigenvalues not converged
     c_bands:  4 eigenvalues not converged
     c_bands:  5 eigenvalues not converged
     c_bands:  5 eigenvalues not converged
     c_bands:  2 eigenvalues not converged
     c_bands:  2 eigenvalues not converged
     c_bands:  5 eigenvalues not converged
     c_bands:  4 eigenvalues not converged
     c_bands:  4 eigenvalues not converged
     c_bands:  1 eigenvalues not converged
     c_bands:  5 eigenvalues not converged
     c_bands:  5 eigenvalues not converged
     c_bands:  5 eigenvalues not converged
     c_bands:  2 eigenvalues not converged
     c_bands:  5 eigenvalues not converged
     c_bands:  5 eigenvalues not converged
     c_bands:  3 eigenvalues not converged
     ethr =  1.00E-06,  avg # of iterations = 14.6

     total cpu time spent up to now is      231.5 secs

     total energy              =    -367.41115330 Ry
     Harris-Foulkes estimate   =    -367.43262116 Ry
     estimated scf accuracy    <       0.02926796 Ry

     iteration #  2     ecut=    70.00 Ry     beta= 0.70
     CG style diagonalization
     ethr =  4.57E-05,  avg # of iterations =  4.0

     total cpu time spent up to now is      248.0 secs

     total energy              =    -367.41899884 Ry
     Harris-Foulkes estimate   =    -367.42696178 Ry
     estimated scf accuracy    <       0.01445925 Ry

     iteration #  3     ecut=    70.00 Ry     beta= 0.70
     CG style diagonalization
     ethr =  2.26E-05,  avg # of iterations =  3.6

     total cpu time spent up to now is      262.6 secs

     total energy              =    -367.42249740 Ry
     Harris-Foulkes estimate   =    -367.42264989 Ry
     estimated scf accuracy    <       0.00032635 Ry

     iteration #  4     ecut=    70.00 Ry     beta= 0.70
     CG style diagonalization
     ethr =  5.10E-07,  avg # of iterations =  4.1

     total cpu time spent up to now is      279.6 secs

     total energy              =    -367.42272052 Ry
     Harris-Foulkes estimate   =    -367.42276313 Ry
     estimated scf accuracy    <       0.00011289 Ry

     iteration #  5     ecut=    70.00 Ry     beta= 0.70
     CG style diagonalization
     ethr =  1.76E-07,  avg # of iterations =  3.5

     total cpu time spent up to now is      294.4 secs

     total energy              =    -367.42273511 Ry
     Harris-Foulkes estimate   =    -367.42273771 Ry
     estimated scf accuracy    <       0.00000463 Ry

     iteration #  6     ecut=    70.00 Ry     beta= 0.70
     CG style diagonalization
     ethr =  7.23E-09,  avg # of iterations =  4.2

     total cpu time spent up to now is      311.5 secs

     total energy              =    -367.42273682 Ry
     Harris-Foulkes estimate   =    -367.42273720 Ry
     estimated scf accuracy    <       0.00000068 Ry

     iteration #  7     ecut=    70.00 Ry     beta= 0.70
     CG style diagonalization
     ethr =  1.06E-09,  avg # of iterations =  4.1

     total cpu time spent up to now is      328.2 secs

     total energy              =    -367.42273706 Ry
     Harris-Foulkes estimate   =    -367.42273709 Ry
     estimated scf accuracy    <       0.00000006 Ry

     iteration #  8     ecut=    70.00 Ry     beta= 0.70
     CG style diagonalization
     ethr =  9.71E-11,  avg # of iterations =  4.0

     total cpu time spent up to now is      344.5 secs

     End of self-consistent calculation

          k = 0.0000 0.0000 0.0000 (  8493 PWs)   bands (ev):

   -33.8006 -33.7871 -17.0325 -16.9569 -15.1544 -15.1544 -14.8352 -14.8352
   -14.7923 -14.7262 -13.8470 -13.8470 -13.3385 -13.3385  -3.1899  -2.9201
    -1.6109  -1.4341  -1.4341  -1.2262  -1.2262  -0.2347   2.4971   2.4971
     2.6955   2.6955   2.9707   2.9707   3.7826   3.7826   3.9698   4.4104

          k =-0.1687-0.0974 0.0546 (  8424 PWs)   bands (ev):

   -33.7999 -33.7877 -17.0458 -16.9448 -15.1527 -15.1001 -14.8964 -14.8336
   -14.8012 -14.7740 -13.8132 -13.7363 -13.4113 -13.3549  -3.1195  -2.9395
    -1.5520  -1.4131  -1.3824  -1.2444  -1.2228  -0.3183   2.5136   2.5443
     2.6680   2.7422   2.8244   2.9065   3.6802   3.6965   4.1042   4.3873

          k =-0.3373-0.1948 0.1092 (  8429 PWs)   bands (ev):

   -33.7979 -33.7895 -17.0572 -16.9363 -15.1440 -15.0361 -15.0215 -14.8815
   -14.7779 -14.7505 -13.7340 -13.5884 -13.5444 -13.4061  -2.9779  -2.9497
    -1.5086  -1.3640  -1.2471  -1.2449  -1.1780  -0.4877   2.4528   2.4708
     2.6058   2.6121   2.8545   2.9171   3.4966   3.5173   4.3097   4.3506

          k =-0.5060-0.2921 0.1638 (  8443 PWs)   bands (ev):

   -33.7951 -33.7921 -17.0291 -16.9716 -15.0871 -15.0515 -15.0384 -14.9714
   -14.7552 -14.7237 -13.6424 -13.5663 -13.5576 -13.4940  -2.9113  -2.8940
    -1.5006  -1.4185  -1.2250  -1.2008  -0.9123  -0.6696   2.2576   2.3244
     2.5461   2.5778   2.9687   3.0232   3.3557   3.3646   4.3640   4.3959

          k =-0.1687 0.0974 0.1092 (  8422 PWs)   bands (ev):

   -33.7997 -33.7879 -17.0470 -16.9444 -15.1256 -15.1240 -14.8764 -14.8379
   -14.8026 -14.7993 -13.7695 -13.7593 -13.3967 -13.3814  -3.1156  -2.9530
    -1.5215  -1.4039  -1.4010  -1.2487  -1.2100  -0.3353   2.5241   2.5335
     2.6596   2.7094   2.8793   2.9155   3.6189   3.7321   4.1053   4.3752

          k =-0.3373-0.0000 0.1638 (  8435 PWs)   bands (ev):

   -33.7983 -33.7892 -17.0593 -16.9345 -15.1314 -15.0986 -14.9233 -14.8767
   -14.7935 -14.7811 -13.7206 -13.6652 -13.4786 -13.4110  -3.0076  -2.9700
    -1.4755  -1.3767  -1.3345  -1.2014  -1.1879  -0.4659   2.4561   2.5483
     2.5967   2.6681   2.7954   2.9548   3.4426   3.6255   4.2687   4.3424

          k =-0.5060-0.0974 0.2184 (  8437 PWs)   bands (ev):

   -33.7959 -33.7913 -17.0410 -16.9600 -15.1318 -15.0792 -14.9680 -14.9271
   -14.7742 -14.7331 -13.6834 -13.6368 -13.4977 -13.4534  -2.9263  -2.9146
    -1.4734  -1.4025  -1.2890  -1.1847  -0.9668  -0.6129   2.2881   2.3991
     2.5503   2.5711   2.8773   3.0108   3.3226   3.4807   4.3596   4.3896

          k = 0.5060 0.4869-0.1092 (  8435 PWs)   bands (ev):

   -33.7939 -33.7932 -17.0207 -16.9835 -15.1187 -15.0607 -15.0174 -14.9302
   -14.7575 -14.7338 -13.6811 -13.6008 -13.5240 -13.4626  -2.9130  -2.8577
    -1.5089  -1.4117  -1.2415  -1.1796  -0.8042  -0.7369   2.2136   2.2837
     2.5124   2.5769   2.9137   2.9952   3.3584   3.3998   4.3761   4.4304

          k = 0.3373 0.3895-0.0546 (  8440 PWs)   bands (ev):

   -33.7966 -33.7906 -17.0647 -16.9307 -15.1609 -15.0740 -15.0042 -14.8707
   -14.7904 -14.7116 -13.7243 -13.6280 -13.4816 -13.4448  -2.9550  -2.8762
    -1.5342  -1.3276  -1.2594  -1.1963  -1.0608  -0.5743   2.2459   2.4595
     2.5308   2.5828   2.8128   3.0332   3.3780   3.4895   4.3331   4.4241

          k = 0.1687 0.2921 0.0000 (  8415 PWs)   bands (ev):

   -33.7988 -33.7887 -17.0648 -16.9261 -15.1219 -15.1141 -14.9168 -14.8768
   -14.8081 -14.7692 -13.7307 -13.6727 -13.4712 -13.4017  -3.0019  -2.9591
    -1.5132  -1.3583  -1.3286  -1.2383  -1.2009  -0.4314   2.4555   2.5615
     2.5958   2.7262   2.7270   2.9051   3.5189   3.6239   4.2704   4.3544

          k =-0.3373 0.1948 0.2184 (  8447 PWs)   bands (ev):

   -33.7977 -33.7897 -17.0788 -16.9152 -15.1537 -15.1157 -14.8854 -14.8337
   -14.8170 -14.8034 -13.7047 -13.6588 -13.4728 -13.4381  -3.0125  -2.9295
    -1.4697  -1.3577  -1.3509  -1.1594  -1.1188  -0.5412   2.3441   2.5384
     2.5618   2.7095   2.7716   3.0771   3.2667   3.6374   4.2882   4.3454

          k =-0.5060 0.0974 0.2730 (  8435 PWs)   bands (ev):

   -33.7962 -33.7910 -17.0770 -16.9222 -15.1873 -15.1063 -14.9185 -14.8452
   -14.7990 -14.7347 -13.7691 -13.6188 -13.4952 -13.4121  -2.9976  -2.8443
    -1.4858  -1.3774  -1.3174  -1.1340  -0.9664  -0.6297   2.1992   2.4364
     2.5495   2.6766   2.7990   3.0103   3.2544   3.5579   4.2843   4.4497

          k = 0.5060 0.6816-0.0546 (  8436 PWs)   bands (ev):

   -33.7943 -33.7928 -17.0293 -16.9797 -15.1511 -15.0556 -14.9654 -14.8918
   -14.7917 -14.7488 -13.7270 -13.6159 -13.5045 -13.4311  -2.9052  -2.8524
    -1.4747  -1.4198  -1.3146  -1.1347  -0.7816  -0.7132   2.1686   2.2596
     2.5587   2.6075   2.8347   2.8689   3.3660   3.4782   4.3835   4.4501

          k = 0.3373 0.5843 0.0000 (  8455 PWs)   bands (ev):

   -33.7948 -33.7923 -17.0419 -16.9627 -15.1484 -15.0798 -15.0103 -14.8306
   -14.8054 -14.7287 -13.7425 -13.6192 -13.4978 -13.4247  -2.9206  -2.8338
    -1.5407  -1.3204  -1.2992  -1.1680  -0.8720  -0.6576   2.1586   2.3036
     2.5106   2.5759   2.8244   2.9482   3.4189   3.4325   4.3708   4.4710

          k =-0.5060 0.2921 0.3276 (  8437 PWs)   bands (ev):

   -33.7960 -33.7911 -17.1037 -16.8906 -15.2254 -15.1908 -14.8221 -14.8068
   -14.8067 -14.6914 -13.8297 -13.7158 -13.4160 -13.3883  -3.0505  -2.7516
    -1.5467  -1.3551  -1.2676  -1.0976  -0.9312  -0.6886   2.0952   2.3978
     2.5970   2.7472   2.8046   2.9001   3.2808   3.5519   4.2046   4.5243

          k = 0.5060 0.8764 0.0000 (  8425 PWs)   bands (ev):

   -33.7953 -33.7918 -17.0850 -16.9169 -15.1889 -15.1720 -14.8480 -14.8376
   -14.8000 -14.7136 -13.8165 -13.6740 -13.4449 -13.3932  -3.0072  -2.7595
    -1.5138  -1.4026  -1.2863  -1.0978  -0.8533  -0.6949   2.0780   2.3357
     2.6386   2.6937   2.8013   2.8023   3.3434   3.5165   4.2561   4.5275

          k =-0.0000-0.0000 0.1638 (  8400 PWs)   bands (ev):

   -33.7999 -33.7878 -17.0297 -16.9616 -15.1431 -15.1431 -14.8587 -14.8587
   -14.7877 -14.7282 -13.8143 -13.8143 -13.3593 -13.3593  -3.1897  -2.9549
    -1.5224  -1.4224  -1.4224  -1.2353  -1.2353  -0.2888   2.5068   2.5068
     2.6859   2.6859   3.0041   3.0041   3.7350   3.7350   3.9863   4.3797

          k =-0.1687-0.0974 0.2184 (  8420 PWs)   bands (ev):

   -33.7988 -33.7888 -17.0366 -16.9574 -15.1573 -15.0628 -14.9652 -14.8204
   -14.8042 -14.7558 -13.8008 -13.6812 -13.4562 -13.3659  -3.1270  -2.9737
    -1.4695  -1.4052  -1.3210  -1.2525  -1.2348  -0.3939   2.5123   2.5588
     2.6500   2.7077   2.8499   3.0181   3.5800   3.6563   4.1135   4.3532

          k =-0.3373-0.1948 0.2730 (  8428 PWs)   bands (ev):

   -33.7967 -33.7907 -17.0298 -16.9700 -15.1386 -15.0649 -14.9957 -14.8741
   -14.7667 -14.7595 -13.7247 -13.5771 -13.5682 -13.4080  -3.0165  -2.9365
    -1.4416  -1.4000  -1.2662  -1.2602  -1.0564  -0.5566   2.4318   2.5142
     2.5800   2.6011   2.8364   3.0453   3.3739   3.4902   4.2824   4.3570

          k = 0.6747 0.3895-0.0546 (  8426 PWs)   bands (ev):

   -33.7940 -33.7932 -17.0202 -16.9835 -15.1363 -15.0509 -15.0009 -14.9386
   -14.7563 -14.7308 -13.6506 -13.6308 -13.5338 -13.4556  -2.9629  -2.8476
    -1.5072  -1.3933  -1.2542  -1.1909  -0.8207  -0.7390   2.2367   2.3404
     2.5205   2.6217   2.9067   3.1356   3.2350   3.3899   4.3291   4.4219

          k = 0.5060 0.2921 0.0000 (  8453 PWs)   bands (ev):

   -33.7959 -33.7913 -17.0685 -16.9276 -15.1496 -15.1229 -14.9619 -14.9003
   -14.7792 -14.6958 -13.7317 -13.5976 -13.5042 -13.4488  -2.9736  -2.8264
    -1.5563  -1.3207  -1.2520  -1.1797  -0.9838  -0.6374   2.1765   2.3943
     2.5053   2.6536   2.8386   3.1448   3.2552   3.4577   4.3007   4.4561

          k = 0.3373 0.1948 0.0546 (  8439 PWs)   bands (ev):

   -33.7982 -33.7891 -17.0745 -16.9164 -15.1417 -15.0994 -14.9510 -14.8569
   -14.7997 -14.7670 -13.7296 -13.6191 -13.5078 -13.4148  -2.9767  -2.9460
    -1.5092  -1.3559  -1.3081  -1.1981  -1.1816  -0.4847   2.3850   2.4902
     2.6645   2.6697   2.7046   2.9990   3.4181   3.6115   4.3256   4.3309

          k =-0.1687 0.0974 0.2730 (  8429 PWs)   bands (ev):

   -33.7983 -33.7893 -17.0398 -16.9559 -15.1352 -15.0742 -14.9435 -14.8523
   -14.7886 -14.7879 -13.7425 -13.6873 -13.4427 -13.4136  -3.1145  -3.0062
    -1.4271  -1.3714  -1.3603  -1.2304  -1.2183  -0.4430   2.5320   2.5359
     2.6387   2.6709   2.9350   3.0497   3.4824   3.6777   4.1236   4.3220

          k =-0.3373 0.0000 0.3276 (  8432 PWs)   bands (ev):

   -33.7968 -33.7906 -17.0433 -16.9571 -15.1323 -15.0871 -14.9370 -14.8580
   -14.8089 -14.7764 -13.6944 -13.6482 -13.4939 -13.4367  -3.0193  -2.9946
    -1.3941  -1.3867  -1.3545  -1.2040  -1.0717  -0.5670   2.4496   2.5028
     2.6019   2.6942   2.8275   3.0813   3.2967   3.5731   4.2661   4.3140

          k = 0.6747 0.5843 0.0000 (  8440 PWs)   bands (ev):

   -33.7947 -33.7925 -17.0098 -16.9974 -15.1343 -15.0667 -14.9674 -14.8943
   -14.7769 -14.7660 -13.6911 -13.6058 -13.5362 -13.4395  -2.9550  -2.8982
    -1.4654  -1.3603  -1.3401  -1.1783  -0.8592  -0.6890   2.2991   2.3390
     2.5686   2.6436   2.8465   3.0249   3.2835   3.4445   4.3477   4.3854

          k = 0.5060 0.4869 0.0546 (  8434 PWs)   bands (ev):

   -33.7947 -33.7924 -17.0539 -16.9495 -15.1601 -15.0988 -14.9832 -14.8487
   -14.7852 -14.7219 -13.7528 -13.5941 -13.5241 -13.4185  -2.9619  -2.8072
    -1.5502  -1.3246  -1.2726  -1.1758  -0.8530  -0.6946   2.1444   2.3299
     2.4979   2.6475   2.8437   3.0037   3.3350   3.4337   4.3207   4.4791

          k = 0.3373 0.3895 0.1092 (  8439 PWs)   bands (ev):

   -33.7967 -33.7905 -17.0775 -16.9170 -15.1840 -15.0914 -14.9763 -14.8293
   -14.8084 -14.7120 -13.7655 -13.6027 -13.5069 -13.4146  -2.9806  -2.8511
    -1.5313  -1.3357  -1.2631  -1.1841  -1.0477  -0.5825   2.2127   2.4851
     2.5076   2.6283   2.7765   3.0626   3.3133   3.5394   4.3046   4.4454

          k =-0.3373 0.1948 0.3821 (  8432 PWs)   bands (ev):

   -33.7963 -33.7910 -17.0685 -16.9320 -15.1847 -15.0723 -14.8928 -14.8506
   -14.8144 -14.7805 -13.6946 -13.6659 -13.4753 -13.4453  -3.0438  -2.9266
    -1.4707  -1.3369  -1.3169  -1.1635  -1.0094  -0.6431   2.3294   2.4867
     2.6176   2.7224   2.8536   3.0878   3.1651   3.5826   4.2560   4.3528

          k = 0.6747 0.7790 0.0546 (  8423 PWs)   bands (ev):

   -33.7952 -33.7920 -17.0620 -16.9437 -15.1730 -15.1045 -14.8821 -14.8517
   -14.8056 -14.7716 -13.7315 -13.6566 -13.4660 -13.4370  -3.0005  -2.8537
    -1.4784  -1.3868  -1.2949  -1.1466  -0.8751  -0.6955   2.2090   2.3776
     2.6406   2.7118   2.8186   2.8906   3.2799   3.5078   4.2848   4.4370

          k = 0.5060 0.6816 0.1092 (  8439 PWs)   bands (ev):

   -33.7938 -33.7933 -17.0146 -16.9969 -15.1268 -15.0855 -14.9285 -14.8902
   -14.8015 -14.7731 -13.6950 -13.6517 -13.4785 -13.4497  -2.8889  -2.8703
    -1.4801  -1.4320  -1.2689  -1.1642  -0.7481  -0.7350   2.1872   2.2197
     2.5976   2.6346   2.8171   2.8302   3.3900   3.4472   4.4030   4.4276

          k = 0.3373 0.5843 0.1638 (  8442 PWs)   bands (ev):

   -33.7947 -33.7924 -17.0387 -16.9673 -15.1536 -15.0672 -14.9935 -14.8694
   -14.7839 -14.7359 -13.7407 -13.6118 -13.5054 -13.4247  -2.9165  -2.8389
    -1.5063  -1.4122  -1.2268  -1.1940  -0.8369  -0.6757   2.1606   2.2916
     2.5307   2.5764   2.8299   2.9223   3.3911   3.4613   4.3733   4.4655

          k = 0.6747-0.3895-0.2730 (  8426 PWs)   bands (ev):

   -33.7954 -33.7918 -17.0927 -16.9058 -15.2279 -15.1649 -14.8349 -14.8184
   -14.7986 -14.7015 -13.7985 -13.7314 -13.4073 -13.4052  -3.0492  -2.7589
    -1.5528  -1.3470  -1.2383  -1.1335  -0.8812  -0.7202   2.1090   2.3794
     2.6428   2.7464   2.7754   2.9004   3.2902   3.5064   4.2143   4.5132

          k = 0.5060-0.4869-0.2184 (  8440 PWs)   bands (ev):

   -33.7952 -33.7919 -17.0769 -16.9255 -15.1828 -15.1520 -14.9062 -14.8103
   -14.8019 -14.7186 -13.8005 -13.6508 -13.4681 -13.3970  -2.9953  -2.7720
    -1.5372  -1.3794  -1.2408  -1.1519  -0.8579  -0.6884   2.0954   2.3381
     2.5609   2.6905   2.8062   2.8985   3.3405   3.4866   4.2747   4.5145

          k = 0.5060-0.2921-0.1638 (  8445 PWs)   bands (ev):

   -33.7962 -33.7909 -17.0949 -16.8983 -15.1890 -15.1861 -14.8780 -14.8377
   -14.7977 -14.6839 -13.8038 -13.6647 -13.4504 -13.4033  -3.0232  -2.7753
    -1.5602  -1.3358  -1.2294  -1.1613  -0.9754  -0.6501   2.1188   2.4279
     2.5035   2.7141   2.7942   3.0858   3.2350   3.5280   4.2395   4.5029

          k =-0.0000-0.0000 0.3276 (  8400 PWs)   bands (ev):

   -33.7981 -33.7897 -17.0213 -16.9742 -15.1097 -15.1097 -14.9174 -14.9174
   -14.7756 -14.7345 -13.7295 -13.7295 -13.4191 -13.4191  -3.1835  -3.0318
    -1.3904  -1.3904  -1.2937  -1.2613  -1.2613  -0.4475   2.5344   2.5344
     2.6588   2.6588   3.1011   3.1011   3.6061   3.6061   4.0339   4.3006

          k =-0.1687-0.0974 0.3821 (  8407 PWs)   bands (ev):

   -33.7968 -33.7908 -17.0205 -16.9786 -15.1381 -15.0284 -15.0176 -14.8605
   -14.7876 -14.7504 -13.7365 -13.6088 -13.5242 -13.4117  -3.1281  -3.0296
    -1.3842  -1.3693  -1.2915  -1.2782  -1.1179  -0.5582   2.5204   2.5678
     2.6296   2.6550   2.9576   3.1806   3.4103   3.5530   4.1380   4.2895

          k = 0.8433 0.4869 0.0546 (  8435 PWs)   bands (ev):

   -33.7949 -33.7924 -17.0089 -16.9961 -15.1657 -15.0346 -14.9984 -14.8377
   -14.8001 -14.7514 -13.7196 -13.5906 -13.5586 -13.4150  -3.0471  -2.9321
    -1.4449  -1.3372  -1.2853  -1.2592  -0.9148  -0.6857   2.3764   2.4802
     2.6450   2.6821   2.7765   3.2004   3.2341   3.4247   4.2557   4.3552

          k = 0.6747 0.3895 0.1092 (  8424 PWs)   bands (ev):

   -33.7943 -33.7928 -17.0633 -16.9395 -15.1967 -15.1151 -14.9109 -14.8604
   -14.7833 -14.7119 -13.7237 -13.7054 -13.4582 -13.4193  -3.0182  -2.7936
    -1.5505  -1.3168  -1.2464  -1.1944  -0.8181  -0.7551   2.1587   2.3791
     2.5427   2.7010   2.8270   3.0619   3.2609   3.4234   4.2626   4.4746

          k =-0.1687 0.0974 0.4367 (  8414 PWs)   bands (ev):

   -33.7961 -33.7915 -17.0245 -16.9759 -15.1265 -15.0149 -15.0107 -14.9006
   -14.7710 -14.7704 -13.6905 -13.5911 -13.5295 -13.4569  -3.1056  -3.0668
    -1.3932  -1.3341  -1.3195  -1.2480  -1.0526  -0.6320   2.5358   2.5459
     2.6302   2.6367   3.0509   3.2128   3.3032   3.5474   4.1630   4.2503

          k = 0.8433 0.6816 0.1092 (  8407 PWs)   bands (ev):

   -33.7948 -33.7926 -17.0182 -16.9875 -15.1194 -15.0983 -14.9197 -14.8790
   -14.8000 -14.7790 -13.6628 -13.6423 -13.4958 -13.4708  -3.0253  -3.0168
    -1.3932  -1.3788  -1.2947  -1.2328  -0.9051  -0.7229   2.4440   2.4593
     2.6455   2.6877   2.9192   3.0663   3.3022   3.4543   4.2696   4.2858

          k = 0.6747 0.5843 0.1638 (  8416 PWs)   bands (ev):

   -33.7939 -33.7933 -17.0339 -16.9753 -15.1516 -15.0860 -14.9296 -14.8310
   -14.8042 -14.7924 -13.6846 -13.6660 -13.4872 -13.4434  -2.9860  -2.8732
    -1.4883  -1.3758  -1.2351  -1.2192  -0.7818  -0.7690   2.2452   2.3454
     2.6513   2.7032   2.7942   2.9284   3.3443   3.4088   4.3087   4.4127

          k = 0.8433-0.4869-0.2184 (  8411 PWs)   bands (ev):

   -33.7944 -33.7929 -17.0440 -16.9613 -15.1879 -15.0274 -14.9683 -14.8367
   -14.8072 -14.7582 -13.7150 -13.6239 -13.5201 -13.4265  -3.0574  -2.9294
    -1.4710  -1.3175  -1.2731  -1.2233  -0.8514  -0.7730   2.3398   2.4621
     2.6895   2.6955   2.8494   3.0422   3.2654   3.4621   4.2438   4.3544

          k =-0.0000 0.0000 0.4913 (  8394 PWs)   bands (ev):

   -33.7953 -33.7924 -17.0079 -16.9910 -15.0567 -15.0567 -14.9892 -14.9892
   -14.7600 -14.7454 -13.6198 -13.6198 -13.5102 -13.5102  -3.1592  -3.1076
    -1.3465  -1.3465  -1.3005  -1.3005  -0.9956  -0.6951   2.5745   2.5745
     2.6191   2.6191   3.2509   3.2509   3.4309   3.4309   4.1082   4.2018

          k = 1.0120 0.5843 0.1638 (  8390 PWs)   bands (ev):

   -33.7942 -33.7934 -17.0028 -16.9991 -15.1122 -15.0609 -14.9746 -14.9182
   -14.7725 -14.7566 -13.6530 -13.5926 -13.5414 -13.4785  -3.1101  -3.0780
    -1.3702  -1.3218  -1.3094  -1.2879  -0.8756  -0.7924   2.5325   2.5612
     2.6212   2.6305   3.1079   3.2282   3.3520   3.4084   4.1844   4.2207

     highest occupied level (ev):     4.5275

!    total energy              =    -367.42273708 Ry
     Harris-Foulkes estimate   =    -367.42273708 Ry
     estimated scf accuracy    <          2.7E-09 Ry

     The total energy is the sum of the following terms:

     one-electron contribution =    -145.93272102 Ry
     hartree contribution      =     102.45396979 Ry
     xc contribution           =     -75.26841227 Ry
     ewald contribution        =    -248.67557357 Ry

     convergence has been achieved in   8 iterations

     Forces acting on atoms (cartesian axes, Ry/au):

     atom    1 type  1   force =    -0.00000000    0.00000000    0.00000000
     atom    2 type  1   force =     0.00000000   -0.00000000    0.00000000
     atom    3 type  2   force =     0.00000000   -0.00000000   -0.00000000
     atom    4 type  2   force =    -0.00000000   -0.00000000    0.00000000
     atom    5 type  3   force =     0.00950255   -0.01645890   -0.00000000
     atom    6 type  3   force =    -0.01900511    0.00000000   -0.00000000
     atom    7 type  3   force =     0.00950255    0.01645890    0.00000000
     atom    8 type  3   force =     0.01900511   -0.00000000    0.00000000
     atom    9 type  3   force =    -0.00950255   -0.01645890   -0.00000000
     atom   10 type  3   force =    -0.00950255    0.01645890    0.00000000

     Total force =     0.046553     Total SCF correction =     0.000112


     Computing stress (Cartesian axis) and pressure

          total   stress  (Ry/bohr**3)                   (kbar)     P=   -0.74
  -0.00006929  -0.00000000   0.00000000        -10.19     -0.00      0.00
  -0.00000000  -0.00006929  -0.00000000         -0.00    -10.19     -0.00
   0.00000000  -0.00000000   0.00012339          0.00     -0.00     18.15


     number of scf cycles    =   2
     number of bfgs steps    =   1

     energy   old            =    -367.4016720869 Ry
     energy   new            =    -367.4227370753 Ry

     CASE: energy  _new < energy  _old

     new trust radius        =       0.0157121403 bohr
     new conv_thr            =       0.0000000019 Ry


ATOMIC_POSITIONS (crystal)
Ca       0.500000000   0.500000000   0.500000000
Ca       0.000000000  -0.000000000   0.000000000
C        0.250000000   0.250000000   0.250000000
C        0.750000000   0.750000000   0.750000000
O        0.499406477   1.000593523   0.250000000
O        1.000593523   0.250000000   0.499406477
O        0.250000000   0.499406477   1.000593523
O       -0.000593523   0.750000000   0.500593523
O        0.750000000   0.500593523  -0.000593523
O        0.500593523  -0.000593523   0.750000000



     Writing output data file CCO_rand5.save/
     NEW-OLD atomic charge density approx. for the potential

     Check: negative core charge=   -0.000003

     total cpu time spent up to now is      346.4 secs

     Self-consistent Calculation

     iteration #  1     ecut=    70.00 Ry     beta= 0.70
     CG style diagonalization
     c_bands:  2 eigenvalues not converged
     c_bands:  1 eigenvalues not converged
     c_bands:  2 eigenvalues not converged
     c_bands:  2 eigenvalues not converged
     c_bands:  1 eigenvalues not converged
     ethr =  1.00E-06,  avg # of iterations =  6.1

     total cpu time spent up to now is      372.3 secs

     total energy              =    -367.42314323 Ry
     Harris-Foulkes estimate   =    -367.42380741 Ry
     estimated scf accuracy    <       0.00089939 Ry

     iteration #  2     ecut=    70.00 Ry     beta= 0.70
     CG style diagonalization
     ethr =  1.41E-06,  avg # of iterations =  4.0

     total cpu time spent up to now is      388.7 secs

     total energy              =    -367.42340176 Ry
     Harris-Foulkes estimate   =    -367.42362623 Ry
     estimated scf accuracy    <       0.00040135 Ry

     iteration #  3     ecut=    70.00 Ry     beta= 0.70
     CG style diagonalization
     ethr =  6.27E-07,  avg # of iterations =  3.6

     total cpu time spent up to now is      403.3 secs

     total energy              =    -367.42349934 Ry
     Harris-Foulkes estimate   =    -367.42350239 Ry
     estimated scf accuracy    <       0.00000698 Ry

     iteration #  4     ecut=    70.00 Ry     beta= 0.70
     CG style diagonalization
     ethr =  1.09E-08,  avg # of iterations =  4.3

     total cpu time spent up to now is      421.1 secs

     total energy              =    -367.42350501 Ry
     Harris-Foulkes estimate   =    -367.42350708 Ry
     estimated scf accuracy    <       0.00000526 Ry

     iteration #  5     ecut=    70.00 Ry     beta= 0.70
     CG style diagonalization
     ethr =  8.22E-09,  avg # of iterations =  3.5

     total cpu time spent up to now is      435.5 secs

     total energy              =    -367.42350558 Ry
     Harris-Foulkes estimate   =    -367.42350572 Ry
     estimated scf accuracy    <       0.00000027 Ry

     iteration #  6     ecut=    70.00 Ry     beta= 0.70
     CG style diagonalization
     ethr =  4.17E-10,  avg # of iterations =  4.0

     total cpu time spent up to now is      452.0 secs

     total energy              =    -367.42350566 Ry
     Harris-Foulkes estimate   =    -367.42350566 Ry
     estimated scf accuracy    <       0.00000002 Ry

     iteration #  7     ecut=    70.00 Ry     beta= 0.70
     CG style diagonalization
     ethr =  2.99E-11,  avg # of iterations =  4.0

     total cpu time spent up to now is      468.6 secs

     total energy              =    -367.42350567 Ry
     Harris-Foulkes estimate   =    -367.42350567 Ry
     estimated scf accuracy    <          5.5E-09 Ry

     iteration #  8     ecut=    70.00 Ry     beta= 0.70
     CG style diagonalization
     ethr =  8.53E-12,  avg # of iterations =  3.9

     total cpu time spent up to now is      484.6 secs

     End of self-consistent calculation

          k = 0.0000 0.0000 0.0000 (  8493 PWs)   bands (ev):

   -33.7740 -33.7604 -16.9281 -16.8587 -15.1351 -15.1351 -14.8115 -14.8115
   -14.7674 -14.6892 -13.7980 -13.7980 -13.2813 -13.2813  -3.2132  -2.9564
    -1.5581  -1.4175  -1.4175  -1.2073  -1.2073  -0.1582   2.4904   2.4904
     2.6960   2.6960   2.9718   2.9718   3.7804   3.7804   3.9259   4.3718

          k =-0.1687-0.0974 0.0546 (  8424 PWs)   bands (ev):

   -33.7732 -33.7610 -16.9431 -16.8452 -15.1332 -15.0795 -14.8712 -14.8090
   -14.7762 -14.7414 -13.7637 -13.6857 -13.3551 -13.2982  -3.1435  -2.9757
    -1.5018  -1.3956  -1.3627  -1.2242  -1.2034  -0.2449   2.5096   2.5416
     2.6656   2.7404   2.8251   2.9057   3.6742   3.6930   4.0661   4.3491

          k =-0.3373-0.1948 0.1092 (  8429 PWs)   bands (ev):

   -33.7712 -33.7627 -16.9569 -16.8341 -15.1238 -15.0146 -14.9981 -14.8580
   -14.7480 -14.7215 -13.6833 -13.5357 -13.4903 -13.3508  -3.0043  -2.9854
    -1.4746  -1.3438  -1.2266  -1.2239  -1.1373  -0.4209   2.4513   2.4700
     2.6070   2.6101   2.8476   2.9138   3.4909   3.5116   4.2734   4.3130

          k =-0.5060-0.2921 0.1638 (  8443 PWs)   bands (ev):

   -33.7684 -33.7654 -16.9290 -16.8697 -15.0659 -15.0298 -15.0169 -14.9492
   -14.7246 -14.6922 -13.5901 -13.5135 -13.5043 -13.4406  -2.9453  -2.9244
    -1.4736  -1.3943  -1.2023  -1.1778  -0.8606  -0.6102   2.2556   2.3234
     2.5448   2.5784   2.9616   3.0186   3.3496   3.3577   4.3271   4.3598

          k =-0.1687 0.0974 0.1092 (  8422 PWs)   bands (ev):

   -33.7731 -33.7612 -16.9446 -16.8445 -15.1051 -15.1042 -14.8513 -14.8129
   -14.7745 -14.7702 -13.7198 -13.7088 -13.3403 -13.3250  -3.1396  -2.9886
    -1.4701  -1.3862  -1.3831  -1.2281  -1.1907  -0.2624   2.5198   2.5307
     2.6574   2.7083   2.8788   2.9150   3.6138   3.7289   4.0661   4.3369

          k =-0.3373-0.0000 0.1638 (  8435 PWs)   bands (ev):

   -33.7716 -33.7624 -16.9591 -16.8326 -15.1108 -15.0776 -14.8988 -14.8503
   -14.7662 -14.7535 -13.6697 -13.6137 -13.4233 -13.3555  -3.0331  -3.0053
    -1.4406  -1.3525  -1.3143  -1.1800  -1.1549  -0.3977   2.4545   2.5463
     2.5953   2.6667   2.7926   2.9503   3.4375   3.6204   4.2317   4.3046

          k =-0.5060-0.0974 0.2184 (  8437 PWs)   bands (ev):

   -33.7692 -33.7646 -16.9412 -16.8580 -15.1112 -15.0571 -14.9446 -14.9043
   -14.7447 -14.7027 -13.6324 -13.5842 -13.4440 -13.3987  -2.9607  -2.9436
    -1.4456  -1.3791  -1.2642  -1.1630  -0.9196  -0.5508   2.2858   2.3974
     2.5506   2.5693   2.8718   3.0050   3.3169   3.4742   4.3224   4.3538

          k = 0.5060 0.4869-0.1092 (  8435 PWs)   bands (ev):

   -33.7673 -33.7665 -16.9210 -16.8816 -15.0976 -15.0390 -14.9955 -14.9070
   -14.7281 -14.7018 -13.6301 -13.5484 -13.4707 -13.4081  -2.9460  -2.8896
    -1.4834  -1.3855  -1.2174  -1.1568  -0.7479  -0.6816   2.2118   2.2817
     2.5106   2.5766   2.9074   2.9893   3.3527   3.3930   4.3399   4.3942

          k = 0.3373 0.3895-0.0546 (  8440 PWs)   bands (ev):

   -33.7700 -33.7639 -16.9661 -16.8268 -15.1405 -15.0529 -14.9820 -14.8460
   -14.7632 -14.6795 -13.6732 -13.5758 -13.4276 -13.3898  -2.9905  -2.9045
    -1.5065  -1.3034  -1.2375  -1.1749  -1.0117  -0.5117   2.2440   2.4594
     2.5275   2.5836   2.8053   3.0294   3.3730   3.4829   4.2961   4.3882

          k = 0.1687 0.2921 0.0000 (  8415 PWs)   bands (ev):

   -33.7721 -33.7619 -16.9645 -16.8240 -15.1018 -15.0928 -14.8935 -14.8477
   -14.7837 -14.7403 -13.6803 -13.6210 -13.4157 -13.3460  -3.0272  -2.9955
    -1.4758  -1.3329  -1.3088  -1.2078  -1.1809  -0.3621   2.4545   2.5611
     2.5941   2.7208   2.7260   2.9018   3.5135   3.6190   4.2336   4.3168

          k =-0.3373 0.1948 0.2184 (  8447 PWs)   bands (ev):

   -33.7710 -33.7630 -16.9805 -16.8112 -15.1334 -15.0942 -14.8593 -14.8029
   -14.7929 -14.7788 -13.6543 -13.6074 -13.4178 -13.3821  -3.0476  -2.9554
    -1.4496  -1.3292  -1.3184  -1.1394  -1.0829  -0.4751   2.3415   2.5384
     2.5545   2.7115   2.7681   3.0729   3.2621   3.6327   4.2502   4.3081

          k =-0.5060 0.0974 0.2730 (  8435 PWs)   bands (ev):

   -33.7696 -33.7642 -16.9796 -16.8174 -15.1676 -15.0839 -14.8931 -14.8216
   -14.7732 -14.7032 -13.7196 -13.5671 -13.4408 -13.3560  -3.0326  -2.8725
    -1.4663  -1.3519  -1.2828  -1.1132  -0.9212  -0.5676   2.1960   2.4306
     2.5484   2.6774   2.7946   3.0053   3.2490   3.5521   4.2468   4.4136

          k = 0.5060 0.6816-0.0546 (  8436 PWs)   bands (ev):

   -33.7676 -33.7661 -16.9301 -16.8780 -15.1310 -15.0320 -14.9405 -14.8664
   -14.7652 -14.7191 -13.6774 -13.5645 -13.4500 -13.3755  -2.9388  -2.8839
    -1.4484  -1.3984  -1.2829  -1.1127  -0.7297  -0.6544   2.1652   2.2562
     2.5574   2.6069   2.8287   2.8624   3.3597   3.4721   4.3473   4.4146

          k = 0.3373 0.5843 0.0000 (  8455 PWs)   bands (ev):

   -33.7681 -33.7656 -16.9431 -16.8600 -15.1269 -15.0587 -14.9883 -14.8022
   -14.7812 -14.6964 -13.6923 -13.5673 -13.4441 -13.3693  -2.9549  -2.8648
    -1.5146  -1.2909  -1.2785  -1.1455  -0.8168  -0.6005   2.1564   2.3006
     2.5090   2.5751   2.8175   2.9426   3.4140   3.4253   4.3346   4.4354

          k =-0.5060 0.2921 0.3276 (  8437 PWs)   bands (ev):

   -33.7693 -33.7644 -17.0084 -16.7827 -15.2056 -15.1711 -14.7982 -14.7828
   -14.7818 -14.6553 -13.7813 -13.6656 -13.3605 -13.3315  -3.0859  -2.7802
    -1.5295  -1.3281  -1.2292  -1.0768  -0.8851  -0.6283   2.0917   2.3891
     2.5951   2.7502   2.8009   2.8950   3.2755   3.5465   4.1662   4.4881

          k = 0.5060 0.8764 0.0000 (  8425 PWs)   bands (ev):

   -33.7686 -33.7650 -16.9890 -16.8108 -15.1695 -15.1501 -14.8245 -14.8110
   -14.7759 -14.6796 -13.7682 -13.6233 -13.3896 -13.3365  -3.0422  -2.7894
    -1.4961  -1.3747  -1.2496  -1.0766  -0.8040  -0.6357   2.0743   2.3285
     2.6379   2.6945   2.7953   2.7974   3.3376   3.5107   4.2186   4.4918

          k =-0.0000-0.0000 0.1638 (  8400 PWs)   bands (ev):

   -33.7733 -33.7610 -16.9257 -16.8632 -15.1235 -15.1235 -14.8351 -14.8351
   -14.7621 -14.6918 -13.7648 -13.7648 -13.3025 -13.3025  -3.2131  -2.9890
    -1.4704  -1.4056  -1.4056  -1.2165  -1.2165  -0.2142   2.5006   2.5006
     2.6866   2.6866   3.0044   3.0044   3.7327   3.7327   3.9427   4.3406

          k =-0.1687-0.0974 0.2184 (  8420 PWs)   bands (ev):

   -33.7722 -33.7620 -16.9341 -16.8577 -15.1374 -15.0421 -14.9416 -14.7960
   -14.7782 -14.7223 -13.7508 -13.6302 -13.4007 -13.3095  -3.1513  -3.0072
    -1.4292  -1.3878  -1.2955  -1.2330  -1.2103  -0.3232   2.5079   2.5565
     2.6492   2.7066   2.8489   3.0159   3.5763   3.6510   4.0749   4.3144

          k =-0.3373-0.1948 0.2730 (  8428 PWs)   bands (ev):

   -33.7700 -33.7639 -16.9285 -16.8694 -15.1175 -15.0431 -14.9745 -14.8497
   -14.7389 -14.7274 -13.6735 -13.5246 -13.5145 -13.3529  -3.0438  -2.9700
    -1.4086  -1.3801  -1.2455  -1.2388  -1.0134  -0.4919   2.4293   2.5126
     2.5806   2.6004   2.8321   3.0395   3.3684   3.4839   4.2460   4.3189

          k = 0.6747 0.3895-0.0546 (  8426 PWs)   bands (ev):

   -33.7673 -33.7665 -16.9211 -16.8808 -15.1154 -15.0296 -14.9785 -14.9159
   -14.7277 -14.6973 -13.5990 -13.5792 -13.4798 -13.4013  -2.9947  -2.8800
    -1.4841  -1.3651  -1.2304  -1.1679  -0.7693  -0.6801   2.2346   2.3375
     2.5195   2.6222   2.9017   3.1297   3.2291   3.3822   4.2930   4.3848

          k = 0.5060 0.2921 0.0000 (  8453 PWs)   bands (ev):

   -33.7692 -33.7646 -16.9706 -16.8228 -15.1295 -15.1022 -14.9392 -14.8770
   -14.7516 -14.6621 -13.6812 -13.5455 -13.4503 -13.3937  -3.0087  -2.8557
    -1.5313  -1.2945  -1.2303  -1.1556  -0.9320  -0.5779   2.1740   2.3930
     2.5021   2.6556   2.8318   3.1411   3.2501   3.4502   4.2637   4.4197

          k = 0.3373 0.1948 0.0546 (  8439 PWs)   bands (ev):

   -33.7716 -33.7624 -16.9753 -16.8130 -15.1213 -15.0786 -14.9261 -14.8314
   -14.7729 -14.7385 -13.6792 -13.5669 -13.4530 -13.3590  -3.0129  -2.9719
    -1.4784  -1.3348  -1.2759  -1.1778  -1.1500  -0.4174   2.3829   2.4901
     2.6662   2.6668   2.6975   2.9959   3.4131   3.6063   4.2880   4.2940

          k =-0.1687 0.0974 0.2730 (  8429 PWs)   bands (ev):

   -33.7717 -33.7625 -16.9381 -16.8557 -15.1149 -15.0537 -14.9190 -14.8280
   -14.7615 -14.7568 -13.6916 -13.6366 -13.3871 -13.3577  -3.1388  -3.0387
    -1.3999  -1.3532  -1.3288  -1.1992  -1.1989  -0.3736   2.5296   2.5307
     2.6390   2.6695   2.9328   3.0480   3.4785   3.6745   4.0835   4.2830

          k =-0.3373 0.0000 0.3276 (  8432 PWs)   bands (ev):

   -33.7702 -33.7638 -16.9430 -16.8557 -15.1115 -15.0653 -14.9140 -14.8291
   -14.7844 -14.7471 -13.6428 -13.5969 -13.4391 -13.3816  -3.0456  -3.0273
    -1.3756  -1.3539  -1.3335  -1.1835  -1.0289  -0.5021   2.4473   2.4982
     2.6024   2.6942   2.8236   3.0763   3.2921   3.5680   4.2285   4.2758

          k = 0.6747 0.5843 0.0000 (  8440 PWs)   bands (ev):

   -33.7680 -33.7658 -16.9087 -16.8974 -15.1133 -15.0447 -14.9433 -14.8695
   -14.7473 -14.7379 -13.6407 -13.5534 -13.4825 -13.3843  -2.9852  -2.9308
    -1.4425  -1.3360  -1.3115  -1.1558  -0.8101  -0.6288   2.2963   2.3352
     2.5680   2.6434   2.8424   3.0187   3.2774   3.4374   4.3117   4.3484

          k = 0.5060 0.4869 0.0546 (  8434 PWs)   bands (ev):

   -33.7680 -33.7657 -16.9561 -16.8455 -15.1391 -15.0780 -14.9603 -14.8244
   -14.7585 -14.6882 -13.7031 -13.5424 -13.4700 -13.3629  -2.9960  -2.8381
    -1.5261  -1.2959  -1.2502  -1.1512  -0.7978  -0.6390   2.1419   2.3258
     2.4956   2.6485   2.8382   2.9981   3.3300   3.4259   4.2844   4.4430

          k = 0.3373 0.3895 0.1092 (  8439 PWs)   bands (ev):

   -33.7701 -33.7637 -16.9797 -16.8122 -15.1641 -15.0701 -14.9530 -14.8028
   -14.7841 -14.6797 -13.7153 -13.5502 -13.4533 -13.3587  -3.0163  -2.8791
    -1.5060  -1.3114  -1.2347  -1.1628  -1.0025  -0.5198   2.2102   2.4841
     2.5036   2.6290   2.7705   3.0586   3.3087   3.5331   4.2673   4.4094

          k =-0.3373 0.1948 0.3821 (  8432 PWs)   bands (ev):

   -33.7696 -33.7643 -16.9706 -16.8281 -15.1647 -15.0494 -14.8658 -14.8264
   -14.7896 -14.7510 -13.6438 -13.6151 -13.4196 -13.3902  -3.0769  -2.9532
    -1.4525  -1.3148  -1.2842  -1.1426  -0.9633  -0.5806   2.3265   2.4800
     2.6177   2.7241   2.8487   3.0837   3.1592   3.5782   4.2179   4.3151

          k = 0.6747 0.7790 0.0546 (  8423 PWs)   bands (ev):

   -33.7685 -33.7653 -16.9645 -16.8399 -15.1527 -15.0817 -14.8561 -14.8252
   -14.7813 -14.7419 -13.6819 -13.6056 -13.4108 -13.3812  -3.0341  -2.8827
    -1.4591  -1.3619  -1.2619  -1.1244  -0.8253  -0.6364   2.2054   2.3716
     2.6399   2.7137   2.8125   2.8860   3.2727   3.5022   4.2476   4.4007

          k = 0.5060 0.6816 0.1092 (  8439 PWs)   bands (ev):

   -33.7671 -33.7666 -16.9147 -16.8961 -15.1061 -15.0631 -14.9022 -14.8607
   -14.7772 -14.7457 -13.6451 -13.6011 -13.4233 -13.3942  -2.9218  -2.9025
    -1.4542  -1.4083  -1.2401  -1.1402  -0.6946  -0.6783   2.1833   2.2159
     2.5966   2.6346   2.8109   2.8237   3.3831   3.4408   4.3671   4.3920

          k = 0.3373 0.5843 0.1638 (  8442 PWs)   bands (ev):

   -33.7680 -33.7657 -16.9398 -16.8648 -15.1329 -15.0453 -14.9697 -14.8448
   -14.7567 -14.7043 -13.6907 -13.5599 -13.4516 -13.3692  -2.9506  -2.8701
    -1.4809  -1.3860  -1.2011  -1.1706  -0.7840  -0.6179   2.1580   2.2886
     2.5293   2.5755   2.8231   2.9163   3.3857   3.4548   4.3370   4.4299

          k = 0.6747-0.3895-0.2730 (  8426 PWs)   bands (ev):

   -33.7687 -33.7651 -16.9972 -16.7987 -15.2081 -15.1446 -14.8106 -14.7946
   -14.7744 -14.6650 -13.7500 -13.6814 -13.3508 -13.3497  -3.0837  -2.7882
    -1.5341  -1.3197  -1.2046  -1.1112  -0.8307  -0.6628   2.1056   2.3712
     2.6413   2.7494   2.7714   2.8950   3.2833   3.5011   4.1765   4.4768

          k = 0.5060-0.4869-0.2184 (  8440 PWs)   bands (ev):

   -33.7685 -33.7652 -16.9803 -16.8200 -15.1623 -15.1311 -14.8819 -14.7857
   -14.7771 -14.6842 -13.7518 -13.5999 -13.4131 -13.3407  -3.0301  -2.8022
    -1.5162  -1.3518  -1.2089  -1.1294  -0.8069  -0.6309   2.0921   2.3317
     2.5588   2.6921   2.8018   2.8925   3.3349   3.4801   4.2376   4.4787

          k = 0.5060-0.2921-0.1638 (  8445 PWs)   bands (ev):

   -33.7695 -33.7642 -16.9988 -16.7912 -15.1689 -15.1665 -14.8545 -14.8130
   -14.7725 -14.6490 -13.7547 -13.6138 -13.3955 -13.3469  -3.0589  -2.8039
    -1.5391  -1.3093  -1.1959  -1.1397  -0.9290  -0.5900   2.1156   2.4223
     2.5004   2.7168   2.7899   3.0807   3.2311   3.5215   4.2017   4.4666

          k =-0.0000-0.0000 0.3276 (  8400 PWs)   bands (ev):

   -33.7714 -33.7629 -16.9183 -16.8750 -15.0896 -15.0896 -14.8945 -14.8945
   -14.7482 -14.6996 -13.6788 -13.6788 -13.3633 -13.3633  -3.2075  -3.0620
    -1.3732  -1.3732  -1.2427  -1.2427  -1.2413  -0.3783   2.5296   2.5296
     2.6593   2.6593   3.1001   3.1001   3.6035   3.6035   3.9912   4.2607

          k =-0.1687-0.0974 0.3821 (  8407 PWs)   bands (ev):

   -33.7702 -33.7640 -16.9185 -16.8787 -15.1175 -15.0062 -14.9968 -14.8365
   -14.7601 -14.7172 -13.6855 -13.5569 -13.4698 -13.3563  -3.1533  -3.0596
    -1.3667  -1.3435  -1.2719  -1.2587  -1.0710  -0.4926   2.5162   2.5664
     2.6292   2.6532   2.9556   3.1775   3.4064   3.5489   4.0983   4.2499

          k = 0.8433 0.4869 0.0546 (  8435 PWs)   bands (ev):

   -33.7682 -33.7657 -16.9098 -16.8938 -15.1449 -15.0121 -14.9768 -14.8115
   -14.7752 -14.7184 -13.6685 -13.5387 -13.5046 -13.3599  -3.0759  -2.9628
    -1.4250  -1.3068  -1.2655  -1.2370  -0.8659  -0.6247   2.3731   2.4772
     2.6449   2.6830   2.7710   3.1950   3.2289   3.4183   4.2187   4.3170

          k = 0.6747 0.3895 0.1092 (  8424 PWs)   bands (ev):

   -33.7676 -33.7661 -16.9664 -16.8343 -15.1766 -15.0942 -14.8873 -14.8369
   -14.7575 -14.6764 -13.6740 -13.6548 -13.4027 -13.3641  -3.0515  -2.8242
    -1.5291  -1.2879  -1.2234  -1.1682  -0.7620  -0.7016   2.1557   2.3732
     2.5409   2.7032   2.8232   3.0561   3.2547   3.4162   4.2260   4.4377

          k =-0.1687 0.0974 0.4367 (  8414 PWs)   bands (ev):

   -33.7694 -33.7648 -16.9235 -16.8752 -15.1061 -14.9916 -14.9891 -14.8778
   -14.7421 -14.7393 -13.6389 -13.5390 -13.4751 -13.4020  -3.1309  -3.0961
    -1.3733  -1.3155  -1.2989  -1.2282  -1.0008  -0.5685   2.5337   2.5415
     2.6307   2.6347   3.0475   3.2101   3.2999   3.5441   4.1227   4.2107

          k = 0.8433 0.6816 0.1092 (  8407 PWs)   bands (ev):

   -33.7681 -33.7659 -16.9178 -16.8867 -15.0982 -15.0764 -14.8964 -14.8528
   -14.7730 -14.7497 -13.6109 -13.5906 -13.4415 -13.4162  -3.0531  -3.0468
    -1.3726  -1.3583  -1.2697  -1.2111  -0.8529  -0.6632   2.4409   2.4553
     2.6452   2.6874   2.9149   3.0619   3.2971   3.4491   4.2315   4.2474

          k = 0.6747 0.5843 0.1638 (  8416 PWs)   bands (ev):

   -33.7672 -33.7666 -16.9355 -16.8728 -15.1303 -15.0645 -14.9038 -14.8028
   -14.7783 -14.7651 -13.6341 -13.6154 -13.4320 -13.3881  -3.0178  -2.9038
    -1.4664  -1.3507  -1.2096  -1.1931  -0.7260  -0.7152   2.2417   2.3402
     2.6510   2.7045   2.7888   2.9224   3.3373   3.4021   4.2722   4.3760

          k = 0.8433-0.4869-0.2184 (  8411 PWs)   bands (ev):

   -33.7677 -33.7662 -16.9459 -16.8581 -15.1677 -15.0044 -14.9438 -14.8130
   -14.7815 -14.7261 -13.6642 -13.5727 -13.4652 -13.3714  -3.0882  -2.9576
    -1.4514  -1.2946  -1.2480  -1.2002  -0.7962  -0.7167   2.3367   2.4570
     2.6895   2.6962   2.8446   3.0373   3.2590   3.4575   4.2061   4.3164

          k =-0.0000 0.0000 0.4913 (  8394 PWs)   bands (ev):

   -33.7687 -33.7656 -16.9062 -16.8907 -15.0358 -15.0358 -14.9673 -14.9673
   -14.7301 -14.7128 -13.5675 -13.5675 -13.4561 -13.4561  -3.1843  -3.1347
    -1.3288  -1.3288  -1.2823  -1.2823  -0.9395  -0.6328   2.5717   2.5717
     2.6182   2.6182   3.2488   3.2488   3.4283   3.4283   4.0664   4.1609

          k = 1.0120 0.5843 0.1638 (  8390 PWs)   bands (ev):

   -33.7675 -33.7667 -16.9025 -16.8977 -15.0912 -15.0390 -14.9529 -14.8956
   -14.7428 -14.7251 -13.6008 -13.5393 -13.4884 -13.4243  -3.1369  -3.1052
    -1.3521  -1.3021  -1.2894  -1.2681  -0.8191  -0.7332   2.5295   2.5592
     2.6198   2.6289   3.1051   3.2245   3.3487   3.4050   4.1444   4.1806

     highest occupied level (ev):     4.4918

!    total energy              =    -367.42350567 Ry
     Harris-Foulkes estimate   =    -367.42350567 Ry
     estimated scf accuracy    <          4.1E-10 Ry

     The total energy is the sum of the following terms:

     one-electron contribution =    -144.72721321 Ry
     hartree contribution      =     101.86036240 Ry
     xc contribution           =     -75.20811473 Ry
     ewald contribution        =    -249.34854013 Ry

     convergence has been achieved in   8 iterations

     Forces acting on atoms (cartesian axes, Ry/au):

     atom    1 type  1   force =     0.00000000    0.00000000    0.00000000
     atom    2 type  1   force =     0.00000000   -0.00000000    0.00000000
     atom    3 type  2   force =    -0.00000000    0.00000000    0.00000000
     atom    4 type  2   force =     0.00000000   -0.00000000    0.00000000
     atom    5 type  3   force =    -0.00126147    0.00218494    0.00000000
     atom    6 type  3   force =     0.00252295    0.00000000   -0.00000000
     atom    7 type  3   force =    -0.00126147   -0.00218494   -0.00000000
     atom    8 type  3   force =    -0.00252295   -0.00000000   -0.00000000
     atom    9 type  3   force =     0.00126147    0.00218494    0.00000000
     atom   10 type  3   force =     0.00126147   -0.00218494   -0.00000000

     Total force =     0.006180     Total SCF correction =     0.000047


     Computing stress (Cartesian axis) and pressure

          total   stress  (Ry/bohr**3)                   (kbar)     P=  -15.55
  -0.00022800  -0.00000000  -0.00000000        -33.54     -0.00     -0.00
  -0.00000000  -0.00022800  -0.00000000         -0.00    -33.54     -0.00
  -0.00000000  -0.00000000   0.00013893         -0.00     -0.00     20.44


     number of scf cycles    =   3
     number of bfgs steps    =   2

     energy   old            =    -367.4227370753 Ry
     energy   new            =    -367.4235056660 Ry

     CASE: energy  _new < energy  _old

     new trust radius        =       0.0018413594 bohr
     new conv_thr            =       0.0000000003 Ry


ATOMIC_POSITIONS (crystal)
Ca       0.500000000   0.500000000   0.500000000
Ca       0.000000000  -0.000000000  -0.000000000
C        0.250000000   0.250000000   0.250000000
C        0.750000000   0.750000000   0.750000000
O        0.499219553   1.000780447   0.250000000
O        1.000780447   0.250000000   0.499219553
O        0.250000000   0.499219553   1.000780447
O       -0.000780447   0.750000000   0.500780447
O        0.750000000   0.500780447  -0.000780447
O        0.500780447  -0.000780447   0.750000000



     Writing output data file CCO_rand5.save/
     NEW-OLD atomic charge density approx. for the potential

     Check: negative core charge=   -0.000003

     total cpu time spent up to now is      486.5 secs

     Self-consistent Calculation

     iteration #  1     ecut=    70.00 Ry     beta= 0.70
     CG style diagonalization
     ethr =  1.00E-06,  avg # of iterations =  2.8

     Threshold (ethr) on eigenvalues was too large:
     Diagonalizing with lowered threshold

     CG style diagonalization
     c_bands:  1 eigenvalues not converged
     ethr =  1.55E-08,  avg # of iterations =  4.4

     total cpu time spent up to now is      517.4 secs

     total energy              =    -367.42351513 Ry
     Harris-Foulkes estimate   =    -367.42352411 Ry
     estimated scf accuracy    <       0.00001219 Ry

     iteration #  2     ecut=    70.00 Ry     beta= 0.70
     CG style diagonalization
     ethr =  1.90E-08,  avg # of iterations =  4.0

     total cpu time spent up to now is      534.0 secs

     total energy              =    -367.42351865 Ry
     Harris-Foulkes estimate   =    -367.42352176 Ry
     estimated scf accuracy    <       0.00000558 Ry

     iteration #  3     ecut=    70.00 Ry     beta= 0.70
     CG style diagonalization
     ethr =  8.72E-09,  avg # of iterations =  3.6

     total cpu time spent up to now is      548.6 secs

     total energy              =    -367.42351997 Ry
     Harris-Foulkes estimate   =    -367.42352002 Ry
     estimated scf accuracy    <       0.00000011 Ry

     iteration #  4     ecut=    70.00 Ry     beta= 0.70
     CG style diagonalization
     ethr =  1.72E-10,  avg # of iterations =  4.3

     total cpu time spent up to now is      566.2 secs

     total energy              =    -367.42352005 Ry
     Harris-Foulkes estimate   =    -367.42352008 Ry
     estimated scf accuracy    <       0.00000007 Ry

     iteration #  5     ecut=    70.00 Ry     beta= 0.70
     CG style diagonalization
     ethr =  1.14E-10,  avg # of iterations =  3.5

     total cpu time spent up to now is      580.6 secs

     total energy              =    -367.42352006 Ry
     Harris-Foulkes estimate   =    -367.42352006 Ry
     estimated scf accuracy    <          3.6E-09 Ry

     iteration #  6     ecut=    70.00 Ry     beta= 0.70
     CG style diagonalization
     ethr =  5.56E-12,  avg # of iterations =  4.0

     total cpu time spent up to now is      597.4 secs

     total energy              =    -367.42352006 Ry
     Harris-Foulkes estimate   =    -367.42352006 Ry
     estimated scf accuracy    <          3.1E-10 Ry

     iteration #  7     ecut=    70.00 Ry     beta= 0.70
     CG style diagonalization
     ethr =  4.86E-13,  avg # of iterations =  4.0

     total cpu time spent up to now is      613.8 secs

     End of self-consistent calculation

          k = 0.0000 0.0000 0.0000 (  8493 PWs)   bands (ev):

   -33.7771 -33.7635 -16.9402 -16.8701 -15.1373 -15.1373 -14.8142 -14.8142
   -14.7703 -14.6936 -13.8036 -13.8036 -13.2879 -13.2879  -3.2105  -2.9522
    -1.5642  -1.4194  -1.4194  -1.2095  -1.2095  -0.1671   2.4912   2.4912
     2.6959   2.6959   2.9717   2.9717   3.7807   3.7807   3.9310   4.3763

          k =-0.1687-0.0974 0.0546 (  8424 PWs)   bands (ev):

   -33.7764 -33.7641 -16.9550 -16.8567 -15.1354 -15.0818 -14.8741 -14.8119
   -14.7791 -14.7453 -13.7694 -13.6915 -13.3616 -13.3047  -3.1407  -2.9714
    -1.5076  -1.3976  -1.3651  -1.2266  -1.2057  -0.2534   2.5101   2.5419
     2.6659   2.7406   2.8250   2.9058   3.6750   3.6934   4.0705   4.3535

          k =-0.3373-0.1948 0.1092 (  8429 PWs)   bands (ev):

   -33.7743 -33.7659 -16.9685 -16.8460 -15.1261 -15.0171 -15.0008 -14.8607
   -14.7515 -14.7249 -13.6891 -13.5418 -13.4966 -13.3572  -3.0012  -2.9812
    -1.4784  -1.3462  -1.2290  -1.2264  -1.1421  -0.4286   2.4515   2.4701
[...]

          k =-0.1687 0.0974 0.1092 (  8422 PWs)   bands (ev):

   -33.7762 -33.7643 -16.9565 -16.8561 -15.1075 -15.1065 -14.8542 -14.8158
   -14.7774 -14.7741 -13.7256 -13.7146 -13.3468 -13.3315  -3.1368  -2.9845
    -1.4760  -1.3883  -1.3852  -1.2305  -1.1929  -0.2708   2.5203   2.5311
     2.6577   2.7084   2.8789   2.9151   3.6145   3.7293   4.0707   4.3413

          k =-0.3373-0.0000 0.1638 (  8435 PWs)   bands (ev):

   -33.7747 -33.7656 -16.9707 -16.8444 -15.1132 -15.0800 -14.9017 -14.8534
   -14.7694 -14.7567 -13.6756 -13.6196 -13.4297 -13.3619  -3.0301  -3.0012
    -1.4445  -1.3554  -1.3167  -1.1824  -1.1589  -0.4057   2.4547   2.5466
     2.5955   2.6669   2.7929   2.9509   3.4382   3.6210   4.2360   4.3090

          k =-0.5060-0.0974 0.2184 (  8437 PWs)   bands (ev):

   -33.7723 -33.7677 -16.9528 -16.8698 -15.1136 -15.0597 -14.9474 -14.9070
   -14.7482 -14.7063 -13.6383 -13.5903 -13.4502 -13.4051  -2.9566  -2.9402
    -1.4488  -1.3818  -1.2671  -1.1656  -0.9252  -0.5580   2.2861   2.3976
     2.5505   2.5695   2.8725   3.0057   3.3176   3.4750   4.3267   4.3580

          k = 0.5060 0.4869-0.1092 (  8435 PWs)   bands (ev):

   -33.7704 -33.7696 -16.9325 -16.8934 -15.1000 -15.0415 -14.9980 -14.9097
   -14.7315 -14.7056 -13.6360 -13.5544 -13.4768 -13.4144  -2.9421  -2.8859
    -1.4864  -1.3885  -1.2202  -1.1595  -0.7545  -0.6881   2.2120   2.2820
     2.5108   2.5766   2.9081   2.9900   3.3534   3.3939   4.3442   4.3984

          k = 0.3373 0.3895-0.0546 (  8440 PWs)   bands (ev):

   -33.7731 -33.7670 -16.9775 -16.8389 -15.1428 -15.0554 -14.9846 -14.8488
   -14.7664 -14.6833 -13.6791 -13.5819 -13.4339 -13.3962  -2.9864  -2.9012
    -1.5097  -1.3062  -1.2401  -1.1774  -1.0174  -0.5190   2.2442   2.4594
     2.5279   2.5836   2.8062   3.0299   3.3736   3.4837   4.3004   4.3923

          k = 0.1687 0.2921 0.0000 (  8415 PWs)   bands (ev):

   -33.7752 -33.7651 -16.9761 -16.8358 -15.1041 -15.0953 -14.8962 -14.8511
   -14.7866 -14.7437 -13.6862 -13.6270 -13.4222 -13.3525  -3.0242  -2.9912
    -1.4799  -1.3359  -1.3111  -1.2115  -1.1833  -0.3701   2.4547   2.5612
     2.5944   2.7214   2.7261   2.9022   3.5142   3.6196   4.2378   4.3212

          k =-0.3373 0.1948 0.2184 (  8447 PWs)   bands (ev):

   -33.7741 -33.7661 -16.9919 -16.8232 -15.1358 -15.0967 -14.8623 -14.8065
   -14.7957 -14.7816 -13.6601 -13.6133 -13.4242 -13.3886  -3.0435  -2.9523
    -1.4519  -1.3317  -1.3228  -1.1417  -1.0872  -0.4827   2.3418   2.5385
     2.5554   2.7113   2.7685   3.0734   3.2626   3.6333   4.2546   4.3124

          k =-0.5060 0.0974 0.2730 (  8435 PWs)   bands (ev):

   -33.7727 -33.7674 -16.9909 -16.8296 -15.1698 -15.0865 -14.8960 -14.8244
   -14.7762 -14.7069 -13.7253 -13.5731 -13.4471 -13.3625  -3.0285  -2.8692
    -1.4686  -1.3549  -1.2867  -1.1156  -0.9266  -0.5749   2.1964   2.4313
     2.5486   2.6773   2.7951   3.0059   3.2497   3.5528   4.2512   4.4178

          k = 0.5060 0.6816-0.0546 (  8436 PWs)   bands (ev):

   -33.7707 -33.7692 -16.9416 -16.8898 -15.1333 -15.0347 -14.9434 -14.8694
   -14.7683 -14.7226 -13.6831 -13.5705 -13.4563 -13.3819  -2.9349  -2.8802
    -1.4515  -1.4009  -1.2866  -1.1153  -0.7358  -0.6613   2.1656   2.2566
     2.5575   2.6070   2.8295   2.8631   3.3605   3.4729   4.3515   4.4188

          k = 0.3373 0.5843 0.0000 (  8455 PWs)   bands (ev):

   -33.7712 -33.7687 -16.9545 -16.8719 -15.1294 -15.0612 -14.9908 -14.8056
   -14.7840 -14.7002 -13.6981 -13.5733 -13.4503 -13.3757  -2.9509  -2.8612
    -1.5176  -1.2943  -1.2809  -1.1482  -0.8233  -0.6072   2.1567   2.3009
     2.5092   2.5752   2.8183   2.9433   3.4146   3.4262   4.3388   4.4395

          k =-0.5060 0.2921 0.3276 (  8437 PWs)   bands (ev):

   -33.7725 -33.7675 -17.0194 -16.7952 -15.2079 -15.1734 -14.8010 -14.7856
   -14.7847 -14.6596 -13.7869 -13.6714 -13.3670 -13.3381  -3.0818  -2.7768
    -1.5315  -1.3313  -1.2335  -1.0792  -0.8906  -0.6353   2.0921   2.3902
     2.5954   2.7498   2.8013   2.8956   3.2762   3.5472   4.1707   4.4923

          k = 0.5060 0.8764 0.0000 (  8425 PWs)   bands (ev):

   -33.7718 -33.7682 -17.0001 -16.8231 -15.1717 -15.1526 -14.8273 -14.8141
   -14.7787 -14.6836 -13.7738 -13.6292 -13.3960 -13.3431  -3.0381  -2.7859
    -1.4982  -1.3780  -1.2538  -1.0790  -0.8098  -0.6426   2.0748   2.3293
     2.6380   2.6944   2.7960   2.7980   3.3383   3.5114   4.2230   4.4960

          k =-0.0000-0.0000 0.1638 (  8400 PWs)   bands (ev):

   -33.7764 -33.7642 -16.9378 -16.8745 -15.1258 -15.1258 -14.8379 -14.8379
   -14.7651 -14.6961 -13.7705 -13.7705 -13.3091 -13.3091  -3.2104  -2.9850
    -1.4764  -1.4076  -1.4076  -1.2187  -1.2187  -0.2229   2.5014   2.5014
     2.6865   2.6865   3.0044   3.0044   3.7330   3.7330   3.9478   4.3452

          k =-0.1687-0.0974 0.2184 (  8420 PWs)   bands (ev):

   -33.7753 -33.7651 -16.9460 -16.8692 -15.1397 -15.0445 -14.9444 -14.7989
   -14.7813 -14.7263 -13.7566 -13.6361 -13.4071 -13.3161  -3.1484  -3.0033
    -1.4337  -1.3899  -1.2985  -1.2353  -1.2133  -0.3314   2.5085   2.5568
     2.6493   2.7068   2.8490   3.0162   3.5768   3.6517   4.0794   4.3189

          k =-0.3373-0.1948 0.2730 (  8428 PWs)   bands (ev):

   -33.7731 -33.7670 -16.9402 -16.8811 -15.1200 -15.0456 -14.9770 -14.8526
   -14.7422 -14.7312 -13.6794 -13.5307 -13.5207 -13.3593  -3.0406  -2.9661
    -1.4124  -1.3824  -1.2479  -1.2413  -1.0185  -0.4994   2.4296   2.5128
     2.5805   2.6005   2.8326   3.0402   3.3690   3.4847   4.2503   4.3233

          k = 0.6747 0.3895-0.0546 (  8426 PWs)   bands (ev):

   -33.7704 -33.7696 -16.9326 -16.8927 -15.1178 -15.0321 -14.9811 -14.9185
   -14.7311 -14.7013 -13.6050 -13.5852 -13.4861 -13.4076  -2.9909  -2.8762
    -1.4867  -1.3684  -1.2332  -1.1706  -0.7753  -0.6870   2.2349   2.3378
     2.5196   2.6222   2.9023   3.1304   3.2298   3.3831   4.2972   4.3891

          k = 0.5060 0.2921 0.0000 (  8453 PWs)   bands (ev):

   -33.7723 -33.7677 -16.9820 -16.8350 -15.1318 -15.1046 -14.9418 -14.8797
   -14.7549 -14.6661 -13.6870 -13.5515 -13.4566 -13.4001  -3.0046  -2.8523
    -1.5342  -1.2975  -1.2329  -1.1584  -0.9381  -0.5848   2.1743   2.3931
     2.5025   2.6554   2.8326   3.1415   3.2507   3.4511   4.2680   4.4240

          k = 0.3373 0.1948 0.0546 (  8439 PWs)   bands (ev):

   -33.7747 -33.7655 -16.9868 -16.8250 -15.1236 -15.0810 -14.9290 -14.8343
   -14.7760 -14.7419 -13.6850 -13.5730 -13.4594 -13.3655  -3.0087  -2.9689
    -1.4818  -1.3373  -1.2796  -1.1802  -1.1538  -0.4252   2.3832   2.4901
     2.6660   2.6672   2.6983   2.9963   3.4137   3.6069   4.2924   4.2983

          k =-0.1687 0.0974 0.2730 (  8429 PWs)   bands (ev):

   -33.7748 -33.7656 -16.9499 -16.8673 -15.1172 -15.0560 -14.9218 -14.8308
   -14.7646 -14.7606 -13.6975 -13.6424 -13.3935 -13.3642  -3.1359  -3.0349
    -1.4028  -1.3553  -1.3325  -1.2031  -1.2012  -0.3817   2.5299   2.5313
     2.6389   2.6697   2.9331   3.0482   3.4789   3.6749   4.0881   4.2876

          k =-0.3373 0.0000 0.3276 (  8432 PWs)   bands (ev):

   -33.7733 -33.7670 -16.9546 -16.8675 -15.1139 -15.0678 -14.9167 -14.8324
   -14.7872 -14.7506 -13.6488 -13.6028 -13.4455 -13.3880  -3.0425  -3.0235
    -1.3777  -1.3576  -1.3360  -1.1859  -1.0339  -0.5096   2.4476   2.4987
     2.6024   2.6942   2.8240   3.0769   3.2926   3.5686   4.2329   4.2803

          k = 0.6747 0.5843 0.0000 (  8440 PWs)   bands (ev):

   -33.7711 -33.7689 -16.9204 -16.9090 -15.1157 -15.0473 -14.9461 -14.8724
   -14.7508 -14.7412 -13.6465 -13.5595 -13.4887 -13.3907  -2.9817  -2.9270
    -1.4452  -1.3386  -1.3150  -1.1584  -0.8159  -0.6358   2.2967   2.3356
     2.5681   2.6434   2.8429   3.0195   3.2782   3.4382   4.3159   4.3527

          k = 0.5060 0.4869 0.0546 (  8434 PWs)   bands (ev):

   -33.7711 -33.7688 -16.9674 -16.8575 -15.1415 -15.0804 -14.9629 -14.8272
   -14.7616 -14.6922 -13.7089 -13.5484 -13.4762 -13.3693  -2.9920  -2.8345
    -1.5289  -1.2992  -1.2528  -1.1540  -0.8042  -0.6455   2.1422   2.3263
     2.4959   2.6484   2.8389   2.9988   3.3306   3.4269   4.2886   4.4472

          k = 0.3373 0.3895 0.1092 (  8439 PWs)   bands (ev):

   -33.7732 -33.7669 -16.9910 -16.8243 -15.1664 -15.0726 -14.9557 -14.8059
   -14.7870 -14.6835 -13.7211 -13.5563 -13.4595 -13.3652  -3.0121  -2.8758
    -1.5089  -1.3143  -1.2379  -1.1653  -1.0078  -0.5271   2.2105   2.4842
     2.5041   2.6289   2.7712   3.0591   3.3093   3.5338   4.2716   4.4136

          k =-0.3373 0.1948 0.3821 (  8432 PWs)   bands (ev):

   -33.7727 -33.7674 -16.9819 -16.8401 -15.1670 -15.0521 -14.8689 -14.8292
   -14.7925 -14.7545 -13.6496 -13.6210 -13.4260 -13.3966  -3.0730  -2.9500
    -1.4546  -1.3174  -1.2880  -1.1451  -0.9687  -0.5879   2.3268   2.4808
     2.6177   2.7239   2.8493   3.0842   3.1599   3.5787   4.2224   4.3195

          k = 0.6747 0.7790 0.0546 (  8423 PWs)   bands (ev):

   -33.7716 -33.7684 -16.9757 -16.8519 -15.1551 -15.0844 -14.8591 -14.8283
   -14.7841 -14.7454 -13.6876 -13.6115 -13.4172 -13.3877  -3.0302  -2.8793
    -1.4613  -1.3648  -1.2657  -1.1270  -0.8312  -0.6433   2.2059   2.3723
     2.6400   2.7135   2.8132   2.8865   3.2736   3.5029   4.2520   4.4049

          k = 0.5060 0.6816 0.1092 (  8439 PWs)   bands (ev):

   -33.7702 -33.7697 -16.9263 -16.9078 -15.1085 -15.0657 -14.9053 -14.8642
   -14.7801 -14.7489 -13.6509 -13.6070 -13.4297 -13.4006  -2.9180  -2.8987
    -1.4572  -1.4111  -1.2434  -1.1430  -0.7009  -0.6849   2.1838   2.2163
     2.5967   2.6346   2.8116   2.8245   3.3839   3.4415   4.3713   4.3962

          k = 0.3373 0.5843 0.1638 (  8442 PWs)   bands (ev):

   -33.7711 -33.7688 -16.9512 -16.8767 -15.1353 -15.0478 -14.9725 -14.8476
   -14.7599 -14.7080 -13.6965 -13.5659 -13.4578 -13.3756  -2.9466  -2.8664
    -1.4838  -1.3890  -1.2041  -1.1734  -0.7902  -0.6247   2.1584   2.2890
     2.5295   2.5756   2.8239   2.9170   3.3864   3.4556   4.3413   4.4341

          k = 0.6747-0.3895-0.2730 (  8426 PWs)   bands (ev):

   -33.7718 -33.7682 -17.0082 -16.8112 -15.2104 -15.1470 -14.8134 -14.7974
   -14.7773 -14.6693 -13.7556 -13.6871 -13.3573 -13.3561  -3.0797  -2.7847
    -1.5363  -1.3229  -1.2085  -1.1138  -0.8367  -0.6695   2.1060   2.3721
     2.6415   2.7490   2.7719   2.8956   3.2842   3.5018   4.1809   4.4810

          k = 0.5060-0.4869-0.2184 (  8440 PWs)   bands (ev):

   -33.7716 -33.7683 -16.9915 -16.8323 -15.1646 -15.1335 -14.8847 -14.7886
   -14.7800 -14.6883 -13.7575 -13.6057 -13.4195 -13.3472  -3.0260  -2.7987
    -1.5186  -1.3550  -1.2126  -1.1320  -0.8129  -0.6376   2.0925   2.3325
     2.5591   2.6919   2.8023   2.8932   3.3356   3.4808   4.2419   4.4828

          k = 0.5060-0.2921-0.1638 (  8445 PWs)   bands (ev):

   -33.7726 -33.7673 -17.0099 -16.8037 -15.1712 -15.1688 -14.8573 -14.8159
   -14.7754 -14.6531 -13.7603 -13.6197 -13.4019 -13.3535  -3.0547  -2.8005
    -1.5415  -1.3124  -1.1998  -1.1422  -0.9345  -0.5970   2.1160   2.4230
     2.5008   2.7165   2.7904   3.0813   3.2315   3.5223   4.2061   4.4708

          k =-0.0000-0.0000 0.3276 (  8400 PWs)   bands (ev):

   -33.7745 -33.7660 -16.9303 -16.8865 -15.0920 -15.0920 -14.8972 -14.8972
   -14.7514 -14.7037 -13.6847 -13.6847 -13.3698 -13.3698  -3.2047  -3.0585
    -1.3752  -1.3752  -1.2474  -1.2449  -1.2449  -0.3863   2.5301   2.5301
     2.6592   2.6592   3.1002   3.1002   3.6039   3.6039   3.9961   4.2653

          k =-0.1687-0.0974 0.3821 (  8407 PWs)   bands (ev):

   -33.7733 -33.7672 -16.9303 -16.8903 -15.1199 -15.0088 -14.9992 -14.8393
   -14.7633 -14.7211 -13.6914 -13.5629 -13.4761 -13.3627  -3.1504  -3.0561
    -1.3687  -1.3465  -1.2741  -1.2610  -1.0766  -0.5002   2.5167   2.5666
     2.6292   2.6534   2.9559   3.1779   3.4069   3.5494   4.1029   4.2545

          k = 0.8433 0.4869 0.0546 (  8435 PWs)   bands (ev):

   -33.7713 -33.7688 -16.9213 -16.9057 -15.1473 -15.0147 -14.9793 -14.8145
   -14.7781 -14.7223 -13.6744 -13.5447 -13.5108 -13.3663  -3.0725  -2.9592
    -1.4273  -1.3103  -1.2678  -1.2396  -0.8717  -0.6318   2.3735   2.4775
     2.6450   2.6829   2.7717   3.1956   3.2295   3.4191   4.2230   4.3214

          k = 0.6747 0.3895 0.1092 (  8424 PWs)   bands (ev):

   -33.7708 -33.7692 -16.9776 -16.8465 -15.1789 -15.0967 -14.8901 -14.8396
   -14.7606 -14.6806 -13.6797 -13.6607 -13.4091 -13.3705  -3.0476  -2.8206
    -1.5315  -1.2913  -1.2261  -1.1712  -0.7686  -0.7079   2.1561   2.3739
     2.5411   2.7029   2.8236   3.0568   3.2554   3.4171   4.2302   4.4420

          k =-0.1687 0.0974 0.4367 (  8414 PWs)   bands (ev):

   -33.7725 -33.7679 -16.9352 -16.8869 -15.1084 -14.9943 -14.9916 -14.8805
   -14.7455 -14.7430 -13.6449 -13.5450 -13.4814 -13.4084  -3.1280  -3.0926
    -1.3756  -1.3177  -1.3012  -1.2305  -1.0069  -0.5759   2.5340   2.5421
     2.6306   2.6349   3.0479   3.2104   3.3003   3.5445   4.1274   4.2153

          k = 0.8433 0.6816 0.1092 (  8407 PWs)   bands (ev):

   -33.7713 -33.7690 -16.9294 -16.8983 -15.1006 -15.0790 -14.8991 -14.8558
   -14.7761 -14.7532 -13.6169 -13.5966 -13.4478 -13.4225  -3.0498  -3.0433
    -1.3750  -1.3607  -1.2726  -1.2136  -0.8590  -0.6702   2.4413   2.4558
     2.6452   2.6874   2.9154   3.0624   3.2977   3.4498   4.2359   4.2519

          k = 0.6747 0.5843 0.1638 (  8416 PWs)   bands (ev):

   -33.7703 -33.7697 -16.9469 -16.8847 -15.1328 -15.0670 -14.9068 -14.8060
   -14.7813 -14.7684 -13.6399 -13.6213 -13.4384 -13.3945  -3.0141  -2.9002
    -1.4689  -1.3536  -1.2126  -1.1961  -0.7325  -0.7215   2.2421   2.3408
     2.6510   2.7044   2.7895   2.9231   3.3382   3.4029   4.2765   4.3803

          k = 0.8433-0.4869-0.2184 (  8411 PWs)   bands (ev):

   -33.7709 -33.7693 -16.9572 -16.8701 -15.1701 -15.0071 -14.9466 -14.8158
   -14.7845 -14.7299 -13.6701 -13.5786 -13.4716 -13.3778  -3.0846  -2.9543
    -1.4537  -1.2973  -1.2509  -1.2029  -0.8027  -0.7233   2.3371   2.4576
     2.6895   2.6962   2.8451   3.0379   3.2598   3.4581   4.2105   4.3208

          k =-0.0000 0.0000 0.4913 (  8394 PWs)   bands (ev):

   -33.7718 -33.7688 -16.9179 -16.9023 -15.0382 -15.0382 -14.9698 -14.9698
   -14.7336 -14.7167 -13.5736 -13.5736 -13.4623 -13.4623  -3.1814  -3.1315
    -1.3308  -1.3308  -1.2844  -1.2844  -0.9460  -0.6400   2.5720   2.5720
     2.6184   2.6184   3.2490   3.2490   3.4286   3.4286   4.0713   4.1657

          k = 1.0120 0.5843 0.1638 (  8390 PWs)   bands (ev):

   -33.7706 -33.7698 -16.9141 -16.9095 -15.0936 -15.0415 -14.9554 -14.8982
   -14.7463 -14.7288 -13.6068 -13.5454 -13.4945 -13.4306  -3.1337  -3.1020
    -1.3542  -1.3044  -1.2917  -1.2704  -0.8257  -0.7401   2.5299   2.5594
     2.6199   2.6291   3.1054   3.2249   3.3491   3.4054   4.1491   4.1853

     highest occupied level (ev):     4.4960

!    total energy              =    -367.42352006 Ry
     Harris-Foulkes estimate   =    -367.42352006 Ry
     estimated scf accuracy    <          7.0E-11 Ry

     The total energy is the sum of the following terms:

     one-electron contribution =    -144.86660030 Ry
     hartree contribution      =     101.92890466 Ry
     xc contribution           =     -75.21509122 Ry
     ewald contribution        =    -249.27073320 Ry

     convergence has been achieved in   7 iterations

     Forces acting on atoms (cartesian axes, Ry/au):

     atom    1 type  1   force =     0.00000000    0.00000000    0.00000000
     atom    2 type  1   force =     0.00000000   -0.00000000    0.00000000
     atom    3 type  2   force =     0.00000000   -0.00000000    0.00000000
     atom    4 type  2   force =    -0.00000000   -0.00000000   -0.00000000
     atom    5 type  3   force =    -0.00003306    0.00005727    0.00000000
     atom    6 type  3   force =     0.00006613   -0.00000000   -0.00000000
     atom    7 type  3   force =    -0.00003306   -0.00005727   -0.00000000
     atom    8 type  3   force =    -0.00006613    0.00000000    0.00000000
     atom    9 type  3   force =     0.00003306    0.00005727    0.00000000
     atom   10 type  3   force =     0.00003306   -0.00005727   -0.00000000

     Total force =     0.000162     Total SCF correction =     0.000027
     SCF correction compared to forces is large: reduce conv_thr to get better values


     Computing stress (Cartesian axis) and pressure

          total   stress  (Ry/bohr**3)                   (kbar)     P=  -13.87
  -0.00020991  -0.00000000  -0.00000000        -30.88     -0.00     -0.00
  -0.00000000  -0.00020991  -0.00000000         -0.00    -30.88     -0.00
   0.00000000  -0.00000000   0.00013695          0.00     -0.00     20.15


     bfgs converged in   4 scf cycles and   3 bfgs steps
     (criteria: energy <  1.0E-04 Ry, force <  1.0E-03 Ry/Bohr)

     End of BFGS Geometry Optimization

     Final energy   =    -367.4235200609 Ry
Begin final coordinates

ATOMIC_POSITIONS (crystal)
Ca       0.500000000   0.500000000   0.500000000
Ca       0.000000000  -0.000000000  -0.000000000
C        0.250000000   0.250000000   0.250000000
C        0.750000000   0.750000000   0.750000000
O        0.499219553   1.000780447   0.250000000
O        1.000780447   0.250000000   0.499219553
O        0.250000000   0.499219553   1.000780447
O       -0.000780447   0.750000000   0.500780447
O        0.750000000   0.500780447  -0.000780447
O        0.500780447  -0.000780447   0.750000000
End final coordinates



     Writing output data file CCO_rand5.save/
 
     init_run     :      4.71s CPU      6.22s WALL (       1 calls)
     electrons    :    537.79s CPU    600.75s WALL (       4 calls)
     update_pot   :      0.30s CPU      0.33s WALL (       3 calls)
     forces       :      1.93s CPU      2.06s WALL (       4 calls)
     stress       :      4.24s CPU      4.38s WALL (       4 calls)

     Called by init_run:
     wfcinit      :      4.41s CPU      5.32s WALL (       1 calls)
     potinit      :      0.04s CPU      0.12s WALL (       1 calls)
     hinit0       :      0.19s CPU      0.45s WALL (       1 calls)

     Called by electrons:
     c_bands      :    503.99s CPU    564.42s WALL (      34 calls)
     sum_band     :     32.72s CPU     34.80s WALL (      34 calls)
     v_of_rho     :      0.59s CPU      0.66s WALL (      37 calls)
     newd         :      0.40s CPU      0.54s WALL (      37 calls)
     mix_rho      :      0.07s CPU      0.13s WALL (      34 calls)

     Called by c_bands:
     init_us_2    :      1.16s CPU      1.35s WALL (    3388 calls)
     ccgdiagg     :    419.00s CPU    463.42s WALL (    1519 calls)
     wfcrot       :     88.19s CPU    103.36s WALL (    1343 calls)

     Called by sum_band:
     sum_band:bec :      0.38s CPU      0.43s WALL (    1496 calls)
     addusdens    :      0.37s CPU      0.43s WALL (      34 calls)

     Called by *cgdiagg:
     h_psi        :    345.61s CPU    374.17s WALL (  164779 calls)
     s_psi        :     32.51s CPU     37.97s WALL (  328215 calls)
     cdiaghg      :     27.77s CPU     38.67s WALL (    1343 calls)

     Called by h_psi:
     h_psi:pot    :    339.64s CPU    367.15s WALL (  164779 calls)
     h_psi:calbec :     37.65s CPU     41.26s WALL (  164779 calls)
     vloc_psi     :    275.13s CPU    296.71s WALL (  164779 calls)
     add_vuspsi   :     20.26s CPU     22.88s WALL (  164779 calls)
     hs_1psi      :    319.60s CPU    347.53s WALL (  163436 calls)
     s_1psi       :     49.32s CPU     57.07s WALL (  163436 calls)

     General routines
     calbec       :     57.97s CPU     66.56s WALL (  330591 calls)
     fft          :      0.63s CPU      0.76s WALL (     511 calls)
     ffts         :      0.04s CPU      0.04s WALL (      34 calls)
     fftw         :    288.13s CPU    309.56s WALL (  462456 calls)
 
     Parallel routines
     fft_scatt_xy :     16.11s CPU     17.36s WALL (  463001 calls)
     fft_scatt_yz :    218.22s CPU    235.05s WALL (  463001 calls)
 
     PWSCF        :   9m11.40s CPU  10m19.18s WALL

 
   This run was terminated on:  23:45: 7   3May2022            

=------------------------------------------------------------------------------=
   JOB DONE.
=------------------------------------------------------------------------------=
