
     Program PWSCF v.6.4.1 starts on  4May2022 at  0: 1:59 

     This program is part of the open-source Quantum ESPRESSO suite
     for quantum simulation of materials; please cite
         "P. Giannozzi et al., J. Phys.:Condens. Matter 21 395502 (2009);
         "P. Giannozzi et al., J. Phys.:Condens. Matter 29 465901 (2017);
          URL http://www.quantum-espresso.org", 
     in publications or presentations arising from this work. More details at
     http://www.quantum-espresso.org/quote

     Parallel version (MPI & OpenMP), running on      68 processor cores
     Number of MPI processes:                68
     Threads/MPI process:                     1

     MPI processes distributed on     1 nodes
     R & G space division:  proc/nbgrp/npool/nimage =      68
     Waiting for input...
     Reading input from standard input
Warning: card &CELL ignored
Warning: card  CELL_DYNAMICS = 'BFGS', ignored
Warning: card  PRESS=0.1D0, ignored
Warning: card / ignored

     Current dimensions of program PWSCF are:
     Max number of different atomic species (ntypx) = 10
     Max number of k-points (npk) =  40000
     Max angular momentum in pseudopotentials (lmaxx) =  3

     Subspace diagonalization in iterative solution of the eigenvalue problem:
     one sub-group per band group will be used
     scalapack distributed-memory algorithm (size of sub-group:  5*  5 procs)

 
     Parallelization info
     --------------------
     sticks:   dense  smooth     PW     G-vecs:    dense   smooth      PW
     Min          32      32      9                  927      927     144
     Max          33      33     10                  931      931     148
     Sum        2215    2215    645                63185    63185    9911
 


     bravais-lattice index     =            5
     lattice parameter (alat)  =      11.3568  a.u.
     unit-cell volume          =     798.0902 (a.u.)^3
     number of atoms/cell      =           10
     number of atomic types    =            3
     number of electrons       =        64.00
     number of Kohn-Sham states=           32
     kinetic-energy cutoff     =      70.0000  Ry
     charge density cutoff     =     280.0000  Ry
     convergence threshold     =      1.0E-08
     mixing beta               =       0.7000
     number of iterations used =            8  plain     mixing
     Exchange-correlation      = SLA  PW   PBE  PBE ( 1  4  3  4 0 0)
     nstep                     =           50


     celldm(1)=  11.356800  celldm(2)=   0.000000  celldm(3)=   0.000000
     celldm(4)=   0.639000  celldm(5)=   0.000000  celldm(6)=   0.000000

     crystal axes: (cart. coord. in units of alat)
               a(1) = (   0.424853  -0.245289   0.871397 )  
               a(2) = (   0.000000   0.490578   0.871397 )  
               a(3) = (  -0.424853  -0.245289   0.871397 )  

     reciprocal axes: (cart. coord. in units 2 pi/alat)
               b(1) = (  1.176878 -0.679471  0.382527 )  
               b(2) = (  0.000000  1.358942  0.382527 )  
               b(3) = ( -1.176878 -0.679471  0.382527 )  


     PseudoPot. # 1 for Ca read from file:
     ./Ca_PBE.UPF
     MD5 check sum: 403a4c14b9e4d4dfdc3024c9a3812218
     Pseudo is Ultrasoft + core correction, Zval = 10.0
     Generated by new atomic code, or converted to UPF format
     Using radial grid of  845 points,  6 beta functions with: 
                l(1) =   0
                l(2) =   0
                l(3) =   1
                l(4) =   1
                l(5) =   2
                l(6) =   2
     Q(r) pseudized with  8 coefficients,  rinner =    1.500   1.500   1.500
                                                       1.500   1.500

     PseudoPot. # 2 for C  read from file:
     ./C_PBE.UPF
     MD5 check sum: d1aef80898a10debaa0f26306b886e00
     Pseudo is Ultrasoft + core correction, Zval =  4.0
     Generated by new atomic code, or converted to UPF format
     Using radial grid of  721 points,  4 beta functions with: 
                l(1) =   0
                l(2) =   0
                l(3) =   1
                l(4) =   1
     Q(r) pseudized with  8 coefficients,  rinner =    1.100   1.100   1.100


     PseudoPot. # 3 for O  read from file:
     ./O_PBE.UPF
     MD5 check sum: 734c27235a0248c51dbae37a1fbe46ec
     Pseudo is Ultrasoft + core correction, Zval =  6.0
     Generated by new atomic code, or converted to UPF format
     Using radial grid of  737 points,  5 beta functions with: 
                l(1) =   0
                l(2) =   0
                l(3) =   1
                l(4) =   1
                l(5) =   2
     Q(r) pseudized with  8 coefficients,  rinner =    0.900   0.900   0.900
                                                       0.900   0.900

     atomic species   valence    mass     pseudopotential
        Ca            10.00    40.07800     Ca( 1.00)
        C              4.00    12.01070     C ( 1.00)
        O              6.00    16.00000     O ( 1.00)

     12 Sym. Ops., with inversion, found ( 6 have fractional translation)



   Cartesian axes

     site n.     atom                  positions (alat units)
         1           Ca  tau(   1) = (   0.0000000  -0.0000000   1.3070960  )
         2           Ca  tau(   2) = (   0.0000000   0.0000000   0.0000000  )
         3           C   tau(   3) = (   0.0000000  -0.0000000   0.6535480  )
         4           C   tau(   4) = (   0.0000000  -0.0000000   1.9606440  )
         5           O   tau(   5) = (   0.1091944   0.3014476   1.5249454  )
         6           O   tau(   6) = (   0.2064641  -0.2452889   1.5249454  )
         7           O   tau(   7) = (  -0.3156585  -0.0561587   1.5249454  )
         8           O   tau(   8) = (  -0.2064641   0.2452889   1.0892467  )
         9           O   tau(   9) = (   0.3156585   0.0561587   1.0892467  )
        10           O   tau(  10) = (  -0.1091944  -0.3014476   1.0892467  )

     number of k points=    44
                       cart. coord. in units 2pi/alat
        k(    1) = (   0.0000000   0.0000000   0.0000000), wk =   0.0058309
        k(    2) = (  -0.1681254  -0.0970673   0.0546468), wk =   0.0349854
        k(    3) = (  -0.3362508  -0.1941345   0.1092935), wk =   0.0349854
        k(    4) = (  -0.5043762  -0.2912018   0.1639403), wk =   0.0349854
        k(    5) = (  -0.1681254   0.0970673   0.1092935), wk =   0.0349854
        k(    6) = (  -0.3362508  -0.0000000   0.1639403), wk =   0.0699708
        k(    7) = (  -0.5043762  -0.0970673   0.2185871), wk =   0.0699708
        k(    8) = (   0.5043762   0.4853363  -0.1092935), wk =   0.0699708
        k(    9) = (   0.3362508   0.3882690  -0.0546468), wk =   0.0699708
        k(   10) = (   0.1681254   0.2912018   0.0000000), wk =   0.0349854
        k(   11) = (  -0.3362508   0.1941345   0.2185871), wk =   0.0349854
        k(   12) = (  -0.5043762   0.0970673   0.2732338), wk =   0.0699708
        k(   13) = (   0.5043762   0.6794708  -0.0546468), wk =   0.0699708
        k(   14) = (   0.3362508   0.5824035   0.0000000), wk =   0.0349854
        k(   15) = (  -0.5043762   0.2912018   0.3278806), wk =   0.0349854
        k(   16) = (   0.5043762   0.8736053   0.0000000), wk =   0.0349854
        k(   17) = (  -0.0000000  -0.0000000   0.1639403), wk =   0.0116618
        k(   18) = (  -0.1681254  -0.0970673   0.2185871), wk =   0.0349854
        k(   19) = (  -0.3362508  -0.1941345   0.2732338), wk =   0.0349854
        k(   20) = (   0.6725016   0.3882690  -0.0546468), wk =   0.0349854
        k(   21) = (   0.5043762   0.2912018   0.0000000), wk =   0.0349854
        k(   22) = (   0.3362508   0.1941345   0.0546468), wk =   0.0349854
        k(   23) = (  -0.1681254   0.0970673   0.2732338), wk =   0.0349854
        k(   24) = (  -0.3362508  -0.0000000   0.3278806), wk =   0.0699708
        k(   25) = (   0.6725016   0.5824035   0.0000000), wk =   0.0699708
        k(   26) = (   0.5043762   0.4853363   0.0546468), wk =   0.0699708
        k(   27) = (   0.3362508   0.3882690   0.1092935), wk =   0.0699708
        k(   28) = (  -0.3362508   0.1941345   0.3825274), wk =   0.0349854
        k(   29) = (   0.6725016   0.7765380   0.0546468), wk =   0.0699708
        k(   30) = (   0.5043762   0.6794708   0.1092935), wk =   0.0699708
        k(   31) = (   0.3362508   0.5824035   0.1639403), wk =   0.0699708
        k(   32) = (   0.6725016  -0.3882690  -0.2732338), wk =   0.0349854
        k(   33) = (   0.5043762  -0.4853363  -0.2185871), wk =   0.0699708
        k(   34) = (   0.5043762  -0.2912018  -0.1639403), wk =   0.0349854
        k(   35) = (  -0.0000000  -0.0000000   0.3278806), wk =   0.0116618
        k(   36) = (  -0.1681254  -0.0970673   0.3825274), wk =   0.0349854
        k(   37) = (   0.8406271   0.4853363   0.0546468), wk =   0.0349854
        k(   38) = (   0.6725016   0.3882690   0.1092935), wk =   0.0349854
        k(   39) = (  -0.1681254   0.0970673   0.4371741), wk =   0.0349854
        k(   40) = (   0.8406271   0.6794708   0.1092935), wk =   0.0699708
        k(   41) = (   0.6725016   0.5824035   0.1639403), wk =   0.0699708
        k(   42) = (   0.8406271  -0.4853363  -0.2185871), wk =   0.0349854
        k(   43) = (  -0.0000000  -0.0000000   0.4918209), wk =   0.0116618
        k(   44) = (   1.0087525   0.5824035   0.1639403), wk =   0.0349854

     Dense  grid:    63185 G-vectors     FFT dimensions: (  64,  64,  64)

     Estimated max dynamical RAM per process >      13.87 MB

     Estimated total dynamical RAM >     942.99 MB

     Check: negative core charge=   -0.000003

     Initial potential from superposition of free atoms

     starting charge   63.98899, renormalised to   64.00000
     Starting wfcs are   52 randomized atomic wfcs

     total cpu time spent up to now is        7.3 secs

     Self-consistent Calculation

     iteration #  1     ecut=    70.00 Ry     beta= 0.70
     CG style diagonalization
     ethr =  1.00E-02,  avg # of iterations =  2.6

     total cpu time spent up to now is       18.8 secs

     total energy              =    -366.64153191 Ry
     Harris-Foulkes estimate   =    -367.86095066 Ry
     estimated scf accuracy    <       1.75093890 Ry

     iteration #  2     ecut=    70.00 Ry     beta= 0.70
     CG style diagonalization
     ethr =  2.74E-03,  avg # of iterations =  4.4

     total cpu time spent up to now is       36.4 secs

     total energy              =    -367.07025706 Ry
     Harris-Foulkes estimate   =    -367.91533390 Ry
     estimated scf accuracy    <       1.75433011 Ry

     iteration #  3     ecut=    70.00 Ry     beta= 0.70
     CG style diagonalization
     ethr =  2.74E-03,  avg # of iterations =  3.8

     total cpu time spent up to now is       51.6 secs

     total energy              =    -367.40087232 Ry
     Harris-Foulkes estimate   =    -367.40320193 Ry
     estimated scf accuracy    <       0.01079307 Ry

     iteration #  4     ecut=    70.00 Ry     beta= 0.70
     CG style diagonalization
     ethr =  1.69E-05,  avg # of iterations =  4.5

     total cpu time spent up to now is       69.6 secs

     total energy              =    -367.41218550 Ry
     Harris-Foulkes estimate   =    -367.41337215 Ry
     estimated scf accuracy    <       0.00302884 Ry

     iteration #  5     ecut=    70.00 Ry     beta= 0.70
     CG style diagonalization
     ethr =  4.73E-06,  avg # of iterations =  3.6

     total cpu time spent up to now is       84.3 secs

     total energy              =    -367.41265824 Ry
     Harris-Foulkes estimate   =    -367.41268516 Ry
     estimated scf accuracy    <       0.00015232 Ry

     iteration #  6     ecut=    70.00 Ry     beta= 0.70
     CG style diagonalization
     ethr =  2.38E-07,  avg # of iterations =  4.1

     total cpu time spent up to now is      100.8 secs

     total energy              =    -367.41269850 Ry
     Harris-Foulkes estimate   =    -367.41271034 Ry
     estimated scf accuracy    <       0.00002169 Ry

     iteration #  7     ecut=    70.00 Ry     beta= 0.70
     CG style diagonalization
     ethr =  3.39E-08,  avg # of iterations =  4.1

     total cpu time spent up to now is      117.1 secs

     total energy              =    -367.41270750 Ry
     Harris-Foulkes estimate   =    -367.41270854 Ry
     estimated scf accuracy    <       0.00000280 Ry

     iteration #  8     ecut=    70.00 Ry     beta= 0.70
     CG style diagonalization
     ethr =  4.37E-09,  avg # of iterations =  3.8

     total cpu time spent up to now is      132.2 secs

     total energy              =    -367.41270817 Ry
     Harris-Foulkes estimate   =    -367.41270823 Ry
     estimated scf accuracy    <       0.00000015 Ry

     iteration #  9     ecut=    70.00 Ry     beta= 0.70
     CG style diagonalization
     ethr =  2.39E-10,  avg # of iterations =  4.2

     total cpu time spent up to now is      148.9 secs

     total energy              =    -367.41270822 Ry
     Harris-Foulkes estimate   =    -367.41270824 Ry
     estimated scf accuracy    <       0.00000003 Ry

     iteration # 10     ecut=    70.00 Ry     beta= 0.70
     CG style diagonalization
     ethr =  5.09E-11,  avg # of iterations =  3.7

     total cpu time spent up to now is      163.8 secs

     End of self-consistent calculation

          k = 0.0000 0.0000 0.0000 (  7893 PWs)   bands (ev):

   -32.6687 -32.6478 -16.2583 -16.1740 -14.3238 -14.3238 -13.7633 -13.7633
   -13.6914 -13.5918 -13.2018 -13.2018 -12.3809 -12.3809  -2.7075  -2.4407
    -1.0506  -0.9044  -0.9044  -0.6019  -0.6019   0.6072   2.9817   2.9817
     3.2216   3.2216   3.6067   3.6067   4.3730   4.4070   4.4070   4.8883

          k =-0.1681-0.0971 0.0546 (  7873 PWs)   bands (ev):

   -32.6676 -32.6487 -16.2777 -16.1563 -14.3227 -14.2487 -13.9165 -13.7840
   -13.7128 -13.6799 -13.1235 -12.9568 -12.4806 -12.4020  -2.6298  -2.4729
    -0.9804  -0.8716  -0.8315  -0.6319  -0.5994   0.4949   3.0242   3.0652
     3.1793   3.2628   3.4433   3.5196   4.2589   4.3048   4.5667   4.8611

          k =-0.3363-0.1941 0.1093 (  7893 PWs)   bands (ev):

   -32.6644 -32.6514 -16.2961 -16.1413 -14.3132 -14.1519 -14.1297 -13.8905
   -13.6779 -13.6457 -12.9711 -12.7180 -12.6700 -12.4691  -2.4986  -2.4817
    -0.9348  -0.7956  -0.6524  -0.6275  -0.5565   0.2803   2.9966   3.0108
     3.1673   3.1894   3.3843   3.4592   4.0641   4.0913   4.7892   4.8144

          k =-0.5044-0.2912 0.1639 (  7895 PWs)   bands (ev):

   -32.6601 -32.6554 -16.2618 -16.1867 -14.2302 -14.1751 -14.1542 -14.0474
   -13.6462 -13.6038 -12.8101 -12.7026 -12.6730 -12.5939  -2.4516  -2.4104
    -0.9357  -0.8455  -0.6062  -0.5825  -0.2330   0.0623   2.7934   2.8746
     3.1017   3.1470   3.4952   3.5738   3.9050   3.9109   4.8276   4.8738

          k =-0.1681 0.0971 0.1093 (  7863 PWs)   bands (ev):

   -32.6673 -32.6490 -16.2798 -16.1555 -14.2869 -14.2807 -13.8827 -13.7996
   -13.7422 -13.7043 -13.0271 -13.0045 -12.4551 -12.4429  -2.6252  -2.4884
    -0.9427  -0.8559  -0.8550  -0.6393  -0.5866   0.4743   3.0325   3.0538
     3.1691   3.2540   3.4959   3.5112   4.2007   4.3468   4.5562   4.8466

          k =-0.3363-0.0000 0.1639 (  7885 PWs)   bands (ev):

   -32.6650 -32.6509 -16.2988 -16.1396 -14.2967 -14.2454 -13.9749 -13.8898
   -13.7000 -13.6905 -12.9434 -12.8486 -12.5648 -12.4780  -2.5197  -2.5102
    -0.8970  -0.8052  -0.7530  -0.5894  -0.5661   0.3077   2.9880   3.0905
     3.1264   3.2471   3.3645   3.4911   4.0101   4.2158   4.7418   4.8063

          k =-0.5044-0.0971 0.2186 (  7888 PWs)   bands (ev):

   -32.6614 -32.6542 -16.2773 -16.1721 -14.2952 -14.2189 -14.0449 -13.9738
   -13.6714 -13.6197 -12.8852 -12.8015 -12.5876 -12.5345  -2.4718  -2.4280
    -0.9007  -0.8246  -0.6843  -0.5628  -0.3014   0.1322   2.8189   2.9592
     3.0961   3.1262   3.4110   3.5445   3.8777   4.0457   4.8223   4.8728

          k = 0.5044 0.4853-0.1093 (  7899 PWs)   bands (ev):

   -32.6583 -32.6571 -16.2522 -16.2020 -14.2731 -14.1851 -14.1272 -13.9870
   -13.6521 -13.6178 -12.8678 -12.7380 -12.6412 -12.5437  -2.4535  -2.3771
    -0.9475  -0.8321  -0.6247  -0.5518  -0.0965  -0.0200   2.7498   2.8253
     3.0507   3.1409   3.4437   3.5217   3.9199   3.9546   4.8468   4.9084

          k = 0.3363 0.3883-0.0546 (  7887 PWs)   bands (ev):

   -32.6625 -32.6531 -16.3083 -16.1315 -14.3362 -14.2101 -14.1013 -13.8783
   -13.6977 -13.5888 -12.9539 -12.7817 -12.5831 -12.5113  -2.5141  -2.3738
    -0.9712  -0.7392  -0.6482  -0.5790  -0.4109   0.1737   2.7726   3.0206
     3.0802   3.1533   3.3212   3.5833   3.9425   4.0553   4.7922   4.9118

          k = 0.1681 0.2912 0.0000 (  7885 PWs)   bands (ev):

   -32.6658 -32.6502 -16.3053 -16.1284 -14.2793 -14.2706 -13.9511 -13.9104
   -13.7195 -13.6696 -12.9571 -12.8584 -12.5523 -12.4691  -2.5104  -2.5002
    -0.9384  -0.7867  -0.7525  -0.6325  -0.5779   0.3477   2.9869   3.0987
     3.1520   3.2541   3.3307   3.4408   4.0907   4.2167   4.7463   4.8213

          k =-0.3363 0.1941 0.2186 (  7875 PWs)   bands (ev):

   -32.6641 -32.6517 -16.3266 -16.1117 -14.3315 -14.2722 -13.8995 -13.8570
   -13.7385 -13.7096 -12.9021 -12.8685 -12.5450 -12.5117  -2.5773  -2.4178
    -0.9085  -0.7696  -0.7494  -0.5342  -0.4926   0.2116   2.8712   3.0562
     3.0812   3.3120   3.3445   3.6186   3.8190   4.2350   4.7403   4.8206

          k =-0.5044 0.0971 0.2732 (  7880 PWs)   bands (ev):

   -32.6619 -32.6537 -16.3263 -16.1198 -14.3768 -14.2636 -13.9594 -13.8175
   -13.7043 -13.6356 -13.0396 -12.7991 -12.5738 -12.4656  -2.5659  -2.3338
    -0.9265  -0.7893  -0.6982  -0.5033  -0.3008   0.1058   2.7142   2.9588
     3.0771   3.2611   3.3508   3.5438   3.8085   4.1392   4.7334   4.9383

          k = 0.5044 0.6795-0.0546 (  7907 PWs)   bands (ev):

   -32.6589 -32.6565 -16.2645 -16.1982 -14.3219 -14.1862 -14.0459 -13.9195
   -13.6978 -13.6419 -12.9515 -12.7611 -12.6030 -12.4962  -2.4493  -2.3719
    -0.9036  -0.8425  -0.7014  -0.4977  -0.0706   0.0158   2.6845   2.7899
     3.0895   3.1731   3.3572   3.3851   3.9286   4.0489   4.8532   4.9365

          k = 0.3363 0.5824 0.0000 (  7913 PWs)   bands (ev):

   -32.6596 -32.6558 -16.2803 -16.1747 -14.3145 -14.2167 -14.1155 -13.8321
   -13.7164 -13.6127 -12.9693 -12.7644 -12.6056 -12.4858  -2.4723  -2.3448
    -0.9817  -0.7182  -0.6965  -0.5362  -0.1766   0.0779   2.6814   2.8428
     3.0516   3.1258   3.3467   3.4702   3.9921   3.9948   4.8388   4.9603

          k =-0.5044 0.2912 0.3279 (  7898 PWs)   bands (ev):

   -32.6615 -32.6539 -16.3628 -16.0739 -14.4352 -14.3782 -13.7560 -13.7251
   -13.7135 -13.5991 -13.1335 -13.0173 -12.4557 -12.4326  -2.6370  -2.2176
    -1.0074  -0.7549  -0.6209  -0.4590  -0.2580   0.0244   2.5970   2.8918
     3.1159   3.3524   3.3580   3.4414   3.8441   4.1342   4.6315   5.0192

          k = 0.5044 0.8736 0.0000 (  7904 PWs)   bands (ev):

   -32.6605 -32.6549 -16.3389 -16.1113 -14.3752 -14.3611 -13.8207 -13.7942
   -13.7098 -13.6123 -13.1169 -12.9097 -12.4955 -12.4404  -2.5836  -2.2409
    -0.9637  -0.8122  -0.6501  -0.4564  -0.1585   0.0266   2.5789   2.8397
     3.1736   3.2373   3.3369   3.3655   3.9116   4.0915   4.6967   5.0239

          k =-0.0000-0.0000 0.1639 (  7845 PWs)   bands (ev):

   -32.6677 -32.6488 -16.2555 -16.1796 -14.3078 -14.3078 -13.8241 -13.8241
   -13.6844 -13.5948 -13.1281 -13.1281 -12.4100 -12.4100  -2.7098  -2.4784
    -0.9470  -0.8876  -0.8876  -0.6156  -0.6156   0.5412   2.9976   2.9976
     3.2209   3.2209   3.6271   3.6271   4.3534   4.3534   4.3925   4.8503

          k =-0.1681-0.0971 0.2186 (  7879 PWs)   bands (ev):

   -32.6660 -32.6503 -16.2668 -16.1724 -14.3300 -14.1918 -14.0376 -13.7524
   -13.7283 -13.6426 -13.1095 -12.8654 -12.5501 -12.4135  -2.6441  -2.5066
    -0.8952  -0.8587  -0.7472  -0.6374  -0.6202   0.4050   3.0234   3.0880
     3.1869   3.2411   3.4444   3.6098   4.1733   4.2404   4.5695   4.8183

          k =-0.3363-0.1941 0.2732 (  7900 PWs)   bands (ev):

   -32.6626 -32.6532 -16.2606 -16.1871 -14.3050 -14.2000 -14.0854 -13.8746
   -13.6715 -13.6482 -12.9632 -12.7165 -12.6950 -12.4668  -2.5385  -2.4716
    -0.8593  -0.8327  -0.6691  -0.6484  -0.4134   0.2024   2.9702   3.0872
     3.1224   3.1556   3.3719   3.5907   3.9338   4.0530   4.7568   4.8183

          k = 0.6725 0.3883-0.0546 (  7895 PWs)   bands (ev):

   -32.6584 -32.6571 -16.2528 -16.2006 -14.3038 -14.1723 -14.1008 -13.9877
   -13.6499 -13.6113 -12.8502 -12.7785 -12.6484 -12.5281  -2.5063  -2.3616
    -0.9506  -0.8087  -0.6428  -0.5626  -0.1279  -0.0161   2.7747   2.8780
     3.0593   3.1970   3.4560   3.6804   3.7764   3.9308   4.7984   4.8917

          k = 0.5044 0.2912 0.0000 (  7889 PWs)   bands (ev):

   -32.6613 -32.6542 -16.3144 -16.1259 -14.3208 -14.2853 -14.0288 -13.9233
   -13.6818 -13.5648 -12.9602 -12.7670 -12.5948 -12.5175  -2.5373  -2.3174
    -1.0030  -0.7258  -0.6402  -0.5530  -0.3161   0.0948   2.6988   2.9286
     3.0517   3.2461   3.3679   3.7079   3.8019   4.0098   4.7545   4.9406

          k = 0.3363 0.1941 0.0546 (  7883 PWs)   bands (ev):

   -32.6650 -32.6509 -16.3193 -16.1138 -14.3100 -14.2505 -14.0146 -13.8595
   -13.7126 -13.6738 -12.9545 -12.7816 -12.6033 -12.4810  -2.5361  -2.4374
    -0.9375  -0.7826  -0.7129  -0.5753  -0.5682   0.2802   2.9178   3.0221
     3.1916   3.2615   3.2674   3.5455   3.9821   4.2006   4.7855   4.8092

          k =-0.1681 0.0971 0.2732 (  7880 PWs)   bands (ev):

   -32.6652 -32.6511 -16.2723 -16.1698 -14.3014 -14.2076 -14.0068 -13.8305
   -13.7062 -13.6862 -12.9901 -12.8812 -12.5328 -12.4752  -2.6293  -2.5442
    -0.8666  -0.8130  -0.7650  -0.6207  -0.6026   0.3450   3.0426   3.0598
     3.1771   3.2219   3.5264   3.6301   4.0612   4.2877   4.5638   4.7819

          k =-0.3363-0.0000 0.3279 (  7895 PWs)   bands (ev):

   -32.6629 -32.6531 -16.2794 -16.1697 -14.2998 -14.2309 -13.9949 -13.8635
   -13.7260 -13.6732 -12.9105 -12.8296 -12.5867 -12.5055  -2.5395  -2.5325
    -0.8261  -0.7971  -0.7661  -0.5910  -0.4288   0.1890   2.9840   3.0305
     3.1468   3.2751   3.3751   3.6243   3.8553   4.1578   4.7316   4.7726

          k = 0.6725 0.5824 0.0000 (  7894 PWs)   bands (ev):

   -32.6595 -32.6560 -16.2367 -16.2231 -14.3019 -14.2055 -14.0388 -13.9210
   -13.6783 -13.6652 -12.9041 -12.7637 -12.6377 -12.5058  -2.4872  -2.4271
    -0.8989  -0.7701  -0.7390  -0.5523  -0.1718   0.0447   2.8319   2.8733
     3.0959   3.2190   3.4001   3.5474   3.8351   3.9990   4.8224   4.8534

          k = 0.5044 0.4853 0.0546 (  7894 PWs)   bands (ev):

   -32.6594 -32.6560 -16.2970 -16.1558 -14.3349 -14.2516 -14.0613 -13.8379
   -13.6935 -13.6078 -12.9928 -12.7606 -12.6179 -12.4757  -2.5212  -2.3071
    -0.9971  -0.7196  -0.6683  -0.5418  -0.1535   0.0281   2.6651   2.8603
     3.0161   3.2330   3.3907   3.5266   3.9016   3.9829   4.7816   4.9653

          k = 0.3363 0.3883 0.1093 (  7879 PWs)   bands (ev):

   -32.6627 -32.6529 -16.3257 -16.1125 -14.3696 -14.2413 -14.0524 -13.8017
   -13.7202 -13.5953 -13.0293 -12.7570 -12.6074 -12.4694  -2.5477  -2.3400
    -0.9708  -0.7437  -0.6496  -0.5608  -0.3987   0.1615   2.7324   3.0214
     3.0509   3.2062   3.3087   3.6094   3.8760   4.1136   4.7573   4.9352

          k =-0.3363 0.1941 0.3825 (  7885 PWs)   bands (ev):

   -32.6620 -32.6538 -16.3150 -16.1339 -14.3763 -14.2083 -13.9457 -13.8267
   -13.7331 -13.6813 -12.9517 -12.8345 -12.5637 -12.5028  -2.6074  -2.4208
    -0.9157  -0.7468  -0.6987  -0.5424  -0.3525   0.0898   2.8557   2.9944
     3.1651   3.3191   3.3995   3.6349   3.7010   4.1772   4.7048   4.8236

          k = 0.6725 0.7765 0.0546 (  7885 PWs)   bands (ev):

   -32.6603 -32.6553 -16.3080 -16.1493 -14.3601 -14.2583 -13.9084 -13.8335
   -13.7173 -13.6849 -12.9747 -12.8551 -12.5342 -12.4972  -2.5627  -2.3517
    -0.9190  -0.7978  -0.6713  -0.5183  -0.1857   0.0283   2.7247   2.8927
     3.1818   3.3013   3.3341   3.4402   3.8196   4.0847   4.7386   4.9207

          k = 0.5044 0.6795 0.1093 (  7906 PWs)   bands (ev):

   -32.6581 -32.6572 -16.2454 -16.2216 -14.2890 -14.2308 -13.9847 -13.9290
   -13.7124 -13.6761 -12.8952 -12.8210 -12.5614 -12.5212  -2.4252  -2.3980
    -0.9090  -0.8531  -0.6516  -0.5312  -0.0286  -0.0097   2.7023   2.7403
     3.1320   3.1966   3.3372   3.3576   3.9477   4.0119   4.8786   4.9098

          k = 0.3363 0.5824 0.1639 (  7899 PWs)   bands (ev):

   -32.6594 -32.6559 -16.2764 -16.1810 -14.3233 -14.1991 -14.0912 -13.8807
   -13.6884 -13.6254 -12.9708 -12.7519 -12.6129 -12.4869  -2.4662  -2.3522
    -0.9414  -0.8295  -0.6037  -0.5684  -0.1361   0.0576   2.6810   2.8292
     3.0711   3.1279   3.3487   3.4433   3.9621   4.0286   4.8410   4.9540

          k = 0.6725-0.3883-0.2732 (  7904 PWs)   bands (ev):

   -32.6605 -32.6550 -16.3491 -16.0951 -14.4384 -14.3404 -13.7987 -13.7452
   -13.7089 -13.5925 -13.0633 -13.0495 -12.4607 -12.4413  -2.6311  -2.2312
    -1.0121  -0.7441  -0.5919  -0.5030  -0.1925  -0.0127   2.6153   2.8778
     3.1587   3.3134   3.3584   3.4506   3.8358   4.0848   4.6499   5.0036

          k = 0.5044-0.4853-0.2186 (  7901 PWs)   bands (ev):

   -32.6602 -32.6552 -16.3279 -16.1231 -14.3679 -14.3303 -13.9299 -13.7418
   -13.7172 -13.6237 -13.0836 -12.8643 -12.5323 -12.4441  -2.5673  -2.2583
    -0.9858  -0.7846  -0.6062  -0.5216  -0.1624   0.0345   2.6019   2.8502
     3.0744   3.2804   3.3707   3.4097   3.9065   4.0522   4.7223   5.0080

          k = 0.5044-0.2912-0.1639 (  7900 PWs)   bands (ev):

   -32.6618 -32.6537 -16.3502 -16.0848 -14.3829 -14.3723 -13.8767 -13.7956
   -13.7096 -13.5573 -13.0912 -12.9020 -12.5083 -12.4526  -2.6033  -2.2480
    -1.0145  -0.7352  -0.5915  -0.5361  -0.3113   0.0739   2.6269   2.9395
     3.0214   3.3191   3.3603   3.6154   3.8046   4.0976   4.6763   4.9946

          k =-0.0000-0.0000 0.3279 (  7856 PWs)   bands (ev):

   -32.6648 -32.6517 -16.2470 -16.1944 -14.2599 -14.2599 -13.9480 -13.9480
   -13.6659 -13.6041 -12.9685 -12.9685 -12.4944 -12.4944  -2.7093  -2.5607
    -0.8419  -0.8419  -0.6772  -0.6544  -0.6544   0.3468   3.0419   3.0419
     3.2067   3.2067   3.7003   3.7003   4.2102   4.2102   4.4481   4.7550

          k =-0.1681-0.0971 0.3825 (  7874 PWs)   bands (ev):

   -32.6628 -32.6534 -16.2479 -16.1991 -14.3035 -14.1407 -14.1209 -13.8504
   -13.6904 -13.6303 -12.9936 -12.7544 -12.6537 -12.4743  -2.6548  -2.5619
    -0.8252  -0.7939  -0.6905  -0.6822  -0.4773   0.2070   3.0377   3.1104
     3.1800   3.1965   3.5261   3.7621   3.9864   4.1410   4.5816   4.7418

          k = 0.8406 0.4853 0.0546 (  7904 PWs)   bands (ev):

   -32.6599 -32.6560 -16.2389 -16.2174 -14.3462 -14.1571 -14.0908 -13.8095
   -13.7169 -13.6351 -12.9797 -12.7162 -12.6972 -12.4681  -2.5878  -2.4523
    -0.8815  -0.7396  -0.6890  -0.6468  -0.2410   0.0495   2.9073   3.0282
     3.2103   3.2302   3.3089   3.7473   3.7922   3.9836   4.7186   4.8157

          k = 0.6725 0.3883 0.1093 (  7896 PWs)   bands (ev):

   -32.6589 -32.6566 -16.3104 -16.1412 -14.3930 -14.2679 -13.9521 -13.8382
   -13.6879 -13.5890 -12.9745 -12.9281 -12.5351 -12.4664  -2.5849  -2.2832
    -1.0038  -0.7080  -0.6401  -0.5562  -0.1109  -0.0521   2.6784   2.9002
     3.0546   3.3006   3.3959   3.5886   3.8059   3.9778   4.7165   4.9544

          k =-0.1681 0.0971 0.4372 (  7897 PWs)   bands (ev):

   -32.6617 -32.6546 -16.2548 -16.1945 -14.2889 -14.1225 -14.1113 -13.9220
   -13.6639 -13.6605 -12.9150 -12.7311 -12.6604 -12.5339  -2.6283  -2.6053
    -0.8280  -0.7600  -0.7266  -0.6454  -0.3953   0.1161   3.0652   3.0731
     3.1815   3.1849   3.6176   3.7895   3.8726   4.1456   4.6019   4.6979

          k = 0.8406 0.6795 0.1093 (  7888 PWs)   bands (ev):

   -32.6597 -32.6562 -16.2483 -16.2093 -14.2820 -14.2507 -13.9628 -13.8992
   -13.7090 -13.6762 -12.8686 -12.8332 -12.5829 -12.5466  -2.5538  -2.5512
    -0.8176  -0.7982  -0.6936  -0.6251  -0.2219   0.0017   2.9765   2.9891
     3.1994   3.2564   3.4580   3.6061   3.8653   4.0289   4.7280   4.7417

          k = 0.6725 0.5824 0.1639 (  7900 PWs)   bands (ev):

   -32.6582 -32.6574 -16.2717 -16.1916 -14.3306 -14.2305 -13.9839 -13.8219
   -13.7172 -13.7017 -12.9098 -12.8475 -12.5730 -12.5019  -2.5355  -2.3853
    -0.9262  -0.7832  -0.6210  -0.5937  -0.0678  -0.0609   2.7678   2.8658
     3.1814   3.2925   3.3349   3.4549   3.8909   3.9669   4.7730   4.8883

          k = 0.8406-0.4853-0.2186 (  7908 PWs)   bands (ev):

   -32.6591 -32.6567 -16.2845 -16.1723 -14.3799 -14.1394 -14.0590 -13.8009
   -13.7187 -13.6468 -12.9932 -12.7682 -12.6317 -12.4779  -2.6129  -2.4353
    -0.9128  -0.7205  -0.6571  -0.6138  -0.1530  -0.0672   2.8675   2.9854
     3.2541   3.2760   3.3636   3.5913   3.8063   4.0449   4.6962   4.8194

          k =-0.0000-0.0000 0.4918 (  7904 PWs)   bands (ev):

   -32.6605 -32.6559 -16.2327 -16.2139 -14.1811 -14.1811 -14.0745 -14.0745
   -13.6424 -13.6204 -12.7902 -12.7902 -12.6256 -12.6256  -2.6900  -2.6396
    -0.7787  -0.7787  -0.7120  -0.7120  -0.3206   0.0438   3.1035   3.1035
     3.1650   3.1650   3.8374   3.8374   4.0212   4.0212   4.5330   4.6398

          k = 1.0088 0.5824 0.1639 (  7887 PWs)   bands (ev):

   -32.6587 -32.6575 -16.2289 -16.2225 -14.2671 -14.1921 -14.0521 -13.9570
   -13.6643 -13.6385 -12.8592 -12.7546 -12.6567 -12.5652  -2.6448  -2.6071
    -0.7981  -0.7353  -0.7236  -0.6979  -0.1806  -0.0777   3.0641   3.1023
     3.1679   3.1759   3.6686   3.7941   3.9344   3.9939   4.6255   4.6639

     highest occupied level (ev):     5.0239

!    total energy              =    -367.41270822 Ry
     Harris-Foulkes estimate   =    -367.41270823 Ry
     estimated scf accuracy    <          6.7E-09 Ry

     The total energy is the sum of the following terms:

     one-electron contribution =    -130.46869038 Ry
     hartree contribution      =      96.44236594 Ry
     xc contribution           =     -75.29343320 Ry
     ewald contribution        =    -258.09295059 Ry

     convergence has been achieved in  10 iterations

     Forces acting on atoms (cartesian axes, Ry/au):

     atom    1 type  1   force =    -0.00000000    0.00000000   -0.00000000
     atom    2 type  1   force =     0.00000000    0.00000000    0.00000000
     atom    3 type  2   force =     0.00000000   -0.00000000    0.00000000
     atom    4 type  2   force =     0.00000000    0.00000000    0.00000000
     atom    5 type  3   force =    -0.02391715    0.04142572    0.00000000
     atom    6 type  3   force =     0.04783430   -0.00000000    0.00000000
     atom    7 type  3   force =    -0.02391715   -0.04142572   -0.00000000
     atom    8 type  3   force =    -0.04783430    0.00000000   -0.00000000
     atom    9 type  3   force =     0.02391715    0.04142572    0.00000000
     atom   10 type  3   force =     0.02391715   -0.04142572   -0.00000000

     Total force =     0.117170     Total SCF correction =     0.000058


     Computing stress (Cartesian axis) and pressure

          total   stress  (Ry/bohr**3)                   (kbar)     P=    9.30
  -0.00015702  -0.00000000  -0.00000000        -23.10     -0.00     -0.00
   0.00000000  -0.00015702  -0.00000000          0.00    -23.10     -0.00
   0.00000000  -0.00000000   0.00050378          0.00     -0.00     74.11


     BFGS Geometry Optimization

     number of scf cycles    =   1
     number of bfgs steps    =   0

     energy   new            =    -367.4127082247 Ry

     new trust radius        =       0.0478342994 bohr
     new conv_thr            =       0.0000000100 Ry


ATOMIC_POSITIONS (crystal)
Ca       0.500000000   0.500000000   0.500000000
Ca       0.000000000   0.000000000   0.000000000
C        0.250000000   0.250000000   0.250000000
C        0.750000000   0.750000000   0.750000000
O        0.502060002   0.997939998   0.250000000
O        0.997939998   0.250000000   0.502060002
O        0.250000000   0.502060002   0.997939998
O        0.002060002   0.750000000   0.497939998
O        0.750000000   0.497939998   0.002060002
O        0.497939998   0.002060002   0.750000000



     Writing output data file CCO_rand2.save/
     NEW-OLD atomic charge density approx. for the potential

     Check: negative core charge=   -0.000003

     total cpu time spent up to now is      166.0 secs

     Self-consistent Calculation

     iteration #  1     ecut=    70.00 Ry     beta= 0.70
     CG style diagonalization
     c_bands:  2 eigenvalues not converged
     c_bands:  1 eigenvalues not converged
     c_bands:  1 eigenvalues not converged
     c_bands:  5 eigenvalues not converged
     c_bands:  3 eigenvalues not converged
     c_bands:  1 eigenvalues not converged
     c_bands:  2 eigenvalues not converged
     c_bands:  3 eigenvalues not converged
     c_bands:  3 eigenvalues not converged
     c_bands:  5 eigenvalues not converged
     c_bands:  2 eigenvalues not converged
     c_bands:  1 eigenvalues not converged
     c_bands:  3 eigenvalues not converged
     c_bands:  2 eigenvalues not converged
     c_bands:  4 eigenvalues not converged
     c_bands:  1 eigenvalues not converged
     c_bands:  1 eigenvalues not converged
     c_bands:  1 eigenvalues not converged
     c_bands:  3 eigenvalues not converged
     c_bands:  4 eigenvalues not converged
     c_bands:  3 eigenvalues not converged
     c_bands:  4 eigenvalues not converged
     c_bands:  3 eigenvalues not converged
     c_bands:  4 eigenvalues not converged
     c_bands:  5 eigenvalues not converged
     c_bands:  5 eigenvalues not converged
     c_bands:  4 eigenvalues not converged
     c_bands:  4 eigenvalues not converged
     c_bands:  5 eigenvalues not converged
     c_bands:  3 eigenvalues not converged
     c_bands:  4 eigenvalues not converged
     c_bands:  3 eigenvalues not converged
     c_bands:  3 eigenvalues not converged
     c_bands:  2 eigenvalues not converged
     c_bands:  5 eigenvalues not converged
     c_bands:  4 eigenvalues not converged
     c_bands:  3 eigenvalues not converged
     c_bands:  2 eigenvalues not converged
     ethr =  1.00E-06,  avg # of iterations = 11.3

     total cpu time spent up to now is      211.6 secs

     total energy              =    -367.41406488 Ry
     Harris-Foulkes estimate   =    -367.42029978 Ry
     estimated scf accuracy    <       0.00845346 Ry

     iteration #  2     ecut=    70.00 Ry     beta= 0.70
     CG style diagonalization
     ethr =  1.32E-05,  avg # of iterations =  4.0

     total cpu time spent up to now is      227.9 secs

     total energy              =    -367.41642666 Ry
     Harris-Foulkes estimate   =    -367.41856749 Ry
     estimated scf accuracy    <       0.00382758 Ry

     iteration #  3     ecut=    70.00 Ry     beta= 0.70
     CG style diagonalization
     ethr =  5.98E-06,  avg # of iterations =  3.6

     total cpu time spent up to now is      242.3 secs

     total energy              =    -367.41735269 Ry
     Harris-Foulkes estimate   =    -367.41738818 Ry
     estimated scf accuracy    <       0.00007611 Ry

     iteration #  4     ecut=    70.00 Ry     beta= 0.70
     CG style diagonalization
     ethr =  1.19E-07,  avg # of iterations =  4.3

     total cpu time spent up to now is      259.6 secs

     total energy              =    -367.41740975 Ry
     Harris-Foulkes estimate   =    -367.41742662 Ry
     estimated scf accuracy    <       0.00004326 Ry

     iteration #  5     ecut=    70.00 Ry     beta= 0.70
     CG style diagonalization
     ethr =  6.76E-08,  avg # of iterations =  3.5

     total cpu time spent up to now is      273.6 secs

     total energy              =    -367.41741466 Ry
     Harris-Foulkes estimate   =    -367.41741574 Ry
     estimated scf accuracy    <       0.00000193 Ry

     iteration #  6     ecut=    70.00 Ry     beta= 0.70
     CG style diagonalization
     ethr =  3.02E-09,  avg # of iterations =  4.1

     total cpu time spent up to now is      290.1 secs

     total energy              =    -367.41741535 Ry
     Harris-Foulkes estimate   =    -367.41741545 Ry
     estimated scf accuracy    <       0.00000019 Ry

     iteration #  7     ecut=    70.00 Ry     beta= 0.70
     CG style diagonalization
     ethr =  2.95E-10,  avg # of iterations =  4.0

     total cpu time spent up to now is      306.5 secs

     total energy              =    -367.41741543 Ry
     Harris-Foulkes estimate   =    -367.41741545 Ry
     estimated scf accuracy    <       0.00000003 Ry

     iteration #  8     ecut=    70.00 Ry     beta= 0.70
     CG style diagonalization
     ethr =  4.66E-11,  avg # of iterations =  3.9

     total cpu time spent up to now is      322.3 secs

     End of self-consistent calculation

          k = 0.0000 0.0000 0.0000 (  7893 PWs)   bands (ev):

   -32.7535 -32.7333 -16.5738 -16.4699 -14.3828 -14.3828 -13.8372 -13.8372
   -13.7688 -13.7104 -13.3509 -13.3509 -12.5599 -12.5599  -2.6444  -2.3344
    -1.2080  -0.9554  -0.9554  -0.6637  -0.6637   0.3691   3.0046   3.0046
     3.2095   3.2095   3.5955   3.5955   4.4113   4.4113   4.5036   5.0002

          k =-0.1681-0.0971 0.0546 (  7873 PWs)   bands (ev):

   -32.7524 -32.7342 -16.5879 -16.4572 -14.3825 -14.3118 -14.0024 -13.8629
   -13.7902 -13.7773 -13.2719 -13.1107 -12.6565 -12.5791  -2.5643  -2.3666
    -1.1337  -0.9258  -0.8912  -0.6952  -0.6628   0.2686   3.0393   3.0733
     3.1770   3.2595   3.4332   3.5147   4.2856   4.3133   4.6669   4.9714

          k =-0.3363-0.1941 0.1093 (  7893 PWs)   bands (ev):

   -32.7493 -32.7368 -16.5985 -16.4506 -14.3757 -14.2187 -14.2041 -13.9650
   -13.7711 -13.7364 -13.1243 -12.8796 -12.8379 -12.6408  -2.4077  -2.3928
    -1.0471  -0.8593  -0.7200  -0.6967  -0.6707   0.0768   2.9963   3.0091
     3.1705   3.1793   3.3988   3.4624   4.0821   4.1076   4.8907   4.9224

          k =-0.5044-0.2912 0.1639 (  7895 PWs)   bands (ev):

   -32.7451 -32.7407 -16.5640 -16.4951 -14.2963 -14.2435 -14.2224 -14.1165
   -13.7428 -13.7039 -12.9700 -12.8634 -12.8368 -12.7578  -2.3509  -2.3222
    -1.0237  -0.9232  -0.6807  -0.6575  -0.3869  -0.1169   2.7944   2.8722
     3.1003   3.1392   3.5132   3.5825   3.9232   3.9317   4.9332   4.9763

          k =-0.1681 0.0971 0.1093 (  7863 PWs)   bands (ev):

   -32.7521 -32.7345 -16.5890 -16.4570 -14.3497 -14.3415 -13.9651 -13.8996
   -13.8227 -13.7809 -13.1749 -13.1595 -12.6315 -12.6190  -2.5599  -2.3843
    -1.0984  -0.9113  -0.9104  -0.7029  -0.6496   0.2496   3.0493   3.0621
     3.1642   3.2507   3.4905   3.5035   4.2199   4.3546   4.6639   4.9573

          k =-0.3363-0.0000 0.1639 (  7885 PWs)   bands (ev):

   -32.7499 -32.7363 -16.6014 -16.4480 -14.3606 -14.3104 -14.0550 -13.9750
   -13.7821 -13.7760 -13.0975 -13.0056 -12.7369 -12.6505  -2.4397  -2.4154
    -1.0139  -0.8791  -0.8177  -0.6763  -0.6405   0.0996   2.9892   3.0949
     3.1301   3.2421   3.3637   3.4986   4.0248   4.2310   4.8454   4.9150

          k =-0.5044-0.0971 0.2186 (  7888 PWs)   bands (ev):

   -32.7464 -32.7395 -16.5785 -16.4808 -14.3582 -14.2892 -14.1199 -14.0453
   -13.7632 -13.7152 -13.0400 -12.9626 -12.7528 -12.7041  -2.3698  -2.3448
    -0.9923  -0.9003  -0.7646  -0.6329  -0.4402  -0.0560   2.8210   2.9597
     3.0915   3.1260   3.4236   3.5569   3.8927   4.0648   4.9288   4.9737

          k = 0.5044 0.4853-0.1093 (  7899 PWs)   bands (ev):

   -32.7434 -32.7422 -16.5532 -16.5102 -14.3385 -14.2525 -14.1969 -14.0622
   -13.7444 -13.7188 -13.0221 -12.8979 -12.8050 -12.7127  -2.3559  -2.2834
    -1.0298  -0.9174  -0.7028  -0.6265  -0.2659  -0.1859   2.7499   2.8258
     3.0524   3.1368   3.4585   3.5368   3.9351   3.9743   4.9494   5.0116

          k = 0.3363 0.3883-0.0546 (  7887 PWs)   bands (ev):

   -32.7474 -32.7384 -16.6058 -16.4463 -14.3986 -14.2763 -14.1719 -13.9568
   -13.7809 -13.6903 -13.1111 -12.9402 -12.7487 -12.6828  -2.4082  -2.2932
    -1.0615  -0.8168  -0.7204  -0.6481  -0.5558  -0.0158   2.7736   3.0152
     3.0874   3.1436   3.3409   3.5892   3.9555   4.0748   4.8985   5.0135

          k = 0.1681 0.2912 0.0000 (  7885 PWs)   bands (ev):

   -32.7507 -32.7356 -16.6080 -16.4376 -14.3413 -14.3361 -14.0273 -14.0015
   -13.7946 -13.7603 -13.1079 -13.0175 -12.7256 -12.6420  -2.4304  -2.4023
    -1.0621  -0.8653  -0.8160  -0.7168  -0.6430   0.1361   2.9848   3.0975
     3.1630   3.2555   3.3263   3.4438   4.1080   4.2301   4.8488   4.9294

          k =-0.3363 0.1941 0.2186 (  7875 PWs)   bands (ev):

   -32.7490 -32.7371 -16.6227 -16.4271 -14.3943 -14.3382 -13.9828 -13.9553
   -13.8125 -13.7861 -13.0553 -13.0247 -12.7160 -12.6870  -2.4731  -2.3460
    -0.9737  -0.8785  -0.8391  -0.5990  -0.5929   0.0106   2.8767   3.0589
     3.0952   3.2994   3.3462   3.6263   3.8309   4.2475   4.8497   4.9266

          k =-0.5044 0.0971 0.2732 (  7880 PWs)   bands (ev):

   -32.7469 -32.7390 -16.6194 -16.4375 -14.4371 -14.3331 -14.0438 -13.8927
   -13.7845 -13.7307 -13.1893 -12.9568 -12.7428 -12.6413  -2.4619  -2.2540
    -0.9900  -0.8733  -0.8108  -0.5704  -0.4332  -0.0821   2.7209   2.9734
     3.0784   3.2532   3.3573   3.5535   3.8214   4.1552   4.8411   5.0406

          k = 0.5044 0.6795-0.0546 (  7907 PWs)   bands (ev):

   -32.7440 -32.7417 -16.5638 -16.5057 -14.3829 -14.2600 -14.1288 -14.0021
   -13.7791 -13.7337 -13.0993 -12.9170 -12.7729 -12.6698  -2.3498  -2.2799
    -0.9891  -0.9133  -0.8034  -0.5691  -0.2266  -0.1621   2.6912   2.7959
     3.0912   3.1698   3.3741   3.3984   3.9451   4.0661   4.9561   5.0366

          k = 0.3363 0.5824 0.0000 (  7913 PWs)   bands (ev):

   -32.7447 -32.7410 -16.5783 -16.4857 -14.3805 -14.2816 -14.1862 -13.9240
   -13.7914 -13.7143 -13.1216 -12.9213 -12.7714 -12.6589  -2.3708  -2.2545
    -1.0663  -0.8142  -0.7641  -0.6095  -0.3430  -0.0942   2.6828   2.8476
     3.0531   3.1236   3.3625   3.4843   4.0071   4.0127   4.9415   5.0609

          k =-0.5044 0.2912 0.3279 (  7898 PWs)   bands (ev):

   -32.7465 -32.7392 -16.6494 -16.4021 -14.4962 -14.4367 -13.8319 -13.7988
   -13.7915 -13.7141 -13.2806 -13.1693 -12.6283 -12.6115  -2.5311  -2.1365
    -1.0631  -0.8430  -0.7496  -0.5258  -0.3925  -0.1576   2.6058   2.9157
     3.1211   3.3429   3.3634   3.4445   3.8558   4.1486   4.7433   5.1219

          k = 0.5044 0.8736 0.0000 (  7904 PWs)   bands (ev):

   -32.7455 -32.7402 -16.6278 -16.4332 -14.4327 -14.4296 -13.8971 -13.8857
   -13.7847 -13.7130 -13.2601 -13.0636 -12.6674 -12.6184  -2.4791  -2.1549
    -1.0209  -0.9037  -0.7708  -0.5249  -0.3063  -0.1517   2.5875   2.8595
     3.1759   3.2434   3.3384   3.3707   3.9253   4.1073   4.8046   5.1247

          k =-0.0000-0.0000 0.1639 (  7845 PWs)   bands (ev):

   -32.7525 -32.7343 -16.5699 -16.4763 -14.3675 -14.3675 -13.8995 -13.8995
   -13.7640 -13.7115 -13.2766 -13.2766 -12.5874 -12.5874  -2.6462  -2.3805
    -1.1009  -0.9393  -0.9393  -0.6769  -0.6769   0.3099   3.0183   3.0183
     3.2090   3.2090   3.6185   3.6185   4.3580   4.3580   4.5218   4.9638

          k =-0.1681-0.0971 0.2186 (  7879 PWs)   bands (ev):

   -32.7508 -32.7357 -16.5765 -16.4732 -14.3912 -14.2554 -14.1149 -13.8314
   -13.8061 -13.7475 -13.2616 -13.0197 -12.7228 -12.5891  -2.5775  -2.4099
    -1.0230  -0.9126  -0.8253  -0.7009  -0.6903   0.1873   3.0382   3.0942
     3.1821   3.2360   3.4391   3.6096   4.1824   4.2620   4.6739   4.9307

          k =-0.3363-0.1941 0.2732 (  7900 PWs)   bands (ev):

   -32.7476 -32.7385 -16.5665 -16.4908 -14.3711 -14.2690 -14.1506 -13.9528
   -13.7572 -13.7497 -13.1192 -12.8821 -12.8553 -12.6374  -2.4613  -2.3735
    -0.9678  -0.8952  -0.7345  -0.7191  -0.5382   0.0053   2.9759   3.0870
     3.1149   3.1529   3.3782   3.6037   3.9491   4.0732   4.8581   4.9280

          k = 0.6725 0.3883-0.0546 (  7895 PWs)   bands (ev):

   -32.7435 -32.7423 -16.5516 -16.5113 -14.3692 -14.2378 -14.1721 -14.0605
   -13.7398 -13.7176 -13.0062 -12.9348 -12.8153 -12.6957  -2.4130  -2.2669
    -1.0250  -0.9013  -0.7198  -0.6382  -0.2805  -0.1943   2.7764   2.8817
     3.0579   3.1896   3.4651   3.6949   3.7924   3.9553   4.8998   4.9985

          k = 0.5044 0.2912 0.0000 (  7889 PWs)   bands (ev):

   -32.7463 -32.7395 -16.6092 -16.4441 -14.3818 -14.3502 -14.1015 -13.9965
   -13.7682 -13.6720 -13.1137 -12.9249 -12.7607 -12.6893  -2.4323  -2.2333
    -1.0838  -0.8104  -0.7115  -0.6329  -0.4697  -0.0843   2.7026   2.9277
     3.0570   3.2333   3.3835   3.7138   3.8157   4.0332   4.8601   5.0444

          k = 0.3363 0.1941 0.0546 (  7883 PWs)   bands (ev):

   -32.7499 -32.7363 -16.6183 -16.4275 -14.3725 -14.3155 -14.0946 -13.9438
   -13.7951 -13.7591 -13.1068 -12.9413 -12.7733 -12.6549  -2.4283  -2.3652
    -1.0405  -0.8497  -0.8149  -0.6556  -0.6415   0.0752   2.9210   3.0179
     3.2143   3.2495   3.2654   3.5479   3.9968   4.2153   4.8936   4.9131

          k =-0.1681 0.0971 0.2732 (  7880 PWs)   bands (ev):

   -32.7501 -32.7365 -16.5795 -16.4723 -14.3641 -14.2712 -14.0873 -13.9141
   -13.7990 -13.7679 -13.1456 -13.0330 -12.7056 -12.6492  -2.5629  -2.4509
    -0.9588  -0.8700  -0.8651  -0.7027  -0.6655   0.1322   3.0594   3.0660
     3.1671   3.2205   3.5262   3.6279   4.0720   4.2952   4.6788   4.8949

          k =-0.3363-0.0000 0.3279 (  7895 PWs)   bands (ev):

   -32.7478 -32.7384 -16.5819 -16.4760 -14.3647 -14.2992 -14.0696 -13.9543
   -13.8014 -13.7644 -13.0685 -12.9851 -12.7562 -12.6765  -2.4596  -2.4442
    -0.9053  -0.8838  -0.8343  -0.6577  -0.5515  -0.0087   2.9890   3.0422
     3.1397   3.2692   3.3804   3.6353   3.8671   4.1730   4.8380   4.8821

          k = 0.6725 0.5824 0.0000 (  7894 PWs)   bands (ev):

   -32.7446 -32.7412 -16.5420 -16.5250 -14.3671 -14.2753 -14.1151 -14.0031
   -13.7686 -13.7525 -13.0561 -12.9243 -12.8030 -12.6772  -2.3997  -2.3315
    -0.9723  -0.8605  -0.8212  -0.6256  -0.3174  -0.1380   2.8366   2.8818
     3.0945   3.2141   3.4051   3.5632   3.8517   4.0210   4.9239   4.9591

          k = 0.5044 0.4853 0.0546 (  7894 PWs)   bands (ev):

   -32.7445 -32.7412 -16.5917 -16.4709 -14.3996 -14.3158 -14.1345 -13.9190
   -13.7758 -13.7131 -13.1418 -12.9176 -12.7850 -12.6493  -2.4200  -2.2172
    -1.0748  -0.8153  -0.7396  -0.6233  -0.3195  -0.1386   2.6688   2.8686
     3.0205   3.2236   3.4006   3.5408   3.9140   4.0069   4.8846   5.0679

          k = 0.3363 0.3883 0.1093 (  7879 PWs)   bands (ev):

   -32.7476 -32.7382 -16.6204 -16.4307 -14.4301 -14.3081 -14.1268 -13.8848
   -13.7954 -13.6964 -13.1831 -12.9170 -12.7727 -12.6441  -2.4412  -2.2606
    -1.0531  -0.8223  -0.7443  -0.6297  -0.5294  -0.0281   2.7362   3.0193
     3.0621   3.1981   3.3198   3.6166   3.8869   4.1318   4.8646   5.0373

          k =-0.3363 0.1941 0.3825 (  7885 PWs)   bands (ev):

   -32.7470 -32.7391 -16.6098 -16.4485 -14.4383 -14.2784 -14.0370 -13.9036
   -13.8099 -13.7692 -13.1055 -12.9885 -12.7381 -12.6741  -2.5102  -2.3470
    -0.9749  -0.8176  -0.8070  -0.6100  -0.4859  -0.0993   2.8619   3.0112
     3.1618   3.3086   3.4088   3.6422   3.7159   4.1886   4.8140   4.9311

          k = 0.6725 0.7765 0.0546 (  7885 PWs)   bands (ev):

   -32.7453 -32.7405 -16.6015 -16.4637 -14.4232 -14.3277 -13.9995 -13.9183
   -13.7926 -13.7709 -13.1238 -13.0097 -12.7073 -12.6705  -2.4636  -2.2689
    -0.9819  -0.8783  -0.7796  -0.5902  -0.3335  -0.1498   2.7327   2.9082
     3.1827   3.2911   3.3488   3.4440   3.8408   4.1003   4.8443   5.0235

          k = 0.5044 0.6795 0.1093 (  7906 PWs)   bands (ev):

   -32.7432 -32.7424 -16.5466 -16.5258 -14.3522 -14.3003 -14.0729 -14.0233
   -13.7874 -13.7600 -13.0442 -12.9735 -12.7338 -12.6948  -2.3282  -2.3037
    -0.9933  -0.9311  -0.7445  -0.6094  -0.1906  -0.1801   2.7109   2.7484
     3.1339   3.1928   3.3528   3.3692   3.9672   4.0303   4.9800   5.0099

          k = 0.3363 0.5824 0.1639 (  7899 PWs)   bands (ev):

   -32.7445 -32.7411 -16.5746 -16.4910 -14.3865 -14.2672 -14.1684 -13.9622
   -13.7718 -13.7233 -13.1209 -12.9094 -12.7796 -12.6601  -2.3652  -2.2615
    -1.0242  -0.9150  -0.6878  -0.6442  -0.2947  -0.1168   2.6842   2.8339
     3.0718   3.1264   3.3657   3.4576   3.9754   4.0468   4.9441   5.0545

          k = 0.6725-0.3883-0.2732 (  7904 PWs)   bands (ev):

   -32.7455 -32.7402 -16.6363 -16.4206 -14.4994 -14.4011 -13.8792 -13.8195
   -13.7841 -13.7077 -13.2080 -13.2018 -12.6383 -12.6143  -2.5280  -2.1479
    -1.0724  -0.8334  -0.7047  -0.5760  -0.3423  -0.1841   2.6234   2.9006
     3.1649   3.3213   3.3426   3.4561   3.8559   4.0987   4.7583   5.1071

          k = 0.5044-0.4853-0.2186 (  7901 PWs)   bands (ev):

   -32.7452 -32.7404 -16.6183 -16.4432 -14.4316 -14.3933 -14.0091 -13.8258
   -13.7928 -13.7284 -13.2287 -13.0185 -12.7032 -12.6206  -2.4636  -2.1712
    -1.0539  -0.8751  -0.7116  -0.5950  -0.3150  -0.1381   2.6092   2.8671
     3.0800   3.2701   3.3760   3.4240   3.9206   4.0709   4.8281   5.1094

          k = 0.5044-0.2912-0.1639 (  7900 PWs)   bands (ev):

   -32.7468 -32.7389 -16.6395 -16.4104 -14.4452 -14.4307 -13.9524 -13.8746
   -13.7877 -13.6661 -13.2411 -13.0554 -12.6785 -12.6296  -2.4966  -2.1664
    -1.0823  -0.8219  -0.7048  -0.6060  -0.4456  -0.1067   2.6342   2.9524
     3.0297   3.3046   3.3647   3.6284   3.8113   4.1166   4.7856   5.0978

          k =-0.0000-0.0000 0.3279 (  7856 PWs)   bands (ev):

   -32.7496 -32.7371 -16.5583 -16.4935 -14.3219 -14.3219 -14.0220 -14.0220
   -13.7518 -13.7156 -13.1203 -13.1203 -12.6674 -12.6674  -2.6443  -2.4765
    -0.8954  -0.8954  -0.8314  -0.7144  -0.7144   0.1340   3.0564   3.0564
     3.1970   3.1970   3.6970   3.6970   4.2150   4.2150   4.5743   4.8717

          k =-0.1681-0.0971 0.3825 (  7874 PWs)   bands (ev):

   -32.7478 -32.7387 -16.5559 -16.5004 -14.3679 -14.2119 -14.1855 -13.9276
   -13.7748 -13.7355 -13.1493 -12.9118 -12.8214 -12.6460  -2.5855  -2.4773
    -0.8799  -0.8769  -0.7541  -0.7477  -0.6104   0.0066   3.0501   3.1119
     3.1756   3.1949   3.5257   3.7659   3.9954   4.1530   4.6942   4.8568

          k = 0.8406 0.4853 0.0546 (  7904 PWs)   bands (ev):

   -32.7449 -32.7412 -16.5376 -16.5266 -14.4113 -14.2295 -14.1576 -13.8936
   -13.7926 -13.7393 -13.1362 -12.8735 -12.8641 -12.6389  -2.5054  -2.3643
    -0.9447  -0.8389  -0.7526  -0.7198  -0.3846  -0.1356   2.9149   3.0320
     3.2062   3.2302   3.3125   3.7613   3.8047   4.0025   4.8228   4.9261

          k = 0.6725 0.3883 0.1093 (  7896 PWs)   bands (ev):

   -32.7440 -32.7417 -16.6018 -16.4602 -14.4556 -14.3313 -14.0293 -13.9132
   -13.7682 -13.7018 -13.1272 -13.0764 -12.7086 -12.6376  -2.4863  -2.1949
    -1.0729  -0.8039  -0.7140  -0.6436  -0.2802  -0.2107   2.6840   2.9156
     3.0576   3.2874   3.3982   3.6038   3.8251   3.9981   4.8200   5.0601

          k =-0.1681 0.0971 0.4372 (  7897 PWs)   bands (ev):

   -32.7467 -32.7398 -16.5596 -16.4985 -14.3526 -14.1980 -14.1791 -13.9947
   -13.7613 -13.7511 -13.0716 -12.8892 -12.8283 -12.7036  -2.5589  -2.5229
    -0.8918  -0.8184  -0.7935  -0.7091  -0.5472  -0.0770   3.0753   3.0761
     3.1771   3.1842   3.6233   3.7922   3.8789   4.1527   4.7187   4.8130

          k = 0.8406 0.6795 0.1093 (  7888 PWs)   bands (ev):

   -32.7448 -32.7414 -16.5512 -16.5135 -14.3488 -14.3197 -14.0377 -13.9832
   -13.7913 -13.7677 -13.0272 -12.9906 -12.7505 -12.7154  -2.4732  -2.4680
    -0.8843  -0.8638  -0.7749  -0.6957  -0.3765  -0.1783   2.9831   2.9974
     3.1968   3.2532   3.4651   3.6152   3.8780   4.0429   4.8368   4.8513

          k = 0.6725 0.5824 0.1639 (  7900 PWs)   bands (ev):

   -32.7433 -32.7425 -16.5682 -16.5014 -14.3971 -14.2970 -14.0680 -13.9193
   -13.7949 -13.7813 -13.0636 -12.9990 -12.7451 -12.6738  -2.4423  -2.2968
    -0.9970  -0.8656  -0.7032  -0.6794  -0.2360  -0.2214   2.7753   2.8787
     3.1838   3.2831   3.3411   3.4675   3.9125   3.9859   4.8759   4.9926

          k = 0.8406-0.4853-0.2186 (  7908 PWs)   bands (ev):

   -32.7442 -32.7419 -16.5800 -16.4846 -14.4427 -14.2103 -14.1400 -13.8754
   -13.7983 -13.7463 -13.1476 -12.9233 -12.8029 -12.6491  -2.5235  -2.3560
    -0.9755  -0.7940  -0.7397  -0.6893  -0.3183  -0.2353   2.8743   2.9969
     3.2526   3.2698   3.3714   3.6013   3.8242   4.0563   4.8037   4.9285

          k =-0.0000-0.0000 0.4918 (  7904 PWs)   bands (ev):

   -32.7456 -32.7411 -16.5397 -16.5165 -14.2468 -14.2468 -14.1445 -14.1445
   -13.7368 -13.7240 -12.9489 -12.9489 -12.7920 -12.7920  -2.6217  -2.5654
    -0.8345  -0.8345  -0.7700  -0.7700  -0.4874  -0.1449   3.1092   3.1092
     3.1615   3.1615   3.8388   3.8388   4.0252   4.0252   4.6557   4.7594

          k = 1.0088 0.5824 0.1639 (  7887 PWs)   bands (ev):

   -32.7439 -32.7426 -16.5316 -16.5285 -14.3335 -14.2619 -14.1200 -14.0292
   -13.7571 -13.7381 -13.0182 -12.9184 -12.8184 -12.7322  -2.5704  -2.5318
    -0.8554  -0.7989  -0.7877  -0.7611  -0.3493  -0.2559   3.0702   3.1030
     3.1685   3.1760   3.6719   3.8019   3.9401   4.0008   4.7411   4.7802

     highest occupied level (ev):     5.1247

!    total energy              =    -367.41741544 Ry
     Harris-Foulkes estimate   =    -367.41741544 Ry
     estimated scf accuracy    <          1.6E-09 Ry

     The total energy is the sum of the following terms:

     one-electron contribution =    -133.83565812 Ry
     hartree contribution      =      98.08832988 Ry
     xc contribution           =     -75.47112993 Ry
     ewald contribution        =    -256.19895727 Ry

     convergence has been achieved in   8 iterations

     Forces acting on atoms (cartesian axes, Ry/au):

     atom    1 type  1   force =     0.00000000    0.00000000    0.00000000
     atom    2 type  1   force =     0.00000000    0.00000000    0.00000000
     atom    3 type  2   force =     0.00000000    0.00000000    0.00000000
     atom    4 type  2   force =    -0.00000000    0.00000000   -0.00000000
     atom    5 type  3   force =     0.00839063   -0.01453299   -0.00000000
     atom    6 type  3   force =    -0.01678125    0.00000000    0.00000000
     atom    7 type  3   force =     0.00839063    0.01453299    0.00000000
     atom    8 type  3   force =     0.01678125   -0.00000000   -0.00000000
     atom    9 type  3   force =    -0.00839063   -0.01453299   -0.00000000
     atom   10 type  3   force =    -0.00839063    0.01453299    0.00000000

     Total force =     0.041106     Total SCF correction =     0.000060


     Computing stress (Cartesian axis) and pressure

          total   stress  (Ry/bohr**3)                   (kbar)     P=   54.54
   0.00033671   0.00000000  -0.00000000         49.53      0.00     -0.00
  -0.00000000   0.00033671   0.00000000         -0.00     49.53      0.00
   0.00000000   0.00000000   0.00043877          0.00      0.00     64.55


     number of scf cycles    =   2
     number of bfgs steps    =   1

     energy   old            =    -367.4127082247 Ry
     energy   new            =    -367.4174154423 Ry

     CASE: energy  _new < energy  _old

     new trust radius        =       0.0124230062 bohr
     new conv_thr            =       0.0000000017 Ry


ATOMIC_POSITIONS (crystal)
Ca       0.500000000   0.500000000   0.500000000
Ca       0.000000000   0.000000000   0.000000000
C        0.250000000   0.250000000   0.250000000
C        0.750000000   0.750000000   0.750000000
O        0.503347368   0.996652632   0.250000000
O        0.996652632   0.250000000   0.503347368
O        0.250000000   0.503347368   0.996652632
O        0.003347368   0.750000000   0.496652632
O        0.750000000   0.496652632   0.003347368
O        0.496652632   0.003347368   0.750000000



     Writing output data file CCO_rand2.save/
     NEW-OLD atomic charge density approx. for the potential

     Check: negative core charge=   -0.000003

     total cpu time spent up to now is      324.2 secs

     Self-consistent Calculation

     iteration #  1     ecut=    70.00 Ry     beta= 0.70
     CG style diagonalization
     c_bands:  1 eigenvalues not converged
     c_bands:  1 eigenvalues not converged
     c_bands:  1 eigenvalues not converged
     ethr =  1.00E-06,  avg # of iterations =  5.8

     total cpu time spent up to now is      348.1 secs

     total energy              =    -367.41776550 Ry
     Harris-Foulkes estimate   =    -367.41818672 Ry
     estimated scf accuracy    <       0.00056919 Ry

     iteration #  2     ecut=    70.00 Ry     beta= 0.70
     CG style diagonalization
     ethr =  8.89E-07,  avg # of iterations =  4.0

     total cpu time spent up to now is      364.1 secs

     total energy              =    -367.41793770 Ry
     Harris-Foulkes estimate   =    -367.41807224 Ry
     estimated scf accuracy    <       0.00023763 Ry

     iteration #  3     ecut=    70.00 Ry     beta= 0.70
     CG style diagonalization
     ethr =  3.71E-07,  avg # of iterations =  3.6

     total cpu time spent up to now is      378.5 secs

     total energy              =    -367.41799563 Ry
     Harris-Foulkes estimate   =    -367.41799675 Ry
     estimated scf accuracy    <       0.00000303 Ry

     iteration #  4     ecut=    70.00 Ry     beta= 0.70
     CG style diagonalization
     ethr =  4.73E-09,  avg # of iterations =  4.5

     total cpu time spent up to now is      396.9 secs

     total energy              =    -367.41799864 Ry
     Harris-Foulkes estimate   =    -367.41799997 Ry
     estimated scf accuracy    <       0.00000355 Ry

     iteration #  5     ecut=    70.00 Ry     beta= 0.70
     CG style diagonalization
     ethr =  4.73E-09,  avg # of iterations =  3.6

     total cpu time spent up to now is      411.3 secs

     total energy              =    -367.41799889 Ry
     Harris-Foulkes estimate   =    -367.41799902 Ry
     estimated scf accuracy    <       0.00000028 Ry

     iteration #  6     ecut=    70.00 Ry     beta= 0.70
     CG style diagonalization
     ethr =  4.37E-10,  avg # of iterations =  3.7

     total cpu time spent up to now is      426.1 secs

     total energy              =    -367.41799894 Ry
     Harris-Foulkes estimate   =    -367.41799894 Ry
     estimated scf accuracy    <       0.00000002 Ry

     iteration #  7     ecut=    70.00 Ry     beta= 0.70
     CG style diagonalization
     ethr =  2.84E-11,  avg # of iterations =  3.9

     total cpu time spent up to now is      442.1 secs

     total energy              =    -367.41799894 Ry
     Harris-Foulkes estimate   =    -367.41799895 Ry
     estimated scf accuracy    <          4.8E-09 Ry

     iteration #  8     ecut=    70.00 Ry     beta= 0.70
     CG style diagonalization
     ethr =  7.43E-12,  avg # of iterations =  4.0

     total cpu time spent up to now is      458.1 secs

     End of self-consistent calculation

          k = 0.0000 0.0000 0.0000 (  7893 PWs)   bands (ev):

   -32.7314 -32.7110 -16.4905 -16.3909 -14.3669 -14.3669 -13.8179 -13.8179
   -13.7485 -13.6803 -13.3112 -13.3112 -12.5129 -12.5129  -2.6609  -2.3622
    -1.1660  -0.9421  -0.9421  -0.6478  -0.6478   0.4321   2.9988   2.9988
     3.2122   3.2122   3.5982   3.5982   4.4101   4.4101   4.4689   4.9702

          k =-0.1681-0.0971 0.0546 (  7873 PWs)   bands (ev):

   -32.7303 -32.7119 -16.5058 -16.3770 -14.3665 -14.2950 -13.9797 -13.8421
   -13.7700 -13.7525 -13.2326 -13.0702 -12.6103 -12.5326  -2.5814  -2.3943
    -1.0924  -0.9117  -0.8760  -0.6790  -0.6465   0.3286   3.0357   3.0714
     3.1770   3.2598   3.4356   3.5158   4.2797   4.3111   4.6389   4.9419

          k =-0.3363-0.1941 0.1093 (  7893 PWs)   bands (ev):

   -32.7272 -32.7145 -16.5183 -16.3685 -14.3590 -14.2009 -14.1844 -13.9452
   -13.7472 -13.7130 -13.0839 -12.8371 -12.7937 -12.5957  -2.4269  -2.4204
    -1.0159  -0.8425  -0.7021  -0.6789  -0.6424   0.1307   2.9962   3.0095
     3.1696   3.1818   3.3948   3.4612   4.0777   4.1033   4.8632   4.8934

          k =-0.5044-0.2912 0.1639 (  7895 PWs)   bands (ev):

   -32.7229 -32.7184 -16.4837 -16.4132 -14.2786 -14.2252 -14.2042 -14.0981
   -13.7180 -13.6782 -12.9278 -12.8211 -12.7937 -12.7146  -2.3771  -2.3451
    -0.9998  -0.9025  -0.6616  -0.6381  -0.3469  -0.0699   2.7939   2.8726
     3.1005   3.1411   3.5084   3.5800   3.9186   3.9263   4.9048   4.9487

          k =-0.1681 0.0971 0.1093 (  7863 PWs)   bands (ev):

   -32.7300 -32.7122 -16.5072 -16.3767 -14.3329 -14.3252 -13.9434 -13.8733
   -13.8022 -13.7608 -13.1358 -13.1186 -12.5852 -12.5727  -2.5769  -2.4114
    -1.0567  -0.8970  -0.8960  -0.6867  -0.6334   0.3091   3.0452   3.0602
     3.1649   3.2511   3.4917   3.5052   4.2155   4.3526   4.6344   4.9276

          k =-0.3363-0.0000 0.1639 (  7885 PWs)   bands (ev):

   -32.7278 -32.7141 -16.5211 -16.3661 -14.3435 -14.2930 -14.0338 -13.9526
   -13.7608 -13.7539 -13.0568 -12.9643 -12.6917 -12.6052  -2.4580  -2.4425
    -0.9804  -0.8608  -0.8009  -0.6536  -0.6228   0.1547   2.9889   3.0943
     3.1284   3.2431   3.3636   3.4963   4.0210   4.2271   4.8173   4.8858

          k =-0.5044-0.0971 0.2186 (  7888 PWs)   bands (ev):

   -32.7242 -32.7173 -16.4985 -16.3988 -14.3413 -14.2705 -14.1000 -14.0263
   -13.7396 -13.6907 -12.9991 -12.9202 -12.7093 -12.6595  -2.3963  -2.3663
    -0.9671  -0.8802  -0.7438  -0.6148  -0.4046  -0.0064   2.8203   2.9595
     3.0926   3.1258   3.4202   3.5534   3.8887   4.0599   4.9002   4.9465

          k = 0.5044 0.4853-0.1093 (  7899 PWs)   bands (ev):

   -32.7212 -32.7200 -16.4732 -16.4285 -14.3210 -14.2345 -14.1783 -14.0422
   -13.7206 -13.6929 -12.9814 -12.8558 -12.7619 -12.6683  -2.3813  -2.3077
    -1.0078  -0.8944  -0.6826  -0.6072  -0.2216  -0.1427   2.7497   2.8255
     3.0518   3.1377   3.4545   3.5328   3.9311   3.9691   4.9217   4.9838

          k = 0.3363 0.3883-0.0546 (  7887 PWs)   bands (ev):

   -32.7253 -32.7162 -16.5267 -16.3629 -14.3819 -14.2586 -14.1531 -13.9362
   -13.7594 -13.6643 -13.0696 -12.8985 -12.7051 -12.6378  -2.4357  -2.3141
    -1.0369  -0.7961  -0.7018  -0.6303  -0.5185   0.0341   2.7732   3.0165
     3.0854   3.1459   3.3357   3.5874   3.9521   4.0698   4.8699   4.9861

          k = 0.1681 0.2912 0.0000 (  7885 PWs)   bands (ev):

   -32.7285 -32.7133 -16.5277 -16.3554 -14.3247 -14.3186 -14.0070 -13.9778
   -13.7750 -13.7369 -13.0681 -12.9756 -12.6801 -12.5966  -2.4486  -2.4304
    -1.0271  -0.8454  -0.7996  -0.6962  -0.6263   0.1922   2.9852   3.0979
     3.1604   3.2545   3.3272   3.4426   4.1037   4.2266   4.8210   4.9004

          k =-0.3363 0.1941 0.2186 (  7875 PWs)   bands (ev):

   -32.7269 -32.7148 -16.5440 -16.3435 -14.3775 -14.3207 -13.9609 -13.9297
   -13.7932 -13.7661 -13.0150 -12.9835 -12.6711 -12.6409  -2.5002  -2.3646
    -0.9557  -0.8439  -0.8209  -0.5823  -0.5682   0.0638   2.8752   3.0586
     3.0909   3.3025   3.3455   3.6240   3.8278   4.2443   4.8204   4.8981

          k =-0.5044 0.0971 0.2732 (  7880 PWs)   bands (ev):

   -32.7247 -32.7167 -16.5414 -16.3533 -14.4209 -14.3147 -14.0215 -13.8728
   -13.7636 -13.7063 -13.1497 -12.9152 -12.6984 -12.5952  -2.4889  -2.2746
    -0.9732  -0.8507  -0.7806  -0.5531  -0.3997  -0.0326   2.7191   2.9695
     3.0779   3.2552   3.3553   3.5508   3.8179   4.1510   4.8122   5.0130

          k = 0.5044 0.6795-0.0546 (  7907 PWs)   bands (ev):

   -32.7218 -32.7194 -16.4842 -16.4240 -14.3665 -14.2405 -14.1069 -13.9804
   -13.7580 -13.7101 -13.0602 -12.8759 -12.7282 -12.6242  -2.3757  -2.3038
    -0.9664  -0.8943  -0.7765  -0.5507  -0.1863  -0.1155   2.6893   2.7942
     3.0906   3.1705   3.3697   3.3947   3.9408   4.0616   4.9284   5.0096

          k = 0.3363 0.5824 0.0000 (  7913 PWs)   bands (ev):

   -32.7225 -32.7187 -16.4990 -16.4032 -14.3629 -14.2642 -14.1673 -13.9001
   -13.7718 -13.6883 -13.0814 -12.8799 -12.7277 -12.6134  -2.3972  -2.2779
    -1.0436  -0.7883  -0.7468  -0.5906  -0.2995  -0.0493   2.6823   2.8463
     3.0525   3.1240   3.3582   3.4805   4.0038   4.0073   4.9138   5.0338

          k =-0.5044 0.2912 0.3279 (  7898 PWs)   bands (ev):

   -32.7244 -32.7170 -16.5730 -16.3155 -14.4798 -14.4210 -13.8120 -13.7795
   -13.7710 -13.6847 -13.2417 -13.1289 -12.5830 -12.5645  -2.5586  -2.1575
    -1.0488  -0.8198  -0.7140  -0.5085  -0.3588  -0.1097   2.6035   2.9094
     3.1196   3.3467   3.3606   3.4433   3.8526   4.1448   4.7133   5.0943

          k = 0.5044 0.8736 0.0000 (  7904 PWs)   bands (ev):

   -32.7233 -32.7179 -16.5508 -16.3480 -14.4172 -14.4114 -13.8769 -13.8615
   -13.7651 -13.6875 -13.2221 -13.0229 -12.6223 -12.5716  -2.5063  -2.1772
    -1.0063  -0.8794  -0.7378  -0.5072  -0.2686  -0.1049   2.5852   2.8543
     3.1752   3.2422   3.3374   3.3691   3.9216   4.1032   4.7756   5.0976

          k =-0.0000-0.0000 0.1639 (  7845 PWs)   bands (ev):

   -32.7304 -32.7120 -16.4869 -16.3971 -14.3515 -14.3515 -13.8796 -13.8796
   -13.7432 -13.6819 -13.2372 -13.2372 -12.5408 -12.5408  -2.6628  -2.4058
    -1.0600  -0.9259  -0.9259  -0.6611  -0.6611   0.3711   3.0130   3.0130
     3.2117   3.2117   3.6205   3.6205   4.3567   4.3567   4.4875   4.9335

          k =-0.1681-0.0971 0.2186 (  7879 PWs)   bands (ev):

   -32.7287 -32.7134 -16.4945 -16.3930 -14.3748 -14.2384 -14.0944 -13.8107
   -13.7858 -13.7208 -13.2213 -12.9790 -12.6774 -12.5430  -2.5948  -2.4349
    -0.9872  -0.8986  -0.8062  -0.6845  -0.6728   0.2450   3.0345   3.0928
     3.1830   3.2368   3.4402   3.6094   4.1800   4.2572   4.6451   4.9006

          k =-0.3363-0.1941 0.2732 (  7900 PWs)   bands (ev):

   -32.7254 -32.7163 -16.4854 -16.4100 -14.3534 -14.2505 -14.1332 -13.9322
   -13.7351 -13.7238 -13.0780 -12.8385 -12.8132 -12.5926  -2.4813  -2.3989
    -0.9379  -0.8788  -0.7176  -0.7008  -0.5065   0.0573   2.9744   3.0869
     3.1166   3.1534   3.3763   3.6001   3.9450   4.0682   4.8306   4.8986

          k = 0.6725 0.3883-0.0546 (  7895 PWs)   bands (ev):

   -32.7213 -32.7201 -16.4721 -16.4290 -14.3517 -14.2203 -14.1530 -14.0412
   -13.7166 -13.6905 -12.9650 -12.8937 -12.7714 -12.6517  -2.4372  -2.2915
    -1.0052  -0.8760  -0.7001  -0.6187  -0.2410  -0.1475   2.7758   2.8806
     3.0581   3.1914   3.4625   3.6910   3.7882   3.9490   4.8724   4.9698

          k = 0.5044 0.2912 0.0000 (  7889 PWs)   bands (ev):

   -32.7241 -32.7172 -16.5308 -16.3599 -14.3654 -14.3329 -14.0822 -13.9770
   -13.7459 -13.6446 -13.0731 -12.8832 -12.7171 -12.6442  -2.4596  -2.2551
    -1.0620  -0.7877  -0.6932  -0.6118  -0.4302  -0.0373   2.7015   2.9277
     3.0555   3.2365   3.3792   3.7121   3.8121   4.0272   4.8317   5.0164

          k = 0.3363 0.1941 0.0546 (  7883 PWs)   bands (ev):

   -32.7277 -32.7140 -16.5389 -16.3442 -14.3558 -14.2982 -14.0735 -13.9216
   -13.7738 -13.7371 -13.0667 -12.8992 -12.7286 -12.6092  -2.4564  -2.3839
    -1.0111  -0.8321  -0.7887  -0.6343  -0.6245   0.1295   2.9201   3.0188
     3.2082   3.2525   3.2657   3.5469   3.9930   4.2115   4.8646   4.8851

          k =-0.1681 0.0971 0.2732 (  7880 PWs)   bands (ev):

   -32.7279 -32.7142 -16.4981 -16.3918 -14.3473 -14.2542 -14.0660 -13.8919
   -13.7755 -13.7467 -13.1045 -12.9930 -12.6602 -12.6035  -2.5801  -2.4749
    -0.9304  -0.8552  -0.8413  -0.6830  -0.6493   0.1885   3.0551   3.0645
     3.1693   3.2205   3.5260   3.6282   4.0693   4.2932   4.6479   4.8647

          k =-0.3363-0.0000 0.3279 (  7895 PWs)   bands (ev):

   -32.7257 -32.7162 -16.5016 -16.3946 -14.3474 -14.2811 -14.0497 -13.9307
   -13.7817 -13.7410 -13.0268 -12.9441 -12.7117 -12.6316  -2.4785  -2.4688
    -0.8762  -0.8677  -0.8169  -0.6404  -0.5207   0.0435   2.9877   3.0391
     3.1413   3.2706   3.3788   3.6322   3.8640   4.1692   4.8093   4.8527

          k = 0.6725 0.5824 0.0000 (  7894 PWs)   bands (ev):

   -32.7224 -32.7190 -16.4610 -16.4447 -14.3497 -14.2567 -14.0949 -13.9815
   -13.7452 -13.7301 -13.0159 -12.8819 -12.7596 -12.6322  -2.4224  -2.3563
    -0.9529  -0.8333  -0.8024  -0.6066  -0.2799  -0.0900   2.8353   2.8795
     3.0947   3.2152   3.4036   3.5589   3.8473   4.0154   4.8965   4.9307

          k = 0.5044 0.4853 0.0546 (  7894 PWs)   bands (ev):

   -32.7223 -32.7190 -16.5133 -16.3875 -14.3823 -14.2986 -14.1150 -13.8975
   -13.7544 -13.6863 -13.1024 -12.8762 -12.7411 -12.6037  -2.4463  -2.2405
    -1.0541  -0.7894  -0.7212  -0.6019  -0.2764  -0.0952   2.6677   2.8664
     3.0192   3.2259   3.3978   3.5370   3.9107   4.0007   4.8568   5.0403

          k = 0.3363 0.3883 0.1093 (  7879 PWs)   bands (ev):

   -32.7255 -32.7160 -16.5420 -16.3464 -14.4139 -14.2903 -14.1071 -13.8631
   -13.7757 -13.6705 -13.1424 -12.8748 -12.7292 -12.5983  -2.4689  -2.2812
    -1.0306  -0.8015  -0.7187  -0.6118  -0.4967   0.0219   2.7351   3.0197
     3.0591   3.2001   3.3166   3.6146   3.8840   4.1271   4.8358   5.0098

          k =-0.3363 0.1941 0.3825 (  7885 PWs)   bands (ev):

   -32.7248 -32.7169 -16.5314 -16.3651 -14.4217 -14.2599 -14.0130 -13.8833
   -13.7900 -13.7466 -13.0647 -12.9480 -12.6923 -12.6291  -2.5354  -2.3660
    -0.9595  -0.7992  -0.7771  -0.5925  -0.4524  -0.0494   2.8603   3.0067
     3.1625   3.3112   3.4062   3.6401   3.7118   4.1856   4.7847   4.9022

          k = 0.6725 0.7765 0.0546 (  7885 PWs)   bands (ev):

   -32.7231 -32.7183 -16.5233 -16.3804 -14.4063 -14.3094 -13.9755 -13.8961
   -13.7729 -13.7488 -13.0844 -12.9689 -12.6618 -12.6250  -2.4893  -2.2903
    -0.9654  -0.8571  -0.7502  -0.5714  -0.2957  -0.1031   2.7306   2.9041
     3.1824   3.2937   3.3447   3.4427   3.8353   4.0962   4.8158   4.9958

          k = 0.5044 0.6795 0.1093 (  7906 PWs)   bands (ev):

   -32.7210 -32.7202 -16.4666 -16.4450 -14.3353 -14.2818 -14.0497 -13.9988
   -13.7678 -13.7383 -13.0049 -12.9333 -12.6885 -12.6492  -2.3534  -2.3282
    -0.9709  -0.9102  -0.7200  -0.5889  -0.1484  -0.1359   2.7086   2.7462
     3.1333   3.1936   3.3486   3.3659   3.9621   4.0255   4.9527   4.9829

          k = 0.3363 0.5824 0.1639 (  7899 PWs)   bands (ev):

   -32.7223 -32.7189 -16.4953 -16.4088 -14.3695 -14.2490 -14.1479 -13.9407
   -13.7502 -13.6982 -13.0812 -12.8679 -12.7358 -12.6146  -2.3914  -2.2851
    -1.0020  -0.8922  -0.6657  -0.6245  -0.2537  -0.0712   2.6832   2.8326
     3.0714   3.1266   3.3611   3.4537   3.9719   4.0420   4.9163   5.0274

          k = 0.6725-0.3883-0.2732 (  7904 PWs)   bands (ev):

   -32.7234 -32.7180 -16.5597 -16.3346 -14.4830 -14.3848 -13.8579 -13.8001
   -13.7644 -13.6784 -13.1697 -13.1613 -12.5917 -12.5690  -2.5548  -2.1694
    -1.0567  -0.8097  -0.6738  -0.5568  -0.3043  -0.1393   2.6212   2.8946
     3.1632   3.3192   3.3466   3.4543   3.8507   4.0950   4.7292   5.0793

          k = 0.5044-0.4853-0.2186 (  7901 PWs)   bands (ev):

   -32.7231 -32.7182 -16.5409 -16.3585 -14.4145 -14.3765 -13.9881 -13.8035
   -13.7731 -13.7019 -13.1903 -12.9777 -12.6583 -12.5743  -2.4906  -2.1938
    -1.0359  -0.8511  -0.6831  -0.5758  -0.2759  -0.0930   2.6072   2.8626
     3.0784   3.2727   3.3745   3.4200   3.9168   4.0660   4.7996   5.0820

          k = 0.5044-0.2912-0.1639 (  7900 PWs)   bands (ev):

   -32.7247 -32.7167 -16.5624 -16.3244 -14.4285 -14.4150 -13.9324 -13.8537
   -13.7674 -13.6384 -13.2014 -13.0148 -12.6338 -12.5831  -2.5243  -2.1876
    -1.0642  -0.7990  -0.6736  -0.5877  -0.4121  -0.0593   2.6322   2.9490
     3.0273   3.3082   3.3633   3.6249   3.8093   4.1117   4.7563   5.0701

          k =-0.0000-0.0000 0.3279 (  7856 PWs)   bands (ev):

   -32.7275 -32.7148 -16.4759 -16.4138 -14.3053 -14.3053 -14.0024 -14.0024
   -13.7295 -13.6872 -13.0802 -13.0802 -12.6219 -12.6219  -2.6611  -2.4981
    -0.8815  -0.8815  -0.7906  -0.6989  -0.6989   0.1903   3.0526   3.0526
     3.1992   3.1992   3.6976   3.6976   4.2137   4.2137   4.5407   4.8405

          k =-0.1681-0.0971 0.3825 (  7874 PWs)   bands (ev):

   -32.7256 -32.7165 -16.4743 -16.4202 -14.3507 -14.1929 -14.1682 -13.9073
   -13.7529 -13.7086 -13.1081 -12.8704 -12.7772 -12.6009  -2.6034  -2.4990
    -0.8657  -0.8538  -0.7377  -0.7305  -0.5770   0.0596   3.0469   3.1116
     3.1765   3.1949   3.5255   3.7647   3.9930   4.1500   4.6638   4.8261

          k = 0.8406 0.4853 0.0546 (  7904 PWs)   bands (ev):

   -32.7227 -32.7190 -16.4581 -16.4446 -14.3939 -14.2102 -14.1398 -13.8717
   -13.7728 -13.7127 -13.0948 -12.8321 -12.8202 -12.5940  -2.5267  -2.3870
    -0.9281  -0.8119  -0.7362  -0.7008  -0.3477  -0.0869   2.9129   3.0310
     3.2072   3.2302   3.3110   3.7575   3.8013   3.9976   4.7947   4.8965

          k = 0.6725 0.3883 0.1093 (  7896 PWs)   bands (ev):

   -32.7218 -32.7195 -16.5242 -16.3758 -14.4388 -14.3143 -14.0087 -13.8934
   -13.7473 -13.6731 -13.0867 -13.0373 -12.6630 -12.5927  -2.5119  -2.2178
    -1.0546  -0.7780  -0.6949  -0.6204  -0.2363  -0.1695   2.6825   2.9115
     3.0567   3.2907   3.3973   3.5997   3.8202   3.9928   4.7921   5.0317

          k =-0.1681 0.0971 0.4372 (  7897 PWs)   bands (ev):

   -32.7245 -32.7176 -16.4787 -16.4176 -14.3355 -14.1780 -14.1611 -13.9754
   -13.7363 -13.7277 -13.0303 -12.8476 -12.7841 -12.6590  -2.5768  -2.5440
    -0.8747  -0.8033  -0.7757  -0.6926  -0.5079  -0.0260   3.0726   3.0753
     3.1789   3.1834   3.6216   3.7912   3.8771   4.1507   4.6874   4.7822

          k = 0.8406 0.6795 0.1093 (  7888 PWs)   bands (ev):

   -32.7226 -32.7192 -16.4708 -16.4327 -14.3309 -14.3013 -14.0178 -13.9612
   -13.7700 -13.7442 -12.9854 -12.9491 -12.7065 -12.6711  -2.4933  -2.4901
    -0.8665  -0.8466  -0.7533  -0.6773  -0.3365  -0.1310   2.9814   2.9951
     3.1974   3.2540   3.4630   3.6126   3.8746   4.0393   4.8075   4.8219

          k = 0.6725 0.5824 0.1639 (  7900 PWs)   bands (ev):

   -32.7211 -32.7203 -16.4893 -16.4192 -14.3793 -14.2792 -14.0459 -13.8939
   -13.7746 -13.7608 -13.0229 -12.9591 -12.6999 -12.6287  -2.4665  -2.3197
    -0.9783  -0.8435  -0.6816  -0.6567  -0.1923  -0.1798   2.7732   2.8753
     3.1831   3.2855   3.3391   3.4639   3.9069   3.9809   4.8481   4.9645

          k = 0.8406-0.4853-0.2186 (  7908 PWs)   bands (ev):

   -32.7220 -32.7197 -16.5013 -16.4018 -14.4259 -14.1916 -14.1185 -13.8559
   -13.7776 -13.7208 -13.1066 -12.8825 -12.7579 -12.6041  -2.5466  -2.3764
    -0.9591  -0.7746  -0.7177  -0.6694  -0.2754  -0.1914   2.8725   2.9938
     3.2530   3.2714   3.3689   3.5986   3.8195   4.0533   4.7748   4.8992

          k =-0.0000-0.0000 0.4918 (  7904 PWs)   bands (ev):

   -32.7234 -32.7189 -16.4582 -16.4361 -14.2292 -14.2292 -14.1258 -14.1258
   -13.7125 -13.6975 -12.9070 -12.9070 -12.7482 -12.7482  -2.6392  -2.5843
    -0.8201  -0.8201  -0.7550  -0.7550  -0.4433  -0.0950   3.1076   3.1076
     3.1622   3.1622   3.8382   3.8382   4.0240   4.0240   4.6230   4.7275

          k = 1.0088 0.5824 0.1639 (  7887 PWs)   bands (ev):

   -32.7217 -32.7204 -16.4511 -16.4473 -14.3157 -14.2433 -14.1019 -14.0100
   -13.7332 -13.7125 -12.9762 -12.8753 -12.7759 -12.6883  -2.5895  -2.5511
    -0.8405  -0.7823  -0.7708  -0.7448  -0.3050  -0.2089   3.0686   3.1027
     3.1683   3.1758   3.6707   3.7997   3.9385   3.9989   4.7101   4.7491

     highest occupied level (ev):     5.0976

!    total energy              =    -367.41799895 Ry
     Harris-Foulkes estimate   =    -367.41799895 Ry
     estimated scf accuracy    <          1.4E-10 Ry

     The total energy is the sum of the following terms:

     one-electron contribution =    -132.93035198 Ry
     hartree contribution      =      97.64531564 Ry
     xc contribution           =     -75.42388524 Ry
     ewald contribution        =    -256.70907737 Ry

     convergence has been achieved in   8 iterations

     Forces acting on atoms (cartesian axes, Ry/au):

     atom    1 type  1   force =     0.00000000    0.00000000    0.00000000
     atom    2 type  1   force =     0.00000000    0.00000000    0.00000000
     atom    3 type  2   force =     0.00000000    0.00000000    0.00000000
     atom    4 type  2   force =     0.00000000    0.00000000    0.00000000
     atom    5 type  3   force =    -0.00050421    0.00087331    0.00000000
     atom    6 type  3   force =     0.00100842    0.00000000   -0.00000000
     atom    7 type  3   force =    -0.00050421   -0.00087331   -0.00000000
     atom    8 type  3   force =    -0.00100842    0.00000000   -0.00000000
     atom    9 type  3   force =     0.00050421    0.00087331    0.00000000
     atom   10 type  3   force =     0.00050421   -0.00087331   -0.00000000

     Total force =     0.002470     Total SCF correction =     0.000000


     Computing stress (Cartesian axis) and pressure

          total   stress  (Ry/bohr**3)                   (kbar)     P=   42.06
   0.00020115  -0.00000000  -0.00000000         29.59     -0.00     -0.00
  -0.00000000   0.00020115   0.00000000         -0.00     29.59      0.00
   0.00000000   0.00000000   0.00045553          0.00      0.00     67.01


     number of scf cycles    =   3
     number of bfgs steps    =   2

     energy   old            =    -367.4174154423 Ry
     energy   new            =    -367.4179989452 Ry

     CASE: energy  _new < energy  _old

     new trust radius        =       0.0007042045 bohr
     new conv_thr            =       0.0000000001 Ry


ATOMIC_POSITIONS (crystal)
Ca       0.500000000   0.500000000   0.500000000
Ca       0.000000000   0.000000000   0.000000000
C        0.250000000   0.250000000   0.250000000
C        0.750000000   0.750000000   0.750000000
O        0.503274393   0.996725607   0.250000000
O        0.996725607   0.250000000   0.503274393
O        0.250000000   0.503274393   0.996725607
O        0.003274393   0.750000000   0.496725607
O        0.750000000   0.496725607   0.003274393
O        0.496725607   0.003274393   0.750000000



     Writing output data file CCO_rand2.save/
     NEW-OLD atomic charge density approx. for the potential

     Check: negative core charge=   -0.000003

     total cpu time spent up to now is      459.9 secs

     Self-consistent Calculation

     iteration #  1     ecut=    70.00 Ry     beta= 0.70
     CG style diagonalization
     ethr =  1.00E-06,  avg # of iterations =  2.5

     Threshold (ethr) on eigenvalues was too large:
     Diagonalizing with lowered threshold

     CG style diagonalization
     c_bands:  1 eigenvalues not converged
     c_bands:  1 eigenvalues not converged
     c_bands:  1 eigenvalues not converged
     c_bands:  2 eigenvalues not converged
     c_bands:  1 eigenvalues not converged
     c_bands:  1 eigenvalues not converged
     c_bands:  1 eigenvalues not converged
     c_bands:  1 eigenvalues not converged
     ethr =  2.17E-09,  avg # of iterations =  5.4

     total cpu time spent up to now is      492.8 secs

     total energy              =    -367.41800042 Ry
     Harris-Foulkes estimate   =    -367.41800176 Ry
     estimated scf accuracy    <       0.00000181 Ry

     iteration #  2     ecut=    70.00 Ry     beta= 0.70
     CG style diagonalization
     ethr =  2.83E-09,  avg # of iterations =  4.0

     total cpu time spent up to now is      509.0 secs

     total energy              =    -367.41800094 Ry
     Harris-Foulkes estimate   =    -367.41800139 Ry
     estimated scf accuracy    <       0.00000079 Ry

     iteration #  3     ecut=    70.00 Ry     beta= 0.70
     CG style diagonalization
     ethr =  1.23E-09,  avg # of iterations =  3.6

     total cpu time spent up to now is      523.4 secs

     total energy              =    -367.41800114 Ry
     Harris-Foulkes estimate   =    -367.41800114 Ry
     estimated scf accuracy    <       0.00000001 Ry

     iteration #  4     ecut=    70.00 Ry     beta= 0.70
     CG style diagonalization
     ethr =  2.20E-11,  avg # of iterations =  4.4

     total cpu time spent up to now is      541.1 secs

     total energy              =    -367.41800115 Ry
     Harris-Foulkes estimate   =    -367.41800115 Ry
     estimated scf accuracy    <       0.00000001 Ry

     iteration #  5     ecut=    70.00 Ry     beta= 0.70
     CG style diagonalization
     ethr =  1.87E-11,  avg # of iterations =  3.5

     total cpu time spent up to now is      555.1 secs

     total energy              =    -367.41800115 Ry
     Harris-Foulkes estimate   =    -367.41800115 Ry
     estimated scf accuracy    <          7.0E-10 Ry

     iteration #  6     ecut=    70.00 Ry     beta= 0.70
     CG style diagonalization
     ethr =  1.09E-12,  avg # of iterations =  4.0

     total cpu time spent up to now is      571.3 secs

     End of self-consistent calculation

          k = 0.0000 0.0000 0.0000 (  7893 PWs)   bands (ev):

   -32.7326 -32.7123 -16.4952 -16.3953 -14.3678 -14.3678 -13.8190 -13.8190
   -13.7497 -13.6821 -13.3134 -13.3134 -12.5156 -12.5156  -2.6599  -2.3606
    -1.1684  -0.9429  -0.9429  -0.6487  -0.6487   0.4286   2.9991   2.9991
     3.2120   3.2120   3.5981   3.5981   4.4102   4.4102   4.4709   4.9719

[...]

          k =-0.1681 0.0971 0.1093 (  7863 PWs)   bands (ev):

   -32.7313 -32.7135 -16.5118 -16.3812 -14.3338 -14.3261 -13.9446 -13.8748
   -13.8034 -13.7620 -13.1380 -13.1209 -12.5878 -12.5753  -2.5759  -2.4098
    -1.0591  -0.8978  -0.8968  -0.6876  -0.6343   0.3058   3.0454   3.0603
     3.1648   3.2511   3.4917   3.5051   4.2158   4.3527   4.6361   4.9293

          k =-0.3363-0.0000 0.1639 (  7885 PWs)   bands (ev):

   -32.7291 -32.7153 -16.5256 -16.3707 -14.3445 -14.2940 -14.0350 -13.9539
   -13.7621 -13.7552 -13.0591 -12.9666 -12.6943 -12.6077  -2.4570  -2.4409
    -0.9822  -0.8618  -0.8019  -0.6549  -0.6238   0.1516   2.9889   3.0944
     3.1285   3.2431   3.3636   3.4965   4.0212   4.2273   4.8189   4.8875

          k =-0.5044-0.0971 0.2186 (  7888 PWs)   bands (ev):

   -32.7255 -32.7185 -16.5030 -16.4034 -14.3422 -14.2716 -14.1011 -14.0274
   -13.7410 -13.6921 -13.0014 -12.9226 -12.7118 -12.6620  -2.3948  -2.3651
    -0.9685  -0.8814  -0.7450  -0.6159  -0.4067  -0.0092   2.8204   2.9595
     3.0925   3.1258   3.4204   3.5536   3.8889   4.0602   4.9018   4.9480

          k = 0.5044 0.4853-0.1093 (  7899 PWs)   bands (ev):

   -32.7225 -32.7213 -16.4777 -16.4331 -14.3220 -14.2355 -14.1794 -14.0434
   -13.7220 -13.6944 -12.9837 -12.8582 -12.7643 -12.6708  -2.3798  -2.3064
    -1.0090  -0.8957  -0.6838  -0.6083  -0.2241  -0.1451   2.7497   2.8255
     3.0519   3.1377   3.4547   3.5330   3.9313   3.9694   4.9233   4.9854

          k = 0.3363 0.3883-0.0546 (  7887 PWs)   bands (ev):

   -32.7266 -32.7175 -16.5312 -16.3676 -14.3828 -14.2596 -14.1541 -13.9373
   -13.7606 -13.6658 -13.0719 -12.9008 -12.7076 -12.6403  -2.4342  -2.3129
    -1.0382  -0.7973  -0.7029  -0.6313  -0.5206   0.0313   2.7732   3.0164
     3.0856   3.1458   3.3360   3.5875   3.9523   4.0700   4.8715   4.9877

          k = 0.1681 0.2912 0.0000 (  7885 PWs)   bands (ev):

   -32.7298 -32.7146 -16.5322 -16.3600 -14.3257 -14.3196 -14.0082 -13.9791
   -13.7761 -13.7382 -13.0703 -12.9780 -12.6826 -12.5991  -2.4476  -2.4288
    -1.0291  -0.8465  -0.8005  -0.6973  -0.6272   0.1891   2.9852   3.0979
     3.1606   3.2545   3.3272   3.4426   4.1040   4.2268   4.8226   4.9020

          k =-0.3363 0.1941 0.2186 (  7875 PWs)   bands (ev):

   -32.7281 -32.7161 -16.5484 -16.3482 -14.3784 -14.3217 -13.9622 -13.9312
   -13.7943 -13.7672 -13.0172 -12.9858 -12.6736 -12.6435  -2.4987  -2.3635
    -0.9567  -0.8458  -0.8220  -0.5832  -0.5696   0.0608   2.8753   3.0587
     3.0911   3.3024   3.3456   3.6242   3.8280   4.2445   4.8220   4.8997

          k =-0.5044 0.0971 0.2732 (  7880 PWs)   bands (ev):

   -32.7260 -32.7180 -16.5457 -16.3581 -14.4218 -14.3157 -14.0228 -13.8740
   -13.7648 -13.7077 -13.1519 -12.9176 -12.7009 -12.5978  -2.4874  -2.2734
    -0.9741  -0.8520  -0.7823  -0.5541  -0.4016  -0.0354   2.7192   2.9698
     3.0780   3.2551   3.3555   3.5509   3.8181   4.1513   4.8138   5.0146

          k = 0.5044 0.6795-0.0546 (  7907 PWs)   bands (ev):

   -32.7230 -32.7207 -16.4887 -16.4286 -14.3674 -14.2416 -14.1081 -13.9816
   -13.7592 -13.7114 -13.0624 -12.8782 -12.7307 -12.6268  -2.3742  -2.3024
    -0.9677  -0.8954  -0.7780  -0.5517  -0.1886  -0.1181   2.6894   2.7944
     3.0907   3.1704   3.3700   3.3949   3.9410   4.0619   4.9299   5.0111

          k = 0.3363 0.5824 0.0000 (  7913 PWs)   bands (ev):

   -32.7238 -32.7200 -16.5035 -16.4079 -14.3639 -14.2652 -14.1684 -13.9014
   -13.7729 -13.6898 -13.0836 -12.8823 -12.7302 -12.6160  -2.3957  -2.2766
    -1.0449  -0.7898  -0.7478  -0.5917  -0.3020  -0.0518   2.6823   2.8464
     3.0526   3.1240   3.3584   3.4807   4.0040   4.0076   4.9154   5.0353

          k =-0.5044 0.2912 0.3279 (  7898 PWs)   bands (ev):

   -32.7256 -32.7182 -16.5773 -16.3203 -14.4807 -14.4219 -13.8131 -13.7807
   -13.7722 -13.6864 -13.2439 -13.1311 -12.5856 -12.5672  -2.5571  -2.1563
    -1.0496  -0.8211  -0.7160  -0.5095  -0.3608  -0.1124   2.6036   2.9097
     3.1197   3.3465   3.3607   3.4433   3.8528   4.1451   4.7150   5.0958

          k = 0.5044 0.8736 0.0000 (  7904 PWs)   bands (ev):

   -32.7246 -32.7192 -16.5551 -16.3528 -14.4181 -14.4125 -13.8780 -13.8629
   -13.7662 -13.6889 -13.2242 -13.0252 -12.6249 -12.5743  -2.5047  -2.1759
    -1.0071  -0.8808  -0.7397  -0.5082  -0.2707  -0.1076   2.5853   2.8546
     3.1752   3.2422   3.3374   3.3692   3.9218   4.1034   4.7773   5.0991

          k =-0.0000-0.0000 0.1639 (  7845 PWs)   bands (ev):

   -32.7316 -32.7133 -16.4915 -16.4016 -14.3524 -14.3524 -13.8808 -13.8808
   -13.7444 -13.6836 -13.2395 -13.2395 -12.5435 -12.5435  -2.6618  -2.4044
    -1.0623  -0.9266  -0.9266  -0.6620  -0.6620   0.3677   3.0134   3.0134
     3.2115   3.2115   3.6204   3.6204   4.3568   4.3568   4.4894   4.9352

          k =-0.1681-0.0971 0.2186 (  7879 PWs)   bands (ev):

   -32.7300 -32.7147 -16.4991 -16.3975 -14.3757 -14.2394 -14.0956 -13.8119
   -13.7869 -13.7223 -13.2235 -12.9813 -12.6800 -12.5456  -2.5938  -2.4335
    -0.9891  -0.8994  -0.8073  -0.6854  -0.6738   0.2417   3.0348   3.0929
     3.1829   3.2368   3.4402   3.6094   4.1801   4.2575   4.6467   4.9023

          k =-0.3363-0.1941 0.2732 (  7900 PWs)   bands (ev):

   -32.7267 -32.7176 -16.4900 -16.4146 -14.3544 -14.2516 -14.1342 -13.9334
   -13.7363 -13.7253 -13.0803 -12.8409 -12.8155 -12.5951  -2.4801  -2.3975
    -0.9396  -0.8798  -0.7186  -0.7019  -0.5083   0.0544   2.9745   3.0869
     3.1165   3.1534   3.3764   3.6003   3.9453   4.0685   4.8322   4.9003

          k = 0.6725 0.3883-0.0546 (  7895 PWs)   bands (ev):

   -32.7226 -32.7213 -16.4766 -16.4336 -14.3527 -14.2213 -14.1541 -14.0423
   -13.7180 -13.6920 -12.9674 -12.8960 -12.7739 -12.6542  -2.4358  -2.2901
    -1.0063  -0.8774  -0.7012  -0.6198  -0.2432  -0.1502   2.7759   2.8806
     3.0581   3.1913   3.4627   3.6912   3.7884   3.9494   4.8739   4.9714

          k = 0.5044 0.2912 0.0000 (  7889 PWs)   bands (ev):

   -32.7254 -32.7185 -16.5352 -16.3646 -14.3663 -14.3338 -14.0833 -13.9781
   -13.7471 -13.6461 -13.0754 -12.8856 -12.7196 -12.6467  -2.4581  -2.2538
    -1.0632  -0.7890  -0.6942  -0.6130  -0.4324  -0.0399   2.7016   2.9277
     3.0556   3.2363   3.3795   3.7122   3.8123   4.0276   4.8333   5.0180

          k = 0.3363 0.1941 0.0546 (  7883 PWs)   bands (ev):

   -32.7290 -32.7153 -16.5434 -16.3489 -14.3567 -14.2991 -14.0747 -13.9228
   -13.7750 -13.7383 -13.0689 -12.9016 -12.7312 -12.6118  -2.4548  -2.3829
    -1.0127  -0.8331  -0.7902  -0.6355  -0.6254   0.1265   2.9202   3.0187
     3.2086   3.2523   3.2657   3.5470   3.9933   4.2117   4.8662   4.8866

          k =-0.1681 0.0971 0.2732 (  7880 PWs)   bands (ev):

   -32.7292 -32.7155 -16.5027 -16.3963 -14.3483 -14.2551 -14.0672 -13.8932
   -13.7768 -13.7479 -13.1069 -12.9953 -12.6627 -12.6061  -2.5792  -2.4736
    -0.9319  -0.8560  -0.8427  -0.6842  -0.6502   0.1853   3.0553   3.0646
     3.1692   3.2205   3.5260   3.6282   4.0695   4.2933   4.6496   4.8664

          k =-0.3363-0.0000 0.3279 (  7895 PWs)   bands (ev):

   -32.7269 -32.7174 -16.5061 -16.3992 -14.3483 -14.2821 -14.0508 -13.9320
   -13.7828 -13.7423 -13.0292 -12.9464 -12.7142 -12.6341  -2.4774  -2.4674
    -0.8777  -0.8687  -0.8179  -0.6414  -0.5225   0.0406   2.9878   3.0393
     3.1412   3.2705   3.3789   3.6324   3.8641   4.1694   4.8110   4.8543

          k = 0.6725 0.5824 0.0000 (  7894 PWs)   bands (ev):

   -32.7237 -32.7203 -16.4655 -16.4492 -14.3507 -14.2577 -14.0960 -13.9827
   -13.7465 -13.7314 -13.0182 -12.8843 -12.7620 -12.6347  -2.4211  -2.3549
    -0.9540  -0.8348  -0.8035  -0.6077  -0.2820  -0.0927   2.8354   2.8796
     3.0947   3.2152   3.4037   3.5592   3.8476   4.0157   4.8981   4.9323

          k = 0.5044 0.4853 0.0546 (  7894 PWs)   bands (ev):

   -32.7236 -32.7202 -16.5177 -16.3921 -14.3833 -14.2996 -14.1161 -13.8987
   -13.7556 -13.6878 -13.1046 -12.8785 -12.7436 -12.6063  -2.4448  -2.2392
    -1.0553  -0.7909  -0.7223  -0.6031  -0.2788  -0.0976   2.6678   2.8665
     3.0193   3.2257   3.3980   3.5372   3.9109   4.0011   4.8584   5.0418

          k = 0.3363 0.3883 0.1093 (  7879 PWs)   bands (ev):

   -32.7267 -32.7173 -16.5464 -16.3511 -14.4148 -14.2913 -14.1082 -13.8644
   -13.7768 -13.6720 -13.1447 -12.8772 -12.7317 -12.6009  -2.4673  -2.2800
    -1.0319  -0.8027  -0.7201  -0.6128  -0.4986   0.0191   2.7351   3.0197
     3.0593   3.2000   3.3168   3.6147   3.8841   4.1274   4.8374   5.0114

          k =-0.3363 0.1941 0.3825 (  7885 PWs)   bands (ev):

   -32.7261 -32.7181 -16.5358 -16.3697 -14.4226 -14.2610 -14.0143 -13.8845
   -13.7911 -13.7479 -13.0670 -12.9503 -12.6949 -12.6317  -2.5340  -2.3649
    -0.9603  -0.8002  -0.7787  -0.5935  -0.4543  -0.0522   2.8604   3.0070
     3.1625   3.3111   3.4064   3.6403   3.7121   4.1858   4.7863   4.9038

          k = 0.6725 0.7765 0.0546 (  7885 PWs)   bands (ev):

   -32.7244 -32.7195 -16.5277 -16.3850 -14.4072 -14.3104 -13.9768 -13.8974
   -13.7740 -13.7501 -13.0866 -12.9712 -12.6644 -12.6276  -2.4878  -2.2891
    -0.9663  -0.8583  -0.7519  -0.5725  -0.2979  -0.1057   2.7307   2.9044
     3.1824   3.2936   3.3449   3.4428   3.8356   4.0965   4.8174   4.9974

          k = 0.5044 0.6795 0.1093 (  7906 PWs)   bands (ev):

   -32.7223 -32.7215 -16.4711 -16.4495 -14.3362 -14.2829 -14.0510 -14.0002
   -13.7689 -13.7396 -13.0071 -12.9356 -12.6911 -12.6518  -2.3520  -2.3268
    -0.9721  -0.9114  -0.7214  -0.5901  -0.1508  -0.1384   2.7087   2.7464
     3.1334   3.1936   3.3488   3.3661   3.9624   4.0258   4.9542   4.9844

          k = 0.3363 0.5824 0.1639 (  7899 PWs)   bands (ev):

   -32.7236 -32.7202 -16.4998 -16.4134 -14.3705 -14.2501 -14.1491 -13.9419
   -13.7514 -13.6997 -13.0834 -12.8702 -12.7383 -12.6172  -2.3899  -2.2837
    -1.0032  -0.8934  -0.6669  -0.6256  -0.2560  -0.0738   2.6833   2.8327
     3.0715   3.1266   3.3614   3.4539   3.9721   4.0423   4.9179   5.0289

          k = 0.6725-0.3883-0.2732 (  7904 PWs)   bands (ev):

   -32.7246 -32.7193 -16.5640 -16.3394 -14.4840 -14.3857 -13.8591 -13.8012
   -13.7655 -13.6800 -13.1719 -13.1635 -12.5943 -12.5715  -2.5533  -2.1682
    -1.0575  -0.8110  -0.6755  -0.5579  -0.3064  -0.1418   2.6213   2.8950
     3.1633   3.3193   3.3464   3.4544   3.8510   4.0953   4.7308   5.0808

          k = 0.5044-0.4853-0.2186 (  7901 PWs)   bands (ev):

   -32.7243 -32.7195 -16.5452 -16.3633 -14.4155 -14.3775 -13.9893 -13.8048
   -13.7742 -13.7035 -13.1924 -12.9800 -12.6608 -12.5769  -2.4891  -2.1925
    -1.0369  -0.8524  -0.6847  -0.5769  -0.2781  -0.0956   2.6073   2.8628
     3.0785   3.2725   3.3746   3.4203   3.9170   4.0663   4.8013   5.0836

          k = 0.5044-0.2912-0.1639 (  7900 PWs)   bands (ev):

   -32.7259 -32.7180 -16.5668 -16.3292 -14.4294 -14.4159 -13.9335 -13.8549
   -13.7685 -13.6399 -13.2037 -13.0171 -12.6363 -12.5858  -2.5228  -2.1863
    -1.0653  -0.8003  -0.6754  -0.5888  -0.4140  -0.0620   2.6323   2.9492
     3.0275   3.3080   3.3634   3.6251   3.8094   4.1119   4.7579   5.0716

          k =-0.0000-0.0000 0.3279 (  7856 PWs)   bands (ev):

   -32.7288 -32.7161 -16.4805 -16.4183 -14.3062 -14.3062 -14.0035 -14.0035
   -13.7308 -13.6888 -13.0824 -13.0824 -12.6245 -12.6245  -2.6601  -2.4968
    -0.8823  -0.8823  -0.7929  -0.6998  -0.6998   0.1871   3.0528   3.0528
     3.1991   3.1991   3.6976   3.6976   4.2138   4.2138   4.5426   4.8423

          k =-0.1681-0.0971 0.3825 (  7874 PWs)   bands (ev):

   -32.7269 -32.7178 -16.4789 -16.4247 -14.3516 -14.1939 -14.1692 -13.9084
   -13.7542 -13.7102 -13.1104 -12.8727 -12.7797 -12.6034  -2.6024  -2.4978
    -0.8665  -0.8550  -0.7386  -0.7314  -0.5790   0.0566   3.0471   3.1116
     3.1765   3.1949   3.5255   3.7648   3.9931   4.1502   4.6655   4.8278

          k = 0.8406 0.4853 0.0546 (  7904 PWs)   bands (ev):

   -32.7240 -32.7202 -16.4626 -16.4492 -14.3949 -14.2113 -14.1408 -13.8729
   -13.7740 -13.7142 -13.0971 -12.8344 -12.8226 -12.5966  -2.5255  -2.3857
    -0.9290  -0.8134  -0.7372  -0.7019  -0.3498  -0.0897   2.9130   3.0310
     3.2072   3.2302   3.3111   3.7577   3.8015   3.9979   4.7962   4.8982

          k = 0.6725 0.3883 0.1093 (  7896 PWs)   bands (ev):

   -32.7231 -32.7208 -16.5285 -16.3805 -14.4397 -14.3153 -14.0099 -13.8945
   -13.7485 -13.6747 -13.0890 -13.0395 -12.6656 -12.5952  -2.5105  -2.2165
    -1.0556  -0.7794  -0.6960  -0.6217  -0.2388  -0.1719   2.6826   2.9117
     3.0567   3.2905   3.3973   3.5999   3.8205   3.9931   4.7936   5.0333

          k =-0.1681 0.0971 0.4372 (  7897 PWs)   bands (ev):

   -32.7258 -32.7189 -16.4833 -16.4222 -14.3365 -14.1791 -14.1621 -13.9765
   -13.7378 -13.7290 -13.0326 -12.8500 -12.7866 -12.6615  -2.5757  -2.5428
    -0.8757  -0.8041  -0.7767  -0.6935  -0.5101  -0.0288   3.0727   3.0754
     3.1788   3.1834   3.6217   3.7913   3.8772   4.1509   4.6892   4.7840

          k = 0.8406 0.6795 0.1093 (  7888 PWs)   bands (ev):

   -32.7239 -32.7205 -16.4753 -16.4372 -14.3320 -14.3024 -14.0189 -13.9625
   -13.7713 -13.7455 -12.9877 -12.9514 -12.7090 -12.6736  -2.4922  -2.4888
    -0.8675  -0.8476  -0.7545  -0.6783  -0.3388  -0.1337   2.9815   2.9953
     3.1974   3.2539   3.4631   3.6127   3.8748   4.0395   4.8092   4.8235

          k = 0.6725 0.5824 0.1639 (  7900 PWs)   bands (ev):

   -32.7224 -32.7216 -16.4937 -16.4238 -14.3803 -14.2802 -14.0471 -13.8954
   -13.7758 -13.7620 -13.0252 -12.9613 -12.7025 -12.6312  -2.4651  -2.3184
    -0.9793  -0.8448  -0.6828  -0.6580  -0.1948  -0.1821   2.7734   2.8755
     3.1832   3.2854   3.3393   3.4641   3.9072   3.9812   4.8497   4.9661

          k = 0.8406-0.4853-0.2186 (  7908 PWs)   bands (ev):

   -32.7233 -32.7210 -16.5057 -16.4065 -14.4268 -14.1926 -14.1197 -13.8570
   -13.7788 -13.7223 -13.1089 -12.8848 -12.7604 -12.6067  -2.5453  -2.3752
    -0.9600  -0.7757  -0.7190  -0.6705  -0.2778  -0.1939   2.8726   2.9940
     3.2530   3.2713   3.3690   3.5987   3.8198   4.0535   4.7764   4.9009

          k =-0.0000-0.0000 0.4918 (  7904 PWs)   bands (ev):

   -32.7247 -32.7202 -16.4628 -16.4406 -14.2302 -14.2302 -14.1269 -14.1269
   -13.7139 -13.6990 -12.9094 -12.9094 -12.7507 -12.7507  -2.6382  -2.5833
    -0.8209  -0.8209  -0.7559  -0.7559  -0.4458  -0.0978   3.1077   3.1077
     3.1622   3.1622   3.8383   3.8383   4.0241   4.0241   4.6249   4.7293

          k = 1.0088 0.5824 0.1639 (  7887 PWs)   bands (ev):

   -32.7229 -32.7217 -16.4556 -16.4518 -14.3167 -14.2443 -14.1030 -14.0111
   -13.7346 -13.7140 -12.9786 -12.8777 -12.7783 -12.6908  -2.5884  -2.5500
    -0.8414  -0.7832  -0.7718  -0.7457  -0.3075  -0.2115   3.0687   3.1027
     3.1683   3.1759   3.6708   3.7999   3.9386   3.9990   4.7119   4.7509

     highest occupied level (ev):     5.0991

!    total energy              =    -367.41800115 Ry
     Harris-Foulkes estimate   =    -367.41800115 Ry
     estimated scf accuracy    <          3.3E-11 Ry

     The total energy is the sum of the following terms:

     one-electron contribution =    -132.98107479 Ry
     hartree contribution      =      97.67011809 Ry
     xc contribution           =     -75.42653640 Ry
     ewald contribution        =    -256.68050805 Ry

     convergence has been achieved in   6 iterations

     Forces acting on atoms (cartesian axes, Ry/au):

     atom    1 type  1   force =     0.00000000    0.00000000    0.00000000
     atom    2 type  1   force =     0.00000000    0.00000000    0.00000000
     atom    3 type  2   force =    -0.00000000    0.00000000   -0.00000000
     atom    4 type  2   force =     0.00000000   -0.00000000   -0.00000000
     atom    5 type  3   force =    -0.00001341    0.00002322    0.00000000
     atom    6 type  3   force =     0.00002682   -0.00000000    0.00000000
     atom    7 type  3   force =    -0.00001341   -0.00002322   -0.00000000
     atom    8 type  3   force =    -0.00002682    0.00000000   -0.00000000
     atom    9 type  3   force =     0.00001341    0.00002322    0.00000000
     atom   10 type  3   force =     0.00001341   -0.00002322   -0.00000000

     Total force =     0.000066     Total SCF correction =     0.000019
     SCF correction compared to forces is large: reduce conv_thr to get better values


     Computing stress (Cartesian axis) and pressure

          total   stress  (Ry/bohr**3)                   (kbar)     P=   42.76
   0.00020869  -0.00000000   0.00000000         30.70     -0.00      0.00
   0.00000000   0.00020869   0.00000000          0.00     30.70      0.00
  -0.00000000   0.00000000   0.00045460         -0.00      0.00     66.87


     bfgs converged in   4 scf cycles and   3 bfgs steps
     (criteria: energy <  1.0E-04 Ry, force <  1.0E-03 Ry/Bohr)

     End of BFGS Geometry Optimization

     Final energy   =    -367.4180011510 Ry
Begin final coordinates

ATOMIC_POSITIONS (crystal)
Ca       0.500000000   0.500000000   0.500000000
Ca       0.000000000   0.000000000   0.000000000
C        0.250000000   0.250000000   0.250000000
C        0.750000000   0.750000000   0.750000000
O        0.503274393   0.996725607   0.250000000
O        0.996725607   0.250000000   0.503274393
O        0.250000000   0.503274393   0.996725607
O        0.003274393   0.750000000   0.496725607
O        0.750000000   0.496725607   0.003274393
O        0.496725607   0.003274393   0.750000000
End final coordinates



     Writing output data file CCO_rand2.save/
 
     init_run     :      4.73s CPU      6.29s WALL (       1 calls)
     electrons    :    498.69s CPU    558.34s WALL (       4 calls)
     update_pot   :      0.28s CPU      0.31s WALL (       3 calls)
     forces       :      1.88s CPU      2.01s WALL (       4 calls)
     stress       :      4.12s CPU      4.25s WALL (       4 calls)

     Called by init_run:
     wfcinit      :      4.44s CPU      5.41s WALL (       1 calls)
     potinit      :      0.04s CPU      0.15s WALL (       1 calls)
     hinit0       :      0.17s CPU      0.44s WALL (       1 calls)

     Called by electrons:
     c_bands      :    466.38s CPU    523.40s WALL (      33 calls)
     sum_band     :     31.31s CPU     33.49s WALL (      33 calls)
     v_of_rho     :      0.57s CPU      0.67s WALL (      36 calls)
     newd         :      0.38s CPU      0.48s WALL (      36 calls)
     mix_rho      :      0.06s CPU      0.13s WALL (      33 calls)

     Called by c_bands:
     init_us_2    :      1.07s CPU      1.26s WALL (    3300 calls)
     ccgdiagg     :    386.49s CPU    427.87s WALL (    1456 calls)
     wfcrot       :     83.19s CPU     98.15s WALL (    1280 calls)

     Called by sum_band:
     sum_band:bec :      0.36s CPU      0.41s WALL (    1452 calls)
     addusdens    :      0.34s CPU      0.42s WALL (      33 calls)

     Called by *cgdiagg:
     h_psi        :    321.07s CPU    348.43s WALL (  155337 calls)
     s_psi        :     29.69s CPU     34.54s WALL (  309394 calls)
     cdiaghg      :     26.41s CPU     37.13s WALL (    1280 calls)

     Called by h_psi:
     h_psi:pot    :    315.67s CPU    342.07s WALL (  155337 calls)
     h_psi:calbec :     34.63s CPU     38.14s WALL (  155337 calls)
     vloc_psi     :    256.54s CPU    277.24s WALL (  155337 calls)
     add_vuspsi   :     18.48s CPU     20.89s WALL (  155337 calls)
     hs_1psi      :    295.71s CPU    322.24s WALL (  154057 calls)
     s_1psi       :     44.35s CPU     51.21s WALL (  154057 calls)

     General routines
     calbec       :     52.81s CPU     60.53s WALL (  311726 calls)
     fft          :      0.61s CPU      0.77s WALL (     500 calls)
     ffts         :      0.04s CPU      0.04s WALL (      33 calls)
     fftw         :    269.22s CPU    290.02s WALL (  438258 calls)
 
     Parallel routines
     fft_scatt_xy :     15.31s CPU     16.57s WALL (  438791 calls)
     fft_scatt_yz :    203.47s CPU    219.79s WALL (  438791 calls)
 
     PWSCF        :   8m32.01s CPU   9m36.58s WALL

 
   This run was terminated on:   0:11:35   4May2022            

=------------------------------------------------------------------------------=
   JOB DONE.
=------------------------------------------------------------------------------=
