
     Program PWSCF v.7.0 starts on 10Apr2022 at  8:35:23 

     This program is part of the open-source Quantum ESPRESSO suite
     for quantum simulation of materials; please cite
         "P. Giannozzi et al., J. Phys.:Condens. Matter 21 395502 (2009);
         "P. Giannozzi et al., J. Phys.:Condens. Matter 29 465901 (2017);
         "P. Giannozzi et al., J. Chem. Phys. 152 154105 (2020);
          URL http://www.quantum-espresso.org", 
     in publications or presentations arising from this work. More details at
     http://www.quantum-espresso.org/quote

     Parallel version (MPI), running on     1 processors

     MPI processes distributed on     1 nodes
     90640 MiB available memory on the printing compute node when the environment starts
 
     Waiting for input...
     Reading input from standard input
Warning: card &CELL ignored
Warning: card  CELL_DYNAMICS = 'BFGS', ignored
Warning: card  PRESS=0.1D0, ignored
Warning: card / ignored

     Current dimensions of program PWSCF are:
     Max number of different atomic species (ntypx) = 10
     Max number of k-points (npk) =  40000
     Max angular momentum in pseudopotentials (lmaxx) =  4

     Subspace diagonalization in iterative solution of the eigenvalue problem:
     a serial algorithm will be used

 
     G-vector sticks info
     --------------------
     sticks:   dense  smooth     PW     G-vecs:    dense   smooth      PW
     Sum        1843     745    223                52345    13323    2229
 
     Using Slab Decomposition
 


     bravais-lattice index     =            2
     lattice parameter (alat)  =      10.3614  a.u.
     unit-cell volume          =     278.0964 (a.u.)^3
     number of atoms/cell      =            2
     number of atomic types    =            1
     number of electrons       =         8.00
     number of Kohn-Sham states=            4
     kinetic-energy cutoff     =      50.0000  Ry
     charge density cutoff     =     500.0000  Ry
     scf convergence threshold =      1.0E-08
     mixing beta               =       0.7000
     number of iterations used =            8  plain     mixing
     Exchange-correlation= SLA  PZ   NOGX NOGC
                           (   1   1   0   0   0   0   0)

     celldm(1)=  10.361400  celldm(2)=   0.000000  celldm(3)=   0.000000
     celldm(4)=   0.000000  celldm(5)=   0.000000  celldm(6)=   0.000000

     crystal axes: (cart. coord. in units of alat)
               a(1) = (  -0.500000   0.000000   0.500000 )  
               a(2) = (   0.000000   0.500000   0.500000 )  
               a(3) = (  -0.500000   0.500000   0.000000 )  

     reciprocal axes: (cart. coord. in units 2 pi/alat)
               b(1) = ( -1.000000 -1.000000  1.000000 )  
               b(2) = (  1.000000  1.000000  1.000000 )  
               b(3) = ( -1.000000  1.000000 -1.000000 )  


     PseudoPot. # 1 for Si read from file:
     ./Si_LDA.UPF
     MD5 check sum: b5ade7b37ee992b02096e360e546dc2d
     Pseudo is Ultrasoft + core correction, Zval =  4.0
     Generated by new atomic code, or converted to UPF format
     Using radial grid of  899 points,  6 beta functions with: 
                l(1) =   0
                l(2) =   0
                l(3) =   1
                l(4) =   1
                l(5) =   2
                l(6) =   2
     Q(r) pseudized with  8 coefficients,  rinner =    0.900   0.900   0.900
                                                       0.900   0.900

     atomic species   valence    mass     pseudopotential
        Si             4.00    28.08550     Si( 1.00)

     48 Sym. Ops., with inversion, found (24 have fractional translation)



   Cartesian axes

     site n.     atom                  positions (alat units)
         1           Si  tau(   1) = (   0.0000000   0.0000000   0.0000000  )
         2           Si  tau(   2) = (  -0.2500000   0.2500000   0.2500000  )

     number of k points=    35
                       cart. coord. in units 2pi/alat
        k(    1) = (   0.0000000   0.0000000   0.0000000), wk =   0.0027435
        k(    2) = (  -0.1111111   0.1111111  -0.1111111), wk =   0.0219479
        k(    3) = (  -0.2222222   0.2222222  -0.2222222), wk =   0.0219479
        k(    4) = (  -0.3333333   0.3333333  -0.3333333), wk =   0.0219479
        k(    5) = (  -0.4444444   0.4444444  -0.4444444), wk =   0.0219479
        k(    6) = (   0.0000000   0.2222222   0.0000000), wk =   0.0164609
        k(    7) = (  -0.1111111   0.3333333  -0.1111111), wk =   0.0658436
        k(    8) = (  -0.2222222   0.4444444  -0.2222222), wk =   0.0658436
        k(    9) = (  -0.3333333   0.5555556  -0.3333333), wk =   0.0658436
        k(   10) = (   0.5555556  -0.3333333   0.5555556), wk =   0.0658436
        k(   11) = (   0.4444444  -0.2222222   0.4444444), wk =   0.0658436
        k(   12) = (   0.3333333  -0.1111111   0.3333333), wk =   0.0658436
        k(   13) = (   0.2222222  -0.0000000   0.2222222), wk =   0.0329218
        k(   14) = (   0.0000000   0.4444444   0.0000000), wk =   0.0164609
        k(   15) = (  -0.1111111   0.5555556  -0.1111111), wk =   0.0658436
        k(   16) = (  -0.2222222   0.6666667  -0.2222222), wk =   0.0658436
        k(   17) = (   0.6666667  -0.2222222   0.6666667), wk =   0.0658436
        k(   18) = (   0.5555556  -0.1111111   0.5555556), wk =   0.0658436
        k(   19) = (   0.4444444  -0.0000000   0.4444444), wk =   0.0329218
        k(   20) = (   0.0000000   0.6666667   0.0000000), wk =   0.0164609
        k(   21) = (  -0.1111111   0.7777778  -0.1111111), wk =   0.0658436
        k(   22) = (   0.7777778  -0.1111111   0.7777778), wk =   0.0658436
        k(   23) = (   0.6666667  -0.0000000   0.6666667), wk =   0.0329218
        k(   24) = (   0.0000000   0.8888889   0.0000000), wk =   0.0164609
        k(   25) = (   0.8888889   0.0000000   0.8888889), wk =   0.0329218
        k(   26) = (  -0.2222222   0.4444444   0.0000000), wk =   0.0658436
        k(   27) = (  -0.3333333   0.5555556  -0.1111111), wk =   0.1316872
        k(   28) = (   0.5555556  -0.3333333   0.7777778), wk =   0.1316872
        k(   29) = (  -0.2222222   0.6666667   0.0000000), wk =   0.0658436
        k(   30) = (   0.6666667  -0.2222222   0.8888889), wk =   0.1316872
        k(   31) = (   0.5555556  -0.1111111   0.7777778), wk =   0.1316872
        k(   32) = (   0.4444444  -0.0000000   0.6666667), wk =   0.0658436
        k(   33) = (   0.7777778  -0.1111111   1.0000000), wk =   0.0658436
        k(   34) = (   0.6666667  -0.0000000   0.8888889), wk =   0.0658436
        k(   35) = (   0.5555556  -0.1111111   1.0000000), wk =   0.0658436

     Dense  grid:    52345 G-vectors     FFT dimensions: (  60,  60,  60)

     Smooth grid:    13323 G-vectors     FFT dimensions: (  36,  36,  36)

     Estimated max dynamical RAM per process >     203.20 MB

     Initial potential from superposition of free atoms

     starting charge       7.9988, renormalised to       8.0000
     Starting wfcs are    8 randomized atomic wfcs

     total cpu time spent up to now is        3.7 secs

     Self-consistent Calculation

     iteration #  1     ecut=    50.00 Ry     beta= 0.70
     CG style diagonalization
     ethr =  1.00E-02,  avg # of iterations =  2.9

     Threshold (ethr) on eigenvalues was too large:
     Diagonalizing with lowered threshold

     CG style diagonalization
     ethr =  6.79E-04,  avg # of iterations =  2.0

     total cpu time spent up to now is        8.1 secs

     total energy              =     -19.25576185 Ry
     estimated scf accuracy    <       0.05468648 Ry

     iteration #  2     ecut=    50.00 Ry     beta= 0.70
     CG style diagonalization
     ethr =  6.84E-04,  avg # of iterations =  3.0

     total cpu time spent up to now is       10.5 secs

     total energy              =     -19.25819392 Ry
     estimated scf accuracy    <       0.00198458 Ry

     iteration #  3     ecut=    50.00 Ry     beta= 0.70
     CG style diagonalization
     ethr =  2.48E-05,  avg # of iterations =  4.1

     total cpu time spent up to now is       13.5 secs

     total energy              =     -19.25873251 Ry
     estimated scf accuracy    <       0.00005582 Ry

     iteration #  4     ecut=    50.00 Ry     beta= 0.70
     CG style diagonalization
     ethr =  6.98E-07,  avg # of iterations =  4.3

     total cpu time spent up to now is       16.7 secs

     total energy              =     -19.25876277 Ry
     estimated scf accuracy    <       0.00001017 Ry

     iteration #  5     ecut=    50.00 Ry     beta= 0.70
     CG style diagonalization
     ethr =  1.27E-07,  avg # of iterations =  3.9

     total cpu time spent up to now is       19.6 secs

     total energy              =     -19.25876495 Ry
     estimated scf accuracy    <       0.00000008 Ry

     iteration #  6     ecut=    50.00 Ry     beta= 0.70
     CG style diagonalization
     ethr =  9.86E-10,  avg # of iterations =  5.3

     total cpu time spent up to now is       23.2 secs

     End of self-consistent calculation

          k = 0.0000 0.0000 0.0000 (  1639 PWs)   bands (ev):

    -6.0572   5.7130   5.7130   5.7130

          k =-0.1111 0.1111-0.1111 (  1666 PWs)   bands (ev):

    -5.8997   4.3559   5.4816   5.4816

          k =-0.2222 0.2222-0.2222 (  1657 PWs)   bands (ev):

    -5.4370   2.3110   5.0672   5.0672

          k =-0.3333 0.3333-0.3333 (  1634 PWs)   bands (ev):

    -4.7160   0.4404   4.7361   4.7361

          k =-0.4444 0.4444-0.4444 (  1673 PWs)   bands (ev):

    -3.9492  -0.9184   4.5635   4.5635

          k = 0.0000 0.2222 0.0000 (  1683 PWs)   bands (ev):

    -5.8467   4.5540   5.0547   5.0547

          k =-0.1111 0.3333-0.1111 (  1665 PWs)   bands (ev):

    -5.4838   2.9097   4.5926   4.7051

          k =-0.2222 0.4444-0.2222 (  1665 PWs)   bands (ev):

    -4.8400   1.0470   4.2036   4.2938

          k =-0.3333 0.5556-0.3333 (  1660 PWs)   bands (ev):

    -4.0374  -0.5023   3.7765   4.2123

          k = 0.5556-0.3333 0.5556 (  1668 PWs)   bands (ev):

    -3.6718  -1.0570   3.5255   4.3478

          k = 0.4444-0.2222 0.4444 (  1650 PWs)   bands (ev):

    -4.3074  -0.0388   3.4966   4.6695

          k = 0.3333-0.1111 0.3333 (  1651 PWs)   bands (ev):

    -5.0844   1.6476   3.7312   5.1080

          k = 0.2222-0.0000 0.2222 (  1663 PWs)   bands (ev):

    -5.6396   3.3753   4.3787   5.4924

          k = 0.0000 0.4444 0.0000 (  1656 PWs)   bands (ev):

    -5.2213   2.6596   4.0844   4.0844

          k =-0.1111 0.5556-0.1111 (  1660 PWs)   bands (ev):

    -4.6663   1.3642   3.4598   3.7499

          k =-0.2222 0.6667-0.2222 (  1654 PWs)   bands (ev):

    -3.8888  -0.0636   2.7253   3.6535

          k = 0.6667-0.2222 0.6667 (  1671 PWs)   bands (ev):

    -3.2552  -0.9749   2.2151   3.8043

          k = 0.5556-0.1111 0.5556 (  1662 PWs)   bands (ev):

    -3.6542  -0.4154   2.0426   4.1754

          k = 0.4444-0.0000 0.4444 (  1660 PWs)   bands (ev):

    -4.4536   0.7977   2.4270   4.6839

          k = 0.0000 0.6667 0.0000 (  1668 PWs)   bands (ev):

    -4.2005   0.7128   3.3582   3.3582

          k =-0.1111 0.7778-0.1111 (  1663 PWs)   bands (ev):

    -3.4809  -0.3107   2.6442   3.2043

          k = 0.7778-0.1111 0.7778 (  1660 PWs)   bands (ev):

    -2.7107  -1.1826   1.7581   3.3087

          k = 0.6667-0.0000 0.6667 (  1668 PWs)   bands (ev):

    -2.8822  -0.9942   1.4026   3.6552

          k = 0.0000 0.8889 0.0000 (  1656 PWs)   bands (ev):

    -2.8226  -1.1526   2.9812   2.9812

          k = 0.8889 0.0000 0.8889 (  1668 PWs)   bands (ev):

    -2.0725  -1.9044   2.3762   3.0178

          k =-0.2222 0.4444 0.0000 (  1661 PWs)   bands (ev):

    -5.0258   1.9237   3.3966   4.5693

          k =-0.3333 0.5556-0.1111 (  1654 PWs)   bands (ev):

    -4.3099   0.4736   2.7908   4.1454

          k = 0.5556-0.3333 0.7778 (  1662 PWs)   bands (ev):

    -3.5376  -0.7763   2.5931   3.8331

          k =-0.2222 0.6667 0.0000 (  1671 PWs)   bands (ev):

    -4.0313   0.4203   2.7016   3.3821

          k = 0.6667-0.2222 0.8889 (  1665 PWs)   bands (ev):

    -3.2278  -0.6336   2.0472   3.0838

          k = 0.5556-0.1111 0.7778 (  1653 PWs)   bands (ev):

    -2.8753  -1.0442   1.6690   3.1925

          k = 0.4444-0.0000 0.6667 (  1659 PWs)   bands (ev):

    -3.5548  -0.2656   1.8154   3.6179

          k = 0.7778-0.1111 1.0000 (  1663 PWs)   bands (ev):

    -2.7107  -1.1699   2.4235   2.6323

          k = 0.6667-0.0000 0.8889 (  1654 PWs)   bands (ev):

    -2.2061  -1.6172   1.7175   2.7167

          k = 0.5556-0.1111 1.0000 (  1653 PWs)   bands (ev):

    -2.4448  -1.3131   1.7536   2.3845

     highest occupied level (ev):     5.7130

!    total energy              =     -19.25876510 Ry
     estimated scf accuracy    <          2.4E-09 Ry

     The total energy is the sum of the following terms:
     one-electron contribution =       4.82358425 Ry
     hartree contribution      =       1.13943314 Ry
     xc contribution           =      -8.58527222 Ry
     ewald contribution        =     -16.63651026 Ry

     convergence has been achieved in   6 iterations

     Forces acting on atoms (cartesian axes, Ry/au):

     atom    1 type  1   force =     0.00000000    0.00000000    0.00000000
     atom    2 type  1   force =     0.00000000    0.00000000    0.00000000

     Total force =     0.000000     Total SCF correction =     0.000000


     Computing stress (Cartesian axis) and pressure

          total   stress  (Ry/bohr**3)                   (kbar)     P=      -39.94
  -0.00027148   0.00000000   0.00000000          -39.94        0.00        0.00
   0.00000000  -0.00027148   0.00000000            0.00      -39.94        0.00
   0.00000000   0.00000000  -0.00027148            0.00        0.00      -39.94


     Writing all to output data dir ./Si.save/
 
     init_run     :      2.31s CPU      2.72s WALL (       1 calls)
     electrons    :     17.76s CPU     19.49s WALL (       1 calls)
     forces       :      0.55s CPU      0.63s WALL (       1 calls)
     stress       :      3.84s CPU      3.96s WALL (       1 calls)

     Called by init_run:
     wfcinit      :      0.86s CPU      0.99s WALL (       1 calls)
     potinit      :      0.07s CPU      0.12s WALL (       1 calls)
     hinit0       :      1.00s CPU      1.11s WALL (       1 calls)

     Called by electrons:
     c_bands      :     12.01s CPU     13.19s WALL (       7 calls)
     sum_band     :      3.81s CPU      4.07s WALL (       7 calls)
     v_of_rho     :      0.36s CPU      0.41s WALL (       7 calls)
     newd         :      1.75s CPU      1.95s WALL (       7 calls)
     mix_rho      :      0.07s CPU      0.08s WALL (       7 calls)

     Called by c_bands:
     init_us_2    :      1.02s CPU      1.06s WALL (     595 calls)
     init_us_2:cp :      1.00s CPU      1.05s WALL (     595 calls)
     ccgdiagg     :      9.56s CPU     10.28s WALL (     245 calls)
     wfcrot       :      2.62s CPU      2.78s WALL (     210 calls)

     Called by *cgdiagg:
     h_psi        :      9.94s CPU     10.47s WALL (    3085 calls)
     s_psi        :      0.98s CPU      1.16s WALL (    5960 calls)

     Called by h_psi:
     h_psi:calbec :      0.65s CPU      0.71s WALL (    3085 calls)
     vloc_psi     :      8.51s CPU      8.91s WALL (    3085 calls)
     add_vuspsi   :      0.57s CPU      0.65s WALL (    3085 calls)
     hs_1psi      :      8.21s CPU      8.71s WALL (    2875 calls)
     s_1psi       :      1.03s CPU      1.17s WALL (    2875 calls)

     General routines
     calbec       :      1.10s CPU      1.29s WALL (    6380 calls)
     fft          :      0.22s CPU      0.25s WALL (      49 calls)
     ffts         :      0.02s CPU      0.02s WALL (      14 calls)
     fftw         :      8.07s CPU      8.42s WALL (    8690 calls)
     interpolate  :      0.05s CPU      0.07s WALL (       7 calls)
 
     Parallel routines
 
     PWSCF        :     25.02s CPU     28.86s WALL

 
   This run was terminated on:   8:35:51  10Apr2022            

=------------------------------------------------------------------------------=
   JOB DONE.
=------------------------------------------------------------------------------=
