
     Program PHONON v.7.0 starts on 10Apr2022 at  8:35:53 

     This program is part of the open-source Quantum ESPRESSO suite
     for quantum simulation of materials; please cite
         "P. Giannozzi et al., J. Phys.:Condens. Matter 21 395502 (2009);
         "P. Giannozzi et al., J. Phys.:Condens. Matter 29 465901 (2017);
         "P. Giannozzi et al., J. Chem. Phys. 152 154105 (2020);
          URL http://www.quantum-espresso.org", 
     in publications or presentations arising from this work. More details at
     http://www.quantum-espresso.org/quote

     Parallel version (MPI), running on     1 processors

     MPI processes distributed on     1 nodes
     90579 MiB available memory on the printing compute node when the environment starts
 
     Waiting for input...
     Reading input from standard input

     Reading xml data from directory:

     ./Si.save/

     IMPORTANT: XC functional enforced from input :
     Exchange-correlation= PZ
                           (   1   1   0   0   0   0   0)
     Any further DFT definition will be discarded
     Please, verify this is what you really want

 
     G-vector sticks info
     --------------------
     sticks:   dense  smooth     PW     G-vecs:    dense   smooth      PW
     Sum        1843     745    223                52345    13323    2229
 
     Using Slab Decomposition
 
     Reading collected, re-writing distributed wavefunctions


     Dynamical matrices for ( 4, 4, 4)  uniform grid of q-points
     (   8 q-points):
       N         xq(1)         xq(2)         xq(3) 
       1   0.000000000   0.000000000   0.000000000
       2  -0.250000000   0.250000000  -0.250000000
       3   0.500000000  -0.500000000   0.500000000
       4   0.000000000   0.500000000   0.000000000
       5   0.750000000  -0.250000000   0.750000000
       6   0.500000000   0.000000000   0.500000000
       7   0.000000000  -1.000000000   0.000000000
       8  -0.500000000  -1.000000000   0.000000000

     Calculation of q =    0.0000000   0.0000000   0.0000000

     Phonons of Si                                                              

     bravais-lattice index     =            2
     lattice parameter (alat)  =      10.3614  a.u.
     unit-cell volume          =     278.0964 (a.u.)^3
     number of atoms/cell      =            2
     number of atomic types    =            1
     kinetic-energy cut-off    =      50.0000  Ry
     charge density cut-off    =     500.0000  Ry
     convergence threshold     =      1.0E-16
     beta                      =       0.7000
     number of iterations used =            4
     Exchange-correlation= PZ
                           (   1   1   0   0   0   0   0)


     celldm(1)=   10.36140  celldm(2)=    0.00000  celldm(3)=    0.00000
     celldm(4)=    0.00000  celldm(5)=    0.00000  celldm(6)=    0.00000

     crystal axes: (cart. coord. in units of alat)
               a(1) = ( -0.5000  0.0000  0.5000 )  
               a(2) = (  0.0000  0.5000  0.5000 )  
               a(3) = ( -0.5000  0.5000  0.0000 )  

     reciprocal axes: (cart. coord. in units 2 pi/alat)
               b(1) = ( -1.0000 -1.0000  1.0000 )  
               b(2) = (  1.0000  1.0000  1.0000 )  
               b(3) = ( -1.0000  1.0000 -1.0000 )  


     Atoms inside the unit cell: 

     Cartesian axes

     site n.  atom      mass           positions (alat units)
        1     Si  28.0855   tau(    1) = (    0.00000    0.00000    0.00000  )
        2     Si  28.0855   tau(    2) = (   -0.25000    0.25000    0.25000  )

     Computing dynamical matrix for 
                    q = (   0.0000000   0.0000000   0.0000000 )
 
     49 Sym.Ops. (with q -> -q+G )


     G cutoff = 1359.7127  (  52345 G-vectors)     FFT grid: ( 60, 60, 60)
     G cutoff =  543.8851  (  13323 G-vectors)  smooth grid: ( 36, 36, 36)
     number of k points=    35

     PseudoPot. # 1 for Si read from file:
     ./Si_LDA.UPF
     MD5 check sum: b5ade7b37ee992b02096e360e546dc2d
     Pseudo is Ultrasoft + core correction, Zval =  4.0
     Generated by new atomic code, or converted to UPF format
     Using radial grid of  899 points,  6 beta functions with: 
                l(1) =   0
                l(2) =   0
                l(3) =   1
                l(4) =   1
                l(5) =   2
                l(6) =   2
     Q(r) pseudized with  8 coefficients,  rinner =    0.900   0.900   0.900
                                                       0.900   0.900

     Mode symmetry, O_h (m-3m)  point group:


     Electric field:
     Dielectric constant
     Born effective charges in two ways 


     Atomic displacements:
     There are    2 irreducible representations

     Representation     1      3 modes -  To be done

     Representation     2      3 modes -  To be done



     Alpha used in Ewald sum =   2.8000
     PHONON       :     15.72s CPU     17.81s WALL


     Electric Fields Calculation

      iter #   1 total cpu time :    60.9 secs   av.it.:   5.9
      thresh= 1.000E-02 alpha_mix =  0.700 |ddv_scf|^2 =  3.294E-08

      iter #   2 total cpu time :    83.4 secs   av.it.:  12.2
      thresh= 1.815E-05 alpha_mix =  0.700 |ddv_scf|^2 =  1.325E-09

      iter #   3 total cpu time :   105.8 secs   av.it.:  12.1
      thresh= 3.640E-06 alpha_mix =  0.700 |ddv_scf|^2 =  2.060E-11

      iter #   4 total cpu time :   128.5 secs   av.it.:  12.3
      thresh= 4.539E-07 alpha_mix =  0.700 |ddv_scf|^2 =  1.047E-13

      iter #   5 total cpu time :   150.2 secs   av.it.:  11.5
      thresh= 3.236E-08 alpha_mix =  0.700 |ddv_scf|^2 =  4.687E-17

     End of electric fields calculation

          Dielectric constant in cartesian axis 

          (      14.316505948       0.000000000      -0.000000000 )
          (       0.000000000      14.316505948      -0.000000000 )
          (      -0.000000000       0.000000000      14.316505948 )

          Effective charges (d Force / dE) in cartesian axis without acoustic sum rule applied (asr)

           atom      1   Si Mean Z*:       -0.05385
      Ex  (       -0.05385        0.00000       -0.00000 )
      Ey  (       -0.00000       -0.05385        0.00000 )
      Ez  (        0.00000        0.00000       -0.05385 )
           atom      2   Si Mean Z*:       -0.05385
      Ex  (       -0.05385        0.00000       -0.00000 )
      Ey  (        0.00000       -0.05385       -0.00000 )
      Ez  (        0.00000       -0.00000       -0.05385 )

          Effective charges Sum: Mean:       -0.10770
             -0.10770       -0.00000        0.00000
              0.00000       -0.10770       -0.00000
             -0.00000       -0.00000       -0.10770

          Effective charges (d Force / dE) in cartesian axis with asr applied: 
           atom      1   Si Mean Z*:        0.00000
      E*x (        0.00000        0.00000        0.00000 )
      E*y (       -0.00000        0.00000        0.00000 )
      E*z (        0.00000        0.00000        0.00000 )
           atom      2   Si Mean Z*:       -0.00000
      E*x (       -0.00000       -0.00000       -0.00000 )
      E*y (        0.00000        0.00000       -0.00000 )
      E*z (       -0.00000       -0.00000        0.00000 )


     Representation #   1 modes #   1   2   3

     Self-consistent Calculation

      iter #   1 total cpu time :   181.9 secs   av.it.:   5.2
      thresh= 1.000E-02 alpha_mix =  0.700 |ddv_scf|^2 =  4.692E-09

      iter #   2 total cpu time :   206.5 secs   av.it.:  12.5
      thresh= 6.850E-06 alpha_mix =  0.700 |ddv_scf|^2 =  1.535E-10

      iter #   3 total cpu time :   230.6 secs   av.it.:  12.2
      thresh= 1.239E-06 alpha_mix =  0.700 |ddv_scf|^2 =  9.286E-12

      iter #   4 total cpu time :   254.6 secs   av.it.:  11.9
      thresh= 3.047E-07 alpha_mix =  0.700 |ddv_scf|^2 =  1.694E-14

      iter #   5 total cpu time :   279.1 secs   av.it.:  12.6
      thresh= 1.301E-08 alpha_mix =  0.700 |ddv_scf|^2 =  9.798E-17

     End of self-consistent calculation

     Convergence has been achieved 


     Representation #   2 modes #   4   5   6

     Self-consistent Calculation

      iter #   1 total cpu time :   299.6 secs   av.it.:   5.3
      thresh= 1.000E-02 alpha_mix =  0.700 |ddv_scf|^2 =  3.817E-09

      iter #   2 total cpu time :   324.2 secs   av.it.:  12.7
      thresh= 6.178E-06 alpha_mix =  0.700 |ddv_scf|^2 =  1.777E-10

      iter #   3 total cpu time :   348.7 secs   av.it.:  12.4
      thresh= 1.333E-06 alpha_mix =  0.700 |ddv_scf|^2 =  1.048E-11

      iter #   4 total cpu time :   373.6 secs   av.it.:  12.7
      thresh= 3.237E-07 alpha_mix =  0.700 |ddv_scf|^2 =  2.006E-14

      iter #   5 total cpu time :   398.2 secs   av.it.:  12.8
      thresh= 1.416E-08 alpha_mix =  0.700 |ddv_scf|^2 =  6.343E-17

     End of self-consistent calculation

     Convergence has been achieved 
 
     Number of q in the star =    1
     List of q in the star:
          1   0.000000000   0.000000000   0.000000000

          Dielectric constant in cartesian axis 

          (      14.316505948       0.000000000      -0.000000000 )
          (       0.000000000      14.316505948      -0.000000000 )
          (      -0.000000000       0.000000000      14.316505948 )

          Effective charges (d Force / dE) in cartesian axis without acoustic sum rule applied (asr)

           atom      1   Si Mean Z*:       -0.05385
      Ex  (       -0.05385        0.00000       -0.00000 )
      Ey  (       -0.00000       -0.05385        0.00000 )
      Ez  (        0.00000        0.00000       -0.05385 )
           atom      2   Si Mean Z*:       -0.05385
      Ex  (       -0.05385        0.00000       -0.00000 )
      Ey  (        0.00000       -0.05385       -0.00000 )
      Ez  (        0.00000       -0.00000       -0.05385 )

          Effective charges Sum: Mean:       -0.10770
             -0.10770       -0.00000        0.00000
              0.00000       -0.10770       -0.00000
             -0.00000       -0.00000       -0.10770

          Effective charges (d Force / dE) in cartesian axis with asr applied: 
           atom      1   Si Mean Z*:        0.00000
      E*x (        0.00000        0.00000        0.00000 )
      E*y (       -0.00000        0.00000        0.00000 )
      E*z (        0.00000        0.00000        0.00000 )
           atom      2   Si Mean Z*:       -0.00000
      E*x (       -0.00000       -0.00000       -0.00000 )
      E*y (        0.00000        0.00000       -0.00000 )
      E*z (       -0.00000       -0.00000        0.00000 )

          Effective charges (d P / du) in cartesian axis 

           atom      1   Si 
      Px  (       -0.05370        0.00000        0.00000 )
      Py  (        0.00000       -0.05370        0.00000 )
      Pz  (        0.00000        0.00000       -0.05370 )
           atom      2   Si 
      Px  (       -0.05370        0.00000        0.00000 )
      Py  (        0.00000       -0.05370        0.00000 )
      Pz  (        0.00000        0.00000       -0.05370 )

     Diagonalizing the dynamical matrix

     q = (    0.000000000   0.000000000   0.000000000 ) 

 **************************************************************************
     freq (    1) =      -0.170042 [THz] =      -5.671983 [cm-1]
     freq (    2) =      -0.170042 [THz] =      -5.671983 [cm-1]
     freq (    3) =      -0.170042 [THz] =      -5.671983 [cm-1]
     freq (    4) =      14.716115 [THz] =     490.876773 [cm-1]
     freq (    5) =      14.716115 [THz] =     490.876773 [cm-1]
     freq (    6) =      14.716115 [THz] =     490.876773 [cm-1]
 **************************************************************************

     Mode symmetry, O_h (m-3m)  point group:

     freq (   1-   3) =         -5.7  [cm-1]   --> T_1u G_15  G_4- I  
     freq (   4-   6) =        490.9  [cm-1]   --> T_2g G_25' G_5+ R  

     Calculation of q =   -0.2500000   0.2500000  -0.2500000

     Subspace diagonalization in iterative solution of the eigenvalue problem:
     a serial algorithm will be used

 
     G-vector sticks info
     --------------------
     sticks:   dense  smooth     PW     G-vecs:    dense   smooth      PW
     Sum        1843     745    241                52345    13323    2445
 
     Using Slab Decomposition
 

     Title: 
     Phonons of Si                                                              


     bravais-lattice index     =            2
     lattice parameter (alat)  =      10.3614  a.u.
     unit-cell volume          =     278.0964 (a.u.)^3
     number of atoms/cell      =            2
     number of atomic types    =            1
     number of electrons       =         8.00
     number of Kohn-Sham states=            4
     kinetic-energy cutoff     =      50.0000  Ry
     charge density cutoff     =     500.0000  Ry
     Exchange-correlation= PZ
                           (   1   1   0   0   0   0   0)

     celldm(1)=  10.361400  celldm(2)=   0.000000  celldm(3)=   0.000000
     celldm(4)=   0.000000  celldm(5)=   0.000000  celldm(6)=   0.000000

     crystal axes: (cart. coord. in units of alat)
               a(1) = (  -0.500000   0.000000   0.500000 )  
               a(2) = (   0.000000   0.500000   0.500000 )  
               a(3) = (  -0.500000   0.500000   0.000000 )  

     reciprocal axes: (cart. coord. in units 2 pi/alat)
               b(1) = ( -1.000000 -1.000000  1.000000 )  
               b(2) = (  1.000000  1.000000  1.000000 )  
               b(3) = ( -1.000000  1.000000 -1.000000 )  


     PseudoPot. # 1 for Si read from file:
     ./Si_LDA.UPF
     MD5 check sum: b5ade7b37ee992b02096e360e546dc2d
     Pseudo is Ultrasoft + core correction, Zval =  4.0
     Generated by new atomic code, or converted to UPF format
     Using radial grid of  899 points,  6 beta functions with: 
                l(1) =   0
                l(2) =   0
                l(3) =   1
                l(4) =   1
                l(5) =   2
                l(6) =   2
     Q(r) pseudized with  8 coefficients,  rinner =    0.900   0.900   0.900
                                                       0.900   0.900

     atomic species   valence    mass     pseudopotential
        Si             4.00    28.08550     Si( 1.00)

     48 Sym. Ops., with inversion, found



   Cartesian axes

     site n.     atom                  positions (alat units)
         1           Si  tau(   1) = (   0.0000000   0.0000000   0.0000000  )
         2           Si  tau(   2) = (  -0.2500000   0.2500000   0.2500000  )

     number of k points=   330

     Number of k-points >= 100: set verbosity='high' to print them.

     Dense  grid:    52345 G-vectors     FFT dimensions: (  60,  60,  60)

     Smooth grid:    13323 G-vectors     FFT dimensions: (  36,  36,  36)

     Estimated max dynamical RAM per process >     174.06 MB

     The potential is recalculated from file :
     ./_ph0/Si.save/charge-density

     Starting wfcs are    8 atomic wfcs

     Band Structure Calculation
     Davidson diagonalization with overlap

     ethr =  1.25E-10,  avg # of iterations = 13.1

     total cpu time spent up to now is       64.2 secs

     End of band structure calculation

     Number of k-points >= 100: set verbosity='high' to print the bands.

     highest occupied level (ev):     5.7131

     Writing config to output data dir ./_ph0/Si.save/

     Phonons of Si                                                              

     bravais-lattice index     =            2
     lattice parameter (alat)  =      10.3614  a.u.
     unit-cell volume          =     278.0964 (a.u.)^3
     number of atoms/cell      =            2
     number of atomic types    =            1
     kinetic-energy cut-off    =      50.0000  Ry
     charge density cut-off    =     500.0000  Ry
     convergence threshold     =      1.0E-16
     beta                      =       0.7000
     number of iterations used =            4
     Exchange-correlation= PZ
                           (   1   1   0   0   0   0   0)


     celldm(1)=   10.36140  celldm(2)=    0.00000  celldm(3)=    0.00000
     celldm(4)=    0.00000  celldm(5)=    0.00000  celldm(6)=    0.00000

     crystal axes: (cart. coord. in units of alat)
               a(1) = ( -0.5000  0.0000  0.5000 )  
               a(2) = (  0.0000  0.5000  0.5000 )  
               a(3) = ( -0.5000  0.5000  0.0000 )  

     reciprocal axes: (cart. coord. in units 2 pi/alat)
               b(1) = ( -1.0000 -1.0000  1.0000 )  
               b(2) = (  1.0000  1.0000  1.0000 )  
               b(3) = ( -1.0000  1.0000 -1.0000 )  


     Atoms inside the unit cell: 

     Cartesian axes

     site n.  atom      mass           positions (alat units)
        1     Si  28.0855   tau(    1) = (    0.00000    0.00000    0.00000  )
        2     Si  28.0855   tau(    2) = (   -0.25000    0.25000    0.25000  )

     Computing dynamical matrix for 
                    q = (  -0.2500000   0.2500000  -0.2500000 )
 
      6 Sym.Ops. (no q -> -q+G )


     G cutoff = 1359.7127  (  52345 G-vectors)     FFT grid: ( 60, 60, 60)
     G cutoff =  543.8851  (  13323 G-vectors)  smooth grid: ( 36, 36, 36)
     number of k points=   330

     PseudoPot. # 1 for Si read from file:
     ./Si_LDA.UPF
     MD5 check sum: b5ade7b37ee992b02096e360e546dc2d
     Pseudo is Ultrasoft + core correction, Zval =  4.0
     Generated by new atomic code, or converted to UPF format
     Using radial grid of  899 points,  6 beta functions with: 
                l(1) =   0
                l(2) =   0
                l(3) =   1
                l(4) =   1
                l(5) =   2
                l(6) =   2
     Q(r) pseudized with  8 coefficients,  rinner =    0.900   0.900   0.900
                                                       0.900   0.900

     Mode symmetry, C_3v (3m)   point group:


     Atomic displacements:
     There are    4 irreducible representations

     Representation     1      1 modes -  To be done

     Representation     2      1 modes -  To be done

     Representation     3      2 modes -  To be done

     Representation     4      2 modes -  To be done



     Alpha used in Ewald sum =   2.8000
     PHONON       :   7m45.31s CPU   8m11.20s WALL



     Representation #   1 mode #   1

     Self-consistent Calculation

      iter #   1 total cpu time :   510.8 secs   av.it.:   6.1
      thresh= 1.000E-02 alpha_mix =  0.700 |ddv_scf|^2 =  9.654E-05

      iter #   2 total cpu time :   537.6 secs   av.it.:  10.4
      thresh= 9.826E-04 alpha_mix =  0.700 |ddv_scf|^2 =  1.577E-03

      iter #   3 total cpu time :   560.4 secs   av.it.:   8.2
      thresh= 3.971E-03 alpha_mix =  0.700 |ddv_scf|^2 =  5.665E-08

      iter #   4 total cpu time :   588.0 secs   av.it.:  10.8
      thresh= 2.380E-05 alpha_mix =  0.700 |ddv_scf|^2 =  4.247E-09

      iter #   5 total cpu time :   616.0 secs   av.it.:  10.8
      thresh= 6.517E-06 alpha_mix =  0.700 |ddv_scf|^2 =  7.426E-11

      iter #   6 total cpu time :   643.7 secs   av.it.:  10.7
      thresh= 8.617E-07 alpha_mix =  0.700 |ddv_scf|^2 =  1.406E-11

      iter #   7 total cpu time :   670.9 secs   av.it.:  10.6
      thresh= 3.749E-07 alpha_mix =  0.700 |ddv_scf|^2 =  3.724E-11

      iter #   8 total cpu time :   694.8 secs   av.it.:   8.8
      thresh= 6.103E-07 alpha_mix =  0.700 |ddv_scf|^2 =  1.536E-13

      iter #   9 total cpu time :   721.2 secs   av.it.:  10.0
      thresh= 3.920E-08 alpha_mix =  0.700 |ddv_scf|^2 =  1.032E-14

      iter #  10 total cpu time :   747.8 secs   av.it.:  10.3
      thresh= 1.016E-08 alpha_mix =  0.700 |ddv_scf|^2 =  4.961E-16

      iter #  11 total cpu time :   774.7 secs   av.it.:  10.5
      thresh= 2.227E-09 alpha_mix =  0.700 |ddv_scf|^2 =  6.331E-17

     End of self-consistent calculation

     Convergence has been achieved 


     Representation #   2 mode #   2

     Self-consistent Calculation

      iter #   1 total cpu time :   795.1 secs   av.it.:   6.1
      thresh= 1.000E-02 alpha_mix =  0.700 |ddv_scf|^2 =  9.654E-05

      iter #   2 total cpu time :   821.9 secs   av.it.:  10.4
      thresh= 9.826E-04 alpha_mix =  0.700 |ddv_scf|^2 =  1.577E-03

      iter #   3 total cpu time :   844.7 secs   av.it.:   8.2
      thresh= 3.971E-03 alpha_mix =  0.700 |ddv_scf|^2 =  5.665E-08

      iter #   4 total cpu time :   872.3 secs   av.it.:  10.8
      thresh= 2.380E-05 alpha_mix =  0.700 |ddv_scf|^2 =  4.247E-09

      iter #   5 total cpu time :   899.9 secs   av.it.:  10.8
      thresh= 6.517E-06 alpha_mix =  0.700 |ddv_scf|^2 =  7.426E-11

      iter #   6 total cpu time :   927.7 secs   av.it.:  10.7
      thresh= 8.617E-07 alpha_mix =  0.700 |ddv_scf|^2 =  1.406E-11

      iter #   7 total cpu time :   954.9 secs   av.it.:  10.6
      thresh= 3.749E-07 alpha_mix =  0.700 |ddv_scf|^2 =  3.724E-11

      iter #   8 total cpu time :   978.6 secs   av.it.:   8.8
      thresh= 6.103E-07 alpha_mix =  0.700 |ddv_scf|^2 =  1.536E-13

      iter #   9 total cpu time :  1004.8 secs   av.it.:  10.0
      thresh= 3.920E-08 alpha_mix =  0.700 |ddv_scf|^2 =  1.032E-14

      iter #  10 total cpu time :  1031.2 secs   av.it.:  10.3
      thresh= 1.016E-08 alpha_mix =  0.700 |ddv_scf|^2 =  4.961E-16

      iter #  11 total cpu time :  1058.2 secs   av.it.:  10.5
      thresh= 2.227E-09 alpha_mix =  0.700 |ddv_scf|^2 =  6.331E-17

     End of self-consistent calculation

     Convergence has been achieved 


     Representation #   3 modes #   3   4

     Self-consistent Calculation

      iter #   1 total cpu time :  1093.7 secs   av.it.:   5.4
      thresh= 1.000E-02 alpha_mix =  0.700 |ddv_scf|^2 =  1.376E-08

      iter #   2 total cpu time :  1153.7 secs   av.it.:  12.6
      thresh= 1.173E-05 alpha_mix =  0.700 |ddv_scf|^2 =  8.266E-10

      iter #   3 total cpu time :  1213.4 secs   av.it.:  12.3
      thresh= 2.875E-06 alpha_mix =  0.700 |ddv_scf|^2 =  3.194E-11

      iter #   4 total cpu time :  1274.2 secs   av.it.:  12.4
      thresh= 5.652E-07 alpha_mix =  0.700 |ddv_scf|^2 =  1.435E-13

      iter #   5 total cpu time :  1334.6 secs   av.it.:  12.5
      thresh= 3.788E-08 alpha_mix =  0.700 |ddv_scf|^2 =  4.530E-15

      iter #   6 total cpu time :  1395.1 secs   av.it.:  12.7
      thresh= 6.730E-09 alpha_mix =  0.700 |ddv_scf|^2 =  2.462E-17

     End of self-consistent calculation

     Convergence has been achieved 


     Representation #   4 modes #   5   6

     Self-consistent Calculation

      iter #   1 total cpu time :  1431.0 secs   av.it.:   5.4
      thresh= 1.000E-02 alpha_mix =  0.700 |ddv_scf|^2 =  1.376E-08

      iter #   2 total cpu time :  1489.6 secs   av.it.:  12.1
      thresh= 1.173E-05 alpha_mix =  0.700 |ddv_scf|^2 =  8.277E-10

      iter #   3 total cpu time :  1547.6 secs   av.it.:  11.9
      thresh= 2.877E-06 alpha_mix =  0.700 |ddv_scf|^2 =  3.195E-11

      iter #   4 total cpu time :  1605.4 secs   av.it.:  11.9
      thresh= 5.653E-07 alpha_mix =  0.700 |ddv_scf|^2 =  1.425E-13

      iter #   5 total cpu time :  1663.9 secs   av.it.:  12.1
      thresh= 3.775E-08 alpha_mix =  0.700 |ddv_scf|^2 =  4.498E-15

      iter #   6 total cpu time :  1723.1 secs   av.it.:  12.3
      thresh= 6.706E-09 alpha_mix =  0.700 |ddv_scf|^2 =  2.459E-17

     End of self-consistent calculation

     Convergence has been achieved 
 
     Number of q in the star =    8
     List of q in the star:
          1  -0.250000000   0.250000000  -0.250000000
          2   0.250000000  -0.250000000  -0.250000000
          3   0.250000000  -0.250000000   0.250000000
          4   0.250000000   0.250000000   0.250000000
          5  -0.250000000  -0.250000000  -0.250000000
          6  -0.250000000  -0.250000000   0.250000000
          7  -0.250000000   0.250000000   0.250000000
          8   0.250000000   0.250000000  -0.250000000

     Diagonalizing the dynamical matrix

     q = (   -0.250000000   0.250000000  -0.250000000 ) 

 **************************************************************************
     freq (    1) =       2.844139 [THz] =      94.870259 [cm-1]
     freq (    2) =       2.844139 [THz] =      94.870259 [cm-1]
     freq (    3) =       6.544861 [THz] =     218.313078 [cm-1]
     freq (    4) =      13.856491 [THz] =     462.202801 [cm-1]
     freq (    5) =      14.108641 [THz] =     470.613603 [cm-1]
     freq (    6) =      14.108641 [THz] =     470.613603 [cm-1]
 **************************************************************************

     Mode symmetry, C_3v (3m)   point group:

     freq (   1-   2) =         94.9  [cm-1]   --> E    L_3           
     freq (   3-   3) =        218.3  [cm-1]   --> A_1  L_1           
     freq (   4-   4) =        462.2  [cm-1]   --> A_1  L_1           
     freq (   5-   6) =        470.6  [cm-1]   --> E    L_3           

     Calculation of q =    0.5000000  -0.5000000   0.5000000
 
     G-vector sticks info
     --------------------
     sticks:   dense  smooth     PW     G-vecs:    dense   smooth      PW
     Sum        1843     745    253                52345    13323    2733
 
     Using Slab Decomposition
 

     Title: 
     Phonons of Si                                                              


     bravais-lattice index     =            2
     lattice parameter (alat)  =      10.3614  a.u.
     unit-cell volume          =     278.0964 (a.u.)^3
     number of atoms/cell      =            2
     number of atomic types    =            1
     number of electrons       =         8.00
     number of Kohn-Sham states=            4
     kinetic-energy cutoff     =      50.0000  Ry
     charge density cutoff     =     500.0000  Ry
     Exchange-correlation= PZ
                           (   1   1   0   0   0   0   0)

     celldm(1)=  10.361400  celldm(2)=   0.000000  celldm(3)=   0.000000
     celldm(4)=   0.000000  celldm(5)=   0.000000  celldm(6)=   0.000000

     crystal axes: (cart. coord. in units of alat)
               a(1) = (  -0.500000   0.000000   0.500000 )  
               a(2) = (   0.000000   0.500000   0.500000 )  
               a(3) = (  -0.500000   0.500000   0.000000 )  

     reciprocal axes: (cart. coord. in units 2 pi/alat)
               b(1) = ( -1.000000 -1.000000  1.000000 )  
               b(2) = (  1.000000  1.000000  1.000000 )  
               b(3) = ( -1.000000  1.000000 -1.000000 )  


     PseudoPot. # 1 for Si read from file:
     ./Si_LDA.UPF
     MD5 check sum: b5ade7b37ee992b02096e360e546dc2d
     Pseudo is Ultrasoft + core correction, Zval =  4.0
     Generated by new atomic code, or converted to UPF format
     Using radial grid of  899 points,  6 beta functions with: 
                l(1) =   0
                l(2) =   0
                l(3) =   1
                l(4) =   1
                l(5) =   2
                l(6) =   2
     Q(r) pseudized with  8 coefficients,  rinner =    0.900   0.900   0.900
                                                       0.900   0.900

     atomic species   valence    mass     pseudopotential
        Si             4.00    28.08550     Si( 1.00)

     48 Sym. Ops., with inversion, found



   Cartesian axes

     site n.     atom                  positions (alat units)
         1           Si  tau(   1) = (   0.0000000   0.0000000   0.0000000  )
         2           Si  tau(   2) = (  -0.2500000   0.2500000   0.2500000  )

     number of k points=   170

     Number of k-points >= 100: set verbosity='high' to print them.

     Dense  grid:    52345 G-vectors     FFT dimensions: (  60,  60,  60)

     Smooth grid:    13323 G-vectors     FFT dimensions: (  36,  36,  36)

     Estimated max dynamical RAM per process >     174.09 MB

     The potential is recalculated from file :
     ./_ph0/Si.save/charge-density

     Starting wfcs are    8 atomic wfcs

     Band Structure Calculation
     Davidson diagonalization with overlap

     ethr =  1.25E-10,  avg # of iterations = 13.1

     total cpu time spent up to now is       97.5 secs

     End of band structure calculation

     Number of k-points >= 100: set verbosity='high' to print the bands.

     highest occupied level (ev):     5.7131

     Writing config to output data dir ./_ph0/Si.save/

     Phonons of Si                                                              

     bravais-lattice index     =            2
     lattice parameter (alat)  =      10.3614  a.u.
     unit-cell volume          =     278.0964 (a.u.)^3
     number of atoms/cell      =            2
     number of atomic types    =            1
     kinetic-energy cut-off    =      50.0000  Ry
     charge density cut-off    =     500.0000  Ry
     convergence threshold     =      1.0E-16
     beta                      =       0.7000
     number of iterations used =            4
     Exchange-correlation= PZ
                           (   1   1   0   0   0   0   0)


     celldm(1)=   10.36140  celldm(2)=    0.00000  celldm(3)=    0.00000
     celldm(4)=    0.00000  celldm(5)=    0.00000  celldm(6)=    0.00000

     crystal axes: (cart. coord. in units of alat)
               a(1) = ( -0.5000  0.0000  0.5000 )  
               a(2) = (  0.0000  0.5000  0.5000 )  
               a(3) = ( -0.5000  0.5000  0.0000 )  

     reciprocal axes: (cart. coord. in units 2 pi/alat)
               b(1) = ( -1.0000 -1.0000  1.0000 )  
               b(2) = (  1.0000  1.0000  1.0000 )  
               b(3) = ( -1.0000  1.0000 -1.0000 )  


     Atoms inside the unit cell: 

     Cartesian axes

     site n.  atom      mass           positions (alat units)
        1     Si  28.0855   tau(    1) = (    0.00000    0.00000    0.00000  )
        2     Si  28.0855   tau(    2) = (   -0.25000    0.25000    0.25000  )

     Computing dynamical matrix for 
                    q = (   0.5000000  -0.5000000   0.5000000 )
 
     13 Sym.Ops. (with q -> -q+G )


     G cutoff = 1359.7127  (  52345 G-vectors)     FFT grid: ( 60, 60, 60)
     G cutoff =  543.8851  (  13323 G-vectors)  smooth grid: ( 36, 36, 36)
     number of k points=   170

     PseudoPot. # 1 for Si read from file:
     ./Si_LDA.UPF
     MD5 check sum: b5ade7b37ee992b02096e360e546dc2d
     Pseudo is Ultrasoft + core correction, Zval =  4.0
     Generated by new atomic code, or converted to UPF format
     Using radial grid of  899 points,  6 beta functions with: 
                l(1) =   0
                l(2) =   0
                l(3) =   1
                l(4) =   1
                l(5) =   2
                l(6) =   2
     Q(r) pseudized with  8 coefficients,  rinner =    0.900   0.900   0.900
                                                       0.900   0.900


     Atomic displacements:
     There are    4 irreducible representations

     Representation     1      1 modes -  To be done

     Representation     2      1 modes -  To be done

     Representation     3      2 modes -  To be done

     Representation     4      2 modes -  To be done



     Alpha used in Ewald sum =   2.8000
     PHONON       :  28m11.61s CPU  29m38.95s WALL



     Representation #   1 mode #   1

     Self-consistent Calculation

      iter #   1 total cpu time :  1789.6 secs   av.it.:   5.2
      thresh= 1.000E-02 alpha_mix =  0.700 |ddv_scf|^2 =  9.252E-07

      iter #   2 total cpu time :  1805.3 secs   av.it.:  11.0
      thresh= 9.619E-05 alpha_mix =  0.700 |ddv_scf|^2 =  9.361E-07

      iter #   3 total cpu time :  1820.3 secs   av.it.:  10.3
      thresh= 9.675E-05 alpha_mix =  0.700 |ddv_scf|^2 =  3.278E-10

      iter #   4 total cpu time :  1835.8 secs   av.it.:  10.7
      thresh= 1.810E-06 alpha_mix =  0.700 |ddv_scf|^2 =  4.506E-12

      iter #   5 total cpu time :  1850.9 secs   av.it.:  10.5
      thresh= 2.123E-07 alpha_mix =  0.700 |ddv_scf|^2 =  3.014E-14

      iter #   6 total cpu time :  1866.5 secs   av.it.:  10.9
      thresh= 1.736E-08 alpha_mix =  0.700 |ddv_scf|^2 =  5.801E-16

      iter #   7 total cpu time :  1881.6 secs   av.it.:  10.4
      thresh= 2.409E-09 alpha_mix =  0.700 |ddv_scf|^2 =  3.114E-18

     End of self-consistent calculation

     Convergence has been achieved 


     Representation #   2 mode #   2

     Self-consistent Calculation

      iter #   1 total cpu time :  1893.6 secs   av.it.:   6.1
      thresh= 1.000E-02 alpha_mix =  0.700 |ddv_scf|^2 =  1.320E-05

      iter #   2 total cpu time :  1909.3 secs   av.it.:  11.0
      thresh= 3.633E-04 alpha_mix =  0.700 |ddv_scf|^2 =  4.282E-05

      iter #   3 total cpu time :  1923.9 secs   av.it.:   9.8
      thresh= 6.544E-04 alpha_mix =  0.700 |ddv_scf|^2 =  3.991E-09

      iter #   4 total cpu time :  1939.5 secs   av.it.:  10.9
      thresh= 6.317E-06 alpha_mix =  0.700 |ddv_scf|^2 =  1.500E-10

      iter #   5 total cpu time :  1955.4 secs   av.it.:  11.1
      thresh= 1.225E-06 alpha_mix =  0.700 |ddv_scf|^2 =  2.797E-12

      iter #   6 total cpu time :  1971.1 secs   av.it.:  11.0
      thresh= 1.672E-07 alpha_mix =  0.700 |ddv_scf|^2 =  1.464E-13

      iter #   7 total cpu time :  1986.2 secs   av.it.:  10.5
      thresh= 3.826E-08 alpha_mix =  0.700 |ddv_scf|^2 =  2.036E-17

     End of self-consistent calculation

     Convergence has been achieved 


     Representation #   3 modes #   3   4

     Self-consistent Calculation

      iter #   1 total cpu time :  2006.6 secs   av.it.:   5.3
      thresh= 1.000E-02 alpha_mix =  0.700 |ddv_scf|^2 =  2.967E-08

      iter #   2 total cpu time :  2038.7 secs   av.it.:  12.2
      thresh= 1.723E-05 alpha_mix =  0.700 |ddv_scf|^2 =  2.397E-09

      iter #   3 total cpu time :  2070.3 secs   av.it.:  11.9
      thresh= 4.895E-06 alpha_mix =  0.700 |ddv_scf|^2 =  4.065E-11

      iter #   4 total cpu time :  2101.4 secs   av.it.:  11.7
      thresh= 6.376E-07 alpha_mix =  0.700 |ddv_scf|^2 =  3.441E-14

      iter #   5 total cpu time :  2133.5 secs   av.it.:  12.1
      thresh= 1.855E-08 alpha_mix =  0.700 |ddv_scf|^2 =  5.007E-16

      iter #   6 total cpu time :  2165.3 secs   av.it.:  12.1
      thresh= 2.238E-09 alpha_mix =  0.700 |ddv_scf|^2 =  6.222E-18

     End of self-consistent calculation

     Convergence has been achieved 


     Representation #   4 modes #   5   6

     Self-consistent Calculation

      iter #   1 total cpu time :  2185.6 secs   av.it.:   5.2
      thresh= 1.000E-02 alpha_mix =  0.700 |ddv_scf|^2 =  4.953E-09

      iter #   2 total cpu time :  2218.0 secs   av.it.:  12.4
      thresh= 7.038E-06 alpha_mix =  0.700 |ddv_scf|^2 =  2.123E-10

      iter #   3 total cpu time :  2250.3 secs   av.it.:  12.3
      thresh= 1.457E-06 alpha_mix =  0.700 |ddv_scf|^2 =  9.422E-12

      iter #   4 total cpu time :  2282.7 secs   av.it.:  12.3
      thresh= 3.069E-07 alpha_mix =  0.700 |ddv_scf|^2 =  4.450E-14

      iter #   5 total cpu time :  2315.3 secs   av.it.:  12.3
      thresh= 2.109E-08 alpha_mix =  0.700 |ddv_scf|^2 =  5.886E-16

      iter #   6 total cpu time :  2348.2 secs   av.it.:  12.5
      thresh= 2.426E-09 alpha_mix =  0.700 |ddv_scf|^2 =  2.286E-18

     End of self-consistent calculation

     Convergence has been achieved 
 
     Number of q in the star =    4
     List of q in the star:
          1   0.500000000  -0.500000000   0.500000000
          2   0.500000000   0.500000000   0.500000000
          3  -0.500000000   0.500000000   0.500000000
          4   0.500000000   0.500000000  -0.500000000

     Diagonalizing the dynamical matrix

     q = (    0.500000000  -0.500000000   0.500000000 ) 

 **************************************************************************
     freq (    1) =       3.375684 [THz] =     112.600702 [cm-1]
     freq (    2) =       3.375684 [THz] =     112.600702 [cm-1]
     freq (    3) =      10.967287 [THz] =     365.829313 [cm-1]
     freq (    4) =      11.474046 [THz] =     382.732976 [cm-1]
     freq (    5) =      13.880226 [THz] =     462.994487 [cm-1]
     freq (    6) =      13.880226 [THz] =     462.994487 [cm-1]
 **************************************************************************

     Calculation of q =    0.0000000   0.5000000   0.0000000
 
     G-vector sticks info
     --------------------
     sticks:   dense  smooth     PW     G-vecs:    dense   smooth      PW
     Sum        1843     745    241                52345    13323    2445
 
     Using Slab Decomposition
 

     Title: 
     Phonons of Si                                                              


     bravais-lattice index     =            2
     lattice parameter (alat)  =      10.3614  a.u.
     unit-cell volume          =     278.0964 (a.u.)^3
     number of atoms/cell      =            2
     number of atomic types    =            1
     number of electrons       =         8.00
     number of Kohn-Sham states=            4
     kinetic-energy cutoff     =      50.0000  Ry
     charge density cutoff     =     500.0000  Ry
     Exchange-correlation= PZ
                           (   1   1   0   0   0   0   0)

     celldm(1)=  10.361400  celldm(2)=   0.000000  celldm(3)=   0.000000
     celldm(4)=   0.000000  celldm(5)=   0.000000  celldm(6)=   0.000000

     crystal axes: (cart. coord. in units of alat)
               a(1) = (  -0.500000   0.000000   0.500000 )  
               a(2) = (   0.000000   0.500000   0.500000 )  
               a(3) = (  -0.500000   0.500000   0.000000 )  

     reciprocal axes: (cart. coord. in units 2 pi/alat)
               b(1) = ( -1.000000 -1.000000  1.000000 )  
               b(2) = (  1.000000  1.000000  1.000000 )  
               b(3) = ( -1.000000  1.000000 -1.000000 )  


     PseudoPot. # 1 for Si read from file:
     ./Si_LDA.UPF
     MD5 check sum: b5ade7b37ee992b02096e360e546dc2d
     Pseudo is Ultrasoft + core correction, Zval =  4.0
     Generated by new atomic code, or converted to UPF format
     Using radial grid of  899 points,  6 beta functions with: 
                l(1) =   0
                l(2) =   0
                l(3) =   1
                l(4) =   1
                l(5) =   2
                l(6) =   2
     Q(r) pseudized with  8 coefficients,  rinner =    0.900   0.900   0.900
                                                       0.900   0.900

     atomic species   valence    mass     pseudopotential
        Si             4.00    28.08550     Si( 1.00)

     48 Sym. Ops., with inversion, found



   Cartesian axes

     site n.     atom                  positions (alat units)
         1           Si  tau(   1) = (   0.0000000   0.0000000   0.0000000  )
         2           Si  tau(   2) = (  -0.2500000   0.2500000   0.2500000  )

     number of k points=   270

     Number of k-points >= 100: set verbosity='high' to print them.

     Dense  grid:    52345 G-vectors     FFT dimensions: (  60,  60,  60)

     Smooth grid:    13323 G-vectors     FFT dimensions: (  36,  36,  36)

     Estimated max dynamical RAM per process >     174.07 MB

     The potential is recalculated from file :
     ./_ph0/Si.save/charge-density

     Starting wfcs are    8 atomic wfcs

     Band Structure Calculation
     Davidson diagonalization with overlap

     ethr =  1.25E-10,  avg # of iterations = 13.1

     total cpu time spent up to now is      148.5 secs

     End of band structure calculation

     Number of k-points >= 100: set verbosity='high' to print the bands.

     highest occupied level (ev):     5.7131

     Writing config to output data dir ./_ph0/Si.save/

     Phonons of Si                                                              

     bravais-lattice index     =            2
     lattice parameter (alat)  =      10.3614  a.u.
     unit-cell volume          =     278.0964 (a.u.)^3
     number of atoms/cell      =            2
     number of atomic types    =            1
     kinetic-energy cut-off    =      50.0000  Ry
     charge density cut-off    =     500.0000  Ry
     convergence threshold     =      1.0E-16
     beta                      =       0.7000
     number of iterations used =            4
     Exchange-correlation= PZ
                           (   1   1   0   0   0   0   0)


     celldm(1)=   10.36140  celldm(2)=    0.00000  celldm(3)=    0.00000
     celldm(4)=    0.00000  celldm(5)=    0.00000  celldm(6)=    0.00000

     crystal axes: (cart. coord. in units of alat)
               a(1) = ( -0.5000  0.0000  0.5000 )  
               a(2) = (  0.0000  0.5000  0.5000 )  
               a(3) = ( -0.5000  0.5000  0.0000 )  

     reciprocal axes: (cart. coord. in units 2 pi/alat)
               b(1) = ( -1.0000 -1.0000  1.0000 )  
               b(2) = (  1.0000  1.0000  1.0000 )  
               b(3) = ( -1.0000  1.0000 -1.0000 )  


     Atoms inside the unit cell: 

     Cartesian axes

     site n.  atom      mass           positions (alat units)
        1     Si  28.0855   tau(    1) = (    0.00000    0.00000    0.00000  )
        2     Si  28.0855   tau(    2) = (   -0.25000    0.25000    0.25000  )

     Computing dynamical matrix for 
                    q = (   0.0000000   0.5000000   0.0000000 )
 
      8 Sym.Ops. (no q -> -q+G )


     G cutoff = 1359.7127  (  52345 G-vectors)     FFT grid: ( 60, 60, 60)
     G cutoff =  543.8851  (  13323 G-vectors)  smooth grid: ( 36, 36, 36)
     number of k points=   270

     PseudoPot. # 1 for Si read from file:
     ./Si_LDA.UPF
     MD5 check sum: b5ade7b37ee992b02096e360e546dc2d
     Pseudo is Ultrasoft + core correction, Zval =  4.0
     Generated by new atomic code, or converted to UPF format
     Using radial grid of  899 points,  6 beta functions with: 
                l(1) =   0
                l(2) =   0
                l(3) =   1
                l(4) =   1
                l(5) =   2
                l(6) =   2
     Q(r) pseudized with  8 coefficients,  rinner =    0.900   0.900   0.900
                                                       0.900   0.900

     Mode symmetry, C_4v (4mm)  point group:


     Atomic displacements:
     There are    4 irreducible representations

     Representation     1      1 modes -  To be done

     Representation     2      1 modes -  To be done

     Representation     3      2 modes -  To be done

     Representation     4      2 modes -  To be done



     Alpha used in Ewald sum =   2.8000
     PHONON       :  38m26.29s CPU  40m22.49s WALL



     Representation #   1 mode #   1

     Self-consistent Calculation

      iter #   1 total cpu time :  2439.2 secs   av.it.:   6.2
      thresh= 1.000E-02 alpha_mix =  0.700 |ddv_scf|^2 =  1.163E-04

      iter #   2 total cpu time :  2461.4 secs   av.it.:  10.2
      thresh= 1.079E-03 alpha_mix =  0.700 |ddv_scf|^2 =  1.660E-03

      iter #   3 total cpu time :  2480.6 secs   av.it.:   8.3
      thresh= 4.074E-03 alpha_mix =  0.700 |ddv_scf|^2 =  1.171E-09

      iter #   4 total cpu time :  2504.2 secs   av.it.:  11.1
      thresh= 3.421E-06 alpha_mix =  0.700 |ddv_scf|^2 =  4.952E-10

      iter #   5 total cpu time :  2526.3 secs   av.it.:  10.2
      thresh= 2.225E-06 alpha_mix =  0.700 |ddv_scf|^2 =  4.075E-11

      iter #   6 total cpu time :  2548.0 secs   av.it.:  10.0
      thresh= 6.384E-07 alpha_mix =  0.700 |ddv_scf|^2 =  4.671E-14

      iter #   7 total cpu time :  2570.3 secs   av.it.:  10.3
      thresh= 2.161E-08 alpha_mix =  0.700 |ddv_scf|^2 =  4.976E-15

      iter #   8 total cpu time :  2590.5 secs   av.it.:   9.0
      thresh= 7.054E-09 alpha_mix =  0.700 |ddv_scf|^2 =  1.313E-18

     End of self-consistent calculation

     Convergence has been achieved 


     Representation #   2 mode #   2

     Self-consistent Calculation

      iter #   1 total cpu time :  2606.5 secs   av.it.:   5.2
      thresh= 1.000E-02 alpha_mix =  0.700 |ddv_scf|^2 =  1.766E-07

      iter #   2 total cpu time :  2630.2 secs   av.it.:  11.2
      thresh= 4.202E-05 alpha_mix =  0.700 |ddv_scf|^2 =  5.524E-08

      iter #   3 total cpu time :  2653.2 secs   av.it.:  10.8
      thresh= 2.350E-05 alpha_mix =  0.700 |ddv_scf|^2 =  4.275E-10

      iter #   4 total cpu time :  2676.6 secs   av.it.:  11.1
      thresh= 2.068E-06 alpha_mix =  0.700 |ddv_scf|^2 =  2.054E-11

      iter #   5 total cpu time :  2700.0 secs   av.it.:  11.0
      thresh= 4.532E-07 alpha_mix =  0.700 |ddv_scf|^2 =  3.471E-14

      iter #   6 total cpu time :  2723.5 secs   av.it.:  11.2
      thresh= 1.863E-08 alpha_mix =  0.700 |ddv_scf|^2 =  1.064E-15

      iter #   7 total cpu time :  2746.4 secs   av.it.:  10.7
      thresh= 3.262E-09 alpha_mix =  0.700 |ddv_scf|^2 =  1.571E-17

     End of self-consistent calculation

     Convergence has been achieved 


     Representation #   3 modes #   3   4

     Self-consistent Calculation

      iter #   1 total cpu time :  2776.4 secs   av.it.:   5.4
      thresh= 1.000E-02 alpha_mix =  0.700 |ddv_scf|^2 =  2.417E-08

      iter #   2 total cpu time :  2825.9 secs   av.it.:  12.5
      thresh= 1.555E-05 alpha_mix =  0.700 |ddv_scf|^2 =  3.398E-09

      iter #   3 total cpu time :  2874.5 secs   av.it.:  12.1
      thresh= 5.829E-06 alpha_mix =  0.700 |ddv_scf|^2 =  4.543E-11

      iter #   4 total cpu time :  2923.4 secs   av.it.:  12.1
      thresh= 6.740E-07 alpha_mix =  0.700 |ddv_scf|^2 =  1.116E-13

      iter #   5 total cpu time :  2972.7 secs   av.it.:  12.3
      thresh= 3.341E-08 alpha_mix =  0.700 |ddv_scf|^2 =  2.436E-15

      iter #   6 total cpu time :  3022.3 secs   av.it.:  12.6
      thresh= 4.936E-09 alpha_mix =  0.700 |ddv_scf|^2 =  2.385E-17

     End of self-consistent calculation

     Convergence has been achieved 


     Representation #   4 modes #   5   6

     Self-consistent Calculation

      iter #   1 total cpu time :  3052.7 secs   av.it.:   5.5
      thresh= 1.000E-02 alpha_mix =  0.700 |ddv_scf|^2 =  3.526E-08

      iter #   2 total cpu time :  3102.0 secs   av.it.:  12.4
      thresh= 1.878E-05 alpha_mix =  0.700 |ddv_scf|^2 =  5.045E-09

      iter #   3 total cpu time :  3150.5 secs   av.it.:  12.1
      thresh= 7.103E-06 alpha_mix =  0.700 |ddv_scf|^2 =  4.794E-11

      iter #   4 total cpu time :  3199.1 secs   av.it.:  12.1
      thresh= 6.924E-07 alpha_mix =  0.700 |ddv_scf|^2 =  1.011E-13

      iter #   5 total cpu time :  3248.7 secs   av.it.:  12.4
      thresh= 3.180E-08 alpha_mix =  0.700 |ddv_scf|^2 =  2.456E-15

      iter #   6 total cpu time :  3298.3 secs   av.it.:  12.6
      thresh= 4.956E-09 alpha_mix =  0.700 |ddv_scf|^2 =  2.170E-17

     End of self-consistent calculation

     Convergence has been achieved 
 
     Number of q in the star =    6
     List of q in the star:
          1   0.000000000   0.500000000   0.000000000
          2   0.000000000  -0.500000000   0.000000000
          3   0.500000000   0.000000000   0.000000000
          4   0.000000000   0.000000000   0.500000000
          5   0.000000000   0.000000000  -0.500000000
          6  -0.500000000   0.000000000   0.000000000

     Diagonalizing the dynamical matrix

     q = (    0.000000000   0.500000000   0.000000000 ) 

 **************************************************************************
     freq (    1) =       3.796194 [THz] =     126.627398 [cm-1]
     freq (    2) =       3.796194 [THz] =     126.627398 [cm-1]
     freq (    3) =       6.847934 [THz] =     228.422500 [cm-1]
     freq (    4) =      13.407596 [THz] =     447.229251 [cm-1]
     freq (    5) =      13.407596 [THz] =     447.229251 [cm-1]
     freq (    6) =      14.109362 [THz] =     470.637669 [cm-1]
 **************************************************************************

     Mode symmetry, C_4v (4mm)  point group:

     freq (   1-   2) =        126.6  [cm-1]   --> E    G_5 D_5       
     freq (   3-   3) =        228.4  [cm-1]   --> A_1  G_1 D_1       
     freq (   4-   5) =        447.2  [cm-1]   --> E    G_5 D_5       
     freq (   6-   6) =        470.6  [cm-1]   --> B_2  G_4 D_2'      

     Calculation of q =    0.7500000  -0.2500000   0.7500000
 
     G-vector sticks info
     --------------------
     sticks:   dense  smooth     PW     G-vecs:    dense   smooth      PW
     Sum        1843     745    265                52345    13323    2891
 
     Using Slab Decomposition
 

     Title: 
     Phonons of Si                                                              


     bravais-lattice index     =            2
     lattice parameter (alat)  =      10.3614  a.u.
     unit-cell volume          =     278.0964 (a.u.)^3
     number of atoms/cell      =            2
     number of atomic types    =            1
     number of electrons       =         8.00
     number of Kohn-Sham states=            4
     kinetic-energy cutoff     =      50.0000  Ry
     charge density cutoff     =     500.0000  Ry
     Exchange-correlation= PZ
                           (   1   1   0   0   0   0   0)

     celldm(1)=  10.361400  celldm(2)=   0.000000  celldm(3)=   0.000000
     celldm(4)=   0.000000  celldm(5)=   0.000000  celldm(6)=   0.000000

     crystal axes: (cart. coord. in units of alat)
               a(1) = (  -0.500000   0.000000   0.500000 )  
               a(2) = (   0.000000   0.500000   0.500000 )  
               a(3) = (  -0.500000   0.500000   0.000000 )  

     reciprocal axes: (cart. coord. in units 2 pi/alat)
               b(1) = ( -1.000000 -1.000000  1.000000 )  
               b(2) = (  1.000000  1.000000  1.000000 )  
               b(3) = ( -1.000000  1.000000 -1.000000 )  


     PseudoPot. # 1 for Si read from file:
     ./Si_LDA.UPF
     MD5 check sum: b5ade7b37ee992b02096e360e546dc2d
     Pseudo is Ultrasoft + core correction, Zval =  4.0
     Generated by new atomic code, or converted to UPF format
     Using radial grid of  899 points,  6 beta functions with: 
                l(1) =   0
                l(2) =   0
                l(3) =   1
                l(4) =   1
                l(5) =   2
                l(6) =   2
     Q(r) pseudized with  8 coefficients,  rinner =    0.900   0.900   0.900
                                                       0.900   0.900

     atomic species   valence    mass     pseudopotential
        Si             4.00    28.08550     Si( 1.00)

     48 Sym. Ops., with inversion, found



   Cartesian axes

     site n.     atom                  positions (alat units)
         1           Si  tau(   1) = (   0.0000000   0.0000000   0.0000000  )
         2           Si  tau(   2) = (  -0.2500000   0.2500000   0.2500000  )

     number of k points=   810

     Number of k-points >= 100: set verbosity='high' to print them.

     Dense  grid:    52345 G-vectors     FFT dimensions: (  60,  60,  60)

     Smooth grid:    13323 G-vectors     FFT dimensions: (  36,  36,  36)

     Estimated max dynamical RAM per process >     174.10 MB

     The potential is recalculated from file :
     ./_ph0/Si.save/charge-density

     Starting wfcs are    8 atomic wfcs

     Band Structure Calculation
     Davidson diagonalization with overlap

     ethr =  1.25E-10,  avg # of iterations = 13.1

     total cpu time spent up to now is      301.2 secs

     End of band structure calculation

     Number of k-points >= 100: set verbosity='high' to print the bands.

     highest occupied level (ev):     5.7131

     Writing config to output data dir ./_ph0/Si.save/

     Phonons of Si                                                              

     bravais-lattice index     =            2
     lattice parameter (alat)  =      10.3614  a.u.
     unit-cell volume          =     278.0964 (a.u.)^3
     number of atoms/cell      =            2
     number of atomic types    =            1
     kinetic-energy cut-off    =      50.0000  Ry
     charge density cut-off    =     500.0000  Ry
     convergence threshold     =      1.0E-16
     beta                      =       0.7000
     number of iterations used =            4
     Exchange-correlation= PZ
                           (   1   1   0   0   0   0   0)


     celldm(1)=   10.36140  celldm(2)=    0.00000  celldm(3)=    0.00000
     celldm(4)=    0.00000  celldm(5)=    0.00000  celldm(6)=    0.00000

     crystal axes: (cart. coord. in units of alat)
               a(1) = ( -0.5000  0.0000  0.5000 )  
               a(2) = (  0.0000  0.5000  0.5000 )  
               a(3) = ( -0.5000  0.5000  0.0000 )  

     reciprocal axes: (cart. coord. in units 2 pi/alat)
               b(1) = ( -1.0000 -1.0000  1.0000 )  
               b(2) = (  1.0000  1.0000  1.0000 )  
               b(3) = ( -1.0000  1.0000 -1.0000 )  


     Atoms inside the unit cell: 

     Cartesian axes

     site n.  atom      mass           positions (alat units)
        1     Si  28.0855   tau(    1) = (    0.00000    0.00000    0.00000  )
        2     Si  28.0855   tau(    2) = (   -0.25000    0.25000    0.25000  )

     Computing dynamical matrix for 
                    q = (   0.7500000  -0.2500000   0.7500000 )
 
      2 Sym.Ops. (no q -> -q+G )


     G cutoff = 1359.7127  (  52345 G-vectors)     FFT grid: ( 60, 60, 60)
     G cutoff =  543.8851  (  13323 G-vectors)  smooth grid: ( 36, 36, 36)
     number of k points=   810

     PseudoPot. # 1 for Si read from file:
     ./Si_LDA.UPF
     MD5 check sum: b5ade7b37ee992b02096e360e546dc2d
     Pseudo is Ultrasoft + core correction, Zval =  4.0
     Generated by new atomic code, or converted to UPF format
     Using radial grid of  899 points,  6 beta functions with: 
                l(1) =   0
                l(2) =   0
                l(3) =   1
                l(4) =   1
                l(5) =   2
                l(6) =   2
     Q(r) pseudized with  8 coefficients,  rinner =    0.900   0.900   0.900
                                                       0.900   0.900

     Mode symmetry, C_s (m)     point group:


     Atomic displacements:
     There are    6 irreducible representations

     Representation     1      1 modes -  To be done

     Representation     2      1 modes -  To be done

     Representation     3      1 modes -  To be done

     Representation     4      1 modes -  To be done

     Representation     5      1 modes -  To be done

     Representation     6      1 modes -  To be done



     Alpha used in Ewald sum =   2.8000
     PHONON       :  55m24.12s CPU  58m11.84s WALL



     Representation #   1 mode #   1

     Self-consistent Calculation

      iter #   1 total cpu time :  3535.3 secs   av.it.:   6.0
      thresh= 1.000E-02 alpha_mix =  0.700 |ddv_scf|^2 =  4.719E-06

      iter #   2 total cpu time :  3603.2 secs   av.it.:  11.7
      thresh= 2.172E-04 alpha_mix =  0.700 |ddv_scf|^2 =  1.433E-05

      iter #   3 total cpu time :  3665.5 secs   av.it.:  10.5
      thresh= 3.785E-04 alpha_mix =  0.700 |ddv_scf|^2 =  5.805E-08

      iter #   4 total cpu time :  3731.0 secs   av.it.:  11.1
      thresh= 2.409E-05 alpha_mix =  0.700 |ddv_scf|^2 =  5.675E-10

      iter #   5 total cpu time :  3798.6 secs   av.it.:  11.6
      thresh= 2.382E-06 alpha_mix =  0.700 |ddv_scf|^2 =  8.169E-11

      iter #   6 total cpu time :  3865.9 secs   av.it.:  11.6
      thresh= 9.038E-07 alpha_mix =  0.700 |ddv_scf|^2 =  1.485E-12

      iter #   7 total cpu time :  3934.5 secs   av.it.:  11.7
      thresh= 1.219E-07 alpha_mix =  0.700 |ddv_scf|^2 =  4.175E-14

      iter #   8 total cpu time :  4007.1 secs   av.it.:  11.9
      thresh= 2.043E-08 alpha_mix =  0.700 |ddv_scf|^2 =  2.306E-14

      iter #   9 total cpu time :  4073.0 secs   av.it.:  11.2
      thresh= 1.519E-08 alpha_mix =  0.700 |ddv_scf|^2 =  1.028E-14

      iter #  10 total cpu time :  4137.2 secs   av.it.:  10.9
      thresh= 1.014E-08 alpha_mix =  0.700 |ddv_scf|^2 =  4.252E-16

      iter #  11 total cpu time :  4203.2 secs   av.it.:  11.2
      thresh= 2.062E-09 alpha_mix =  0.700 |ddv_scf|^2 =  4.671E-17

     End of self-consistent calculation

     Convergence has been achieved 


     Representation #   2 mode #   2

     Self-consistent Calculation

      iter #   1 total cpu time :  4248.2 secs   av.it.:   6.0
      thresh= 1.000E-02 alpha_mix =  0.700 |ddv_scf|^2 =  3.204E-06

      iter #   2 total cpu time :  4316.1 secs   av.it.:  11.7
      thresh= 1.790E-04 alpha_mix =  0.700 |ddv_scf|^2 =  9.776E-06

      iter #   3 total cpu time :  4378.4 secs   av.it.:  10.5
      thresh= 3.127E-04 alpha_mix =  0.700 |ddv_scf|^2 =  3.474E-08

      iter #   4 total cpu time :  4444.6 secs   av.it.:  11.2
      thresh= 1.864E-05 alpha_mix =  0.700 |ddv_scf|^2 =  8.110E-10

      iter #   5 total cpu time :  4511.7 secs   av.it.:  11.6
      thresh= 2.848E-06 alpha_mix =  0.700 |ddv_scf|^2 =  1.083E-10

      iter #   6 total cpu time :  4578.7 secs   av.it.:  11.4
      thresh= 1.041E-06 alpha_mix =  0.700 |ddv_scf|^2 =  3.224E-12

      iter #   7 total cpu time :  4646.7 secs   av.it.:  11.7
      thresh= 1.796E-07 alpha_mix =  0.700 |ddv_scf|^2 =  1.161E-13

      iter #   8 total cpu time :  4715.0 secs   av.it.:  11.8
      thresh= 3.408E-08 alpha_mix =  0.700 |ddv_scf|^2 =  1.748E-14

      iter #   9 total cpu time :  4781.5 secs   av.it.:  11.3
      thresh= 1.322E-08 alpha_mix =  0.700 |ddv_scf|^2 =  1.047E-14

      iter #  10 total cpu time :  4847.1 secs   av.it.:  11.1
      thresh= 1.023E-08 alpha_mix =  0.700 |ddv_scf|^2 =  8.409E-16

      iter #  11 total cpu time :  4913.0 secs   av.it.:  11.2
      thresh= 2.900E-09 alpha_mix =  0.700 |ddv_scf|^2 =  5.521E-17

     End of self-consistent calculation

     Convergence has been achieved 


     Representation #   3 mode #   3

     Self-consistent Calculation

      iter #   1 total cpu time :  4957.5 secs   av.it.:   5.9
      thresh= 1.000E-02 alpha_mix =  0.700 |ddv_scf|^2 =  2.416E-06

      iter #   2 total cpu time :  5025.2 secs   av.it.:  11.7
      thresh= 1.554E-04 alpha_mix =  0.700 |ddv_scf|^2 =  6.407E-06

      iter #   3 total cpu time :  5087.4 secs   av.it.:  10.5
      thresh= 2.531E-04 alpha_mix =  0.700 |ddv_scf|^2 =  6.852E-08

      iter #   4 total cpu time :  5152.8 secs   av.it.:  11.0
      thresh= 2.618E-05 alpha_mix =  0.700 |ddv_scf|^2 =  8.814E-10

      iter #   5 total cpu time :  5220.1 secs   av.it.:  11.5
      thresh= 2.969E-06 alpha_mix =  0.700 |ddv_scf|^2 =  1.447E-10

      iter #   6 total cpu time :  5286.8 secs   av.it.:  11.4
      thresh= 1.203E-06 alpha_mix =  0.700 |ddv_scf|^2 =  9.688E-13

      iter #   7 total cpu time :  5355.0 secs   av.it.:  11.8
      thresh= 9.843E-08 alpha_mix =  0.700 |ddv_scf|^2 =  6.171E-14

      iter #   8 total cpu time :  5422.9 secs   av.it.:  11.6
      thresh= 2.484E-08 alpha_mix =  0.700 |ddv_scf|^2 =  1.296E-14

      iter #   9 total cpu time :  5488.8 secs   av.it.:  11.2
      thresh= 1.139E-08 alpha_mix =  0.700 |ddv_scf|^2 =  4.455E-15

      iter #  10 total cpu time :  5552.7 secs   av.it.:  10.8
      thresh= 6.675E-09 alpha_mix =  0.700 |ddv_scf|^2 =  2.401E-16

      iter #  11 total cpu time :  5618.8 secs   av.it.:  11.2
      thresh= 1.549E-09 alpha_mix =  0.700 |ddv_scf|^2 =  4.884E-17

     End of self-consistent calculation

     Convergence has been achieved 


     Representation #   4 mode #   4

     Self-consistent Calculation

      iter #   1 total cpu time :  5663.2 secs   av.it.:   5.7
      thresh= 1.000E-02 alpha_mix =  0.700 |ddv_scf|^2 =  8.981E-07

      iter #   2 total cpu time :  5731.5 secs   av.it.:  11.8
      thresh= 9.477E-05 alpha_mix =  0.700 |ddv_scf|^2 =  1.833E-06

      iter #   3 total cpu time :  5795.0 secs   av.it.:  10.7
      thresh= 1.354E-04 alpha_mix =  0.700 |ddv_scf|^2 =  5.077E-08

      iter #   4 total cpu time :  5860.8 secs   av.it.:  11.1
      thresh= 2.253E-05 alpha_mix =  0.700 |ddv_scf|^2 =  7.982E-10

      iter #   5 total cpu time :  5928.2 secs   av.it.:  11.6
      thresh= 2.825E-06 alpha_mix =  0.700 |ddv_scf|^2 =  1.756E-10

      iter #   6 total cpu time :  5994.9 secs   av.it.:  11.4
      thresh= 1.325E-06 alpha_mix =  0.700 |ddv_scf|^2 =  2.896E-12

      iter #   7 total cpu time :  6062.8 secs   av.it.:  11.7
      thresh= 1.702E-07 alpha_mix =  0.700 |ddv_scf|^2 =  1.138E-13

      iter #   8 total cpu time :  6131.1 secs   av.it.:  11.8
      thresh= 3.374E-08 alpha_mix =  0.700 |ddv_scf|^2 =  1.073E-14

      iter #   9 total cpu time :  6197.9 secs   av.it.:  11.4
      thresh= 1.036E-08 alpha_mix =  0.700 |ddv_scf|^2 =  4.890E-15

      iter #  10 total cpu time :  6263.5 secs   av.it.:  11.1
      thresh= 6.993E-09 alpha_mix =  0.700 |ddv_scf|^2 =  4.098E-16

      iter #  11 total cpu time :  6331.3 secs   av.it.:  11.3
      thresh= 2.024E-09 alpha_mix =  0.700 |ddv_scf|^2 =  1.606E-17

     End of self-consistent calculation

     Convergence has been achieved 


     Representation #   5 mode #   5

     Self-consistent Calculation

      iter #   1 total cpu time :  6374.5 secs   av.it.:   5.4
      thresh= 1.000E-02 alpha_mix =  0.700 |ddv_scf|^2 =  1.436E-07

      iter #   2 total cpu time :  6441.8 secs   av.it.:  11.5
      thresh= 3.790E-05 alpha_mix =  0.700 |ddv_scf|^2 =  2.454E-08

      iter #   3 total cpu time :  6507.7 secs   av.it.:  11.1
      thresh= 1.567E-05 alpha_mix =  0.700 |ddv_scf|^2 =  1.991E-10

      iter #   4 total cpu time :  6573.6 secs   av.it.:  11.2
      thresh= 1.411E-06 alpha_mix =  0.700 |ddv_scf|^2 =  3.624E-13

      iter #   5 total cpu time :  6641.3 secs   av.it.:  11.5
      thresh= 6.020E-08 alpha_mix =  0.700 |ddv_scf|^2 =  7.402E-15

      iter #   6 total cpu time :  6709.3 secs   av.it.:  11.6
      thresh= 8.603E-09 alpha_mix =  0.700 |ddv_scf|^2 =  9.607E-17

     End of self-consistent calculation

     Convergence has been achieved 


     Representation #   6 mode #   6

     Self-consistent Calculation

      iter #   1 total cpu time :  6752.1 secs   av.it.:   5.5
      thresh= 1.000E-02 alpha_mix =  0.700 |ddv_scf|^2 =  1.436E-07

      iter #   2 total cpu time :  6819.4 secs   av.it.:  11.5
      thresh= 3.790E-05 alpha_mix =  0.700 |ddv_scf|^2 =  2.454E-08

      iter #   3 total cpu time :  6885.1 secs   av.it.:  11.1
      thresh= 1.567E-05 alpha_mix =  0.700 |ddv_scf|^2 =  1.991E-10

      iter #   4 total cpu time :  6951.0 secs   av.it.:  11.2
      thresh= 1.411E-06 alpha_mix =  0.700 |ddv_scf|^2 =  3.624E-13

      iter #   5 total cpu time :  7018.7 secs   av.it.:  11.5
      thresh= 6.020E-08 alpha_mix =  0.700 |ddv_scf|^2 =  7.401E-15

      iter #   6 total cpu time :  7086.7 secs   av.it.:  11.6
      thresh= 8.603E-09 alpha_mix =  0.700 |ddv_scf|^2 =  9.608E-17

     End of self-consistent calculation

     Convergence has been achieved 
 
     Number of q in the star =   24
     List of q in the star:
          1   0.750000000  -0.250000000   0.750000000
          2   0.750000000  -0.250000000  -0.750000000
          3  -0.750000000  -0.250000000  -0.750000000
          4  -0.750000000  -0.250000000   0.750000000
          5  -0.750000000   0.250000000  -0.750000000
          6  -0.250000000   0.750000000  -0.750000000
          7  -0.750000000   0.750000000  -0.250000000
          8   0.750000000   0.250000000   0.750000000
          9  -0.750000000   0.250000000   0.750000000
         10   0.750000000   0.250000000  -0.750000000
         11  -0.750000000   0.750000000   0.250000000
         12  -0.250000000   0.750000000   0.750000000
         13   0.250000000   0.750000000  -0.750000000
         14  -0.250000000  -0.750000000  -0.750000000
         15   0.750000000   0.750000000  -0.250000000
         16   0.750000000  -0.750000000   0.250000000
         17  -0.750000000  -0.750000000  -0.250000000
         18   0.250000000  -0.750000000   0.750000000
         19  -0.750000000  -0.750000000   0.250000000
         20   0.250000000   0.750000000   0.750000000
         21  -0.250000000  -0.750000000   0.750000000
         22   0.750000000   0.750000000   0.250000000
         23   0.250000000  -0.750000000  -0.750000000
         24   0.750000000  -0.750000000  -0.250000000

     Diagonalizing the dynamical matrix

     q = (    0.750000000  -0.250000000   0.750000000 ) 

 **************************************************************************
     freq (    1) =       4.280382 [THz] =     142.778165 [cm-1]
     freq (    2) =       5.863818 [THz] =     195.595930 [cm-1]
     freq (    3) =       9.095852 [THz] =     303.404978 [cm-1]
     freq (    4) =      11.681776 [THz] =     389.662095 [cm-1]
     freq (    5) =      13.139853 [THz] =     438.298305 [cm-1]
     freq (    6) =      13.555780 [THz] =     452.172160 [cm-1]
 **************************************************************************

     Mode symmetry, C_s (m)     point group:

     freq (   1-   1) =        142.8  [cm-1]   --> A''                
     freq (   2-   2) =        195.6  [cm-1]   --> A'                 
     freq (   3-   3) =        303.4  [cm-1]   --> A'                 
     freq (   4-   4) =        389.7  [cm-1]   --> A'                 
     freq (   5-   5) =        438.3  [cm-1]   --> A''                
     freq (   6-   6) =        452.2  [cm-1]   --> A'                 

     Calculation of q =    0.5000000   0.0000000   0.5000000
 
     G-vector sticks info
     --------------------
     sticks:   dense  smooth     PW     G-vecs:    dense   smooth      PW
     Sum        1843     745    253                52345    13323    2685
 
     Using Slab Decomposition
 

     Title: 
     Phonons of Si                                                              


     bravais-lattice index     =            2
     lattice parameter (alat)  =      10.3614  a.u.
     unit-cell volume          =     278.0964 (a.u.)^3
     number of atoms/cell      =            2
     number of atomic types    =            1
     number of electrons       =         8.00
     number of Kohn-Sham states=            4
     kinetic-energy cutoff     =      50.0000  Ry
     charge density cutoff     =     500.0000  Ry
     Exchange-correlation= PZ
                           (   1   1   0   0   0   0   0)

     celldm(1)=  10.361400  celldm(2)=   0.000000  celldm(3)=   0.000000
     celldm(4)=   0.000000  celldm(5)=   0.000000  celldm(6)=   0.000000

     crystal axes: (cart. coord. in units of alat)
               a(1) = (  -0.500000   0.000000   0.500000 )  
               a(2) = (   0.000000   0.500000   0.500000 )  
               a(3) = (  -0.500000   0.500000   0.000000 )  

     reciprocal axes: (cart. coord. in units 2 pi/alat)
               b(1) = ( -1.000000 -1.000000  1.000000 )  
               b(2) = (  1.000000  1.000000  1.000000 )  
               b(3) = ( -1.000000  1.000000 -1.000000 )  


     PseudoPot. # 1 for Si read from file:
     ./Si_LDA.UPF
     MD5 check sum: b5ade7b37ee992b02096e360e546dc2d
     Pseudo is Ultrasoft + core correction, Zval =  4.0
     Generated by new atomic code, or converted to UPF format
     Using radial grid of  899 points,  6 beta functions with: 
                l(1) =   0
                l(2) =   0
                l(3) =   1
                l(4) =   1
                l(5) =   2
                l(6) =   2
     Q(r) pseudized with  8 coefficients,  rinner =    0.900   0.900   0.900
                                                       0.900   0.900

     atomic species   valence    mass     pseudopotential
        Si             4.00    28.08550     Si( 1.00)

     48 Sym. Ops., with inversion, found



   Cartesian axes

     site n.     atom                  positions (alat units)
         1           Si  tau(   1) = (   0.0000000   0.0000000   0.0000000  )
         2           Si  tau(   2) = (  -0.2500000   0.2500000   0.2500000  )

     number of k points=   450

     Number of k-points >= 100: set verbosity='high' to print them.

     Dense  grid:    52345 G-vectors     FFT dimensions: (  60,  60,  60)

     Smooth grid:    13323 G-vectors     FFT dimensions: (  36,  36,  36)

     Estimated max dynamical RAM per process >     174.08 MB

     The potential is recalculated from file :
     ./_ph0/Si.save/charge-density

     Starting wfcs are    8 atomic wfcs

     Band Structure Calculation
     Davidson diagonalization with overlap

     ethr =  1.25E-10,  avg # of iterations = 13.1

     total cpu time spent up to now is      386.2 secs

     End of band structure calculation

     Number of k-points >= 100: set verbosity='high' to print the bands.

     highest occupied level (ev):     5.7131

     Writing config to output data dir ./_ph0/Si.save/

     Phonons of Si                                                              

     bravais-lattice index     =            2
     lattice parameter (alat)  =      10.3614  a.u.
     unit-cell volume          =     278.0964 (a.u.)^3
     number of atoms/cell      =            2
     number of atomic types    =            1
     kinetic-energy cut-off    =      50.0000  Ry
     charge density cut-off    =     500.0000  Ry
     convergence threshold     =      1.0E-16
     beta                      =       0.7000
     number of iterations used =            4
     Exchange-correlation= PZ
                           (   1   1   0   0   0   0   0)


     celldm(1)=   10.36140  celldm(2)=    0.00000  celldm(3)=    0.00000
     celldm(4)=    0.00000  celldm(5)=    0.00000  celldm(6)=    0.00000

     crystal axes: (cart. coord. in units of alat)
               a(1) = ( -0.5000  0.0000  0.5000 )  
               a(2) = (  0.0000  0.5000  0.5000 )  
               a(3) = ( -0.5000  0.5000  0.0000 )  

     reciprocal axes: (cart. coord. in units 2 pi/alat)
               b(1) = ( -1.0000 -1.0000  1.0000 )  
               b(2) = (  1.0000  1.0000  1.0000 )  
               b(3) = ( -1.0000  1.0000 -1.0000 )  


     Atoms inside the unit cell: 

     Cartesian axes

     site n.  atom      mass           positions (alat units)
        1     Si  28.0855   tau(    1) = (    0.00000    0.00000    0.00000  )
        2     Si  28.0855   tau(    2) = (   -0.25000    0.25000    0.25000  )

     Computing dynamical matrix for 
                    q = (   0.5000000   0.0000000   0.5000000 )
 
      4 Sym.Ops. (no q -> -q+G )


     G cutoff = 1359.7127  (  52345 G-vectors)     FFT grid: ( 60, 60, 60)
     G cutoff =  543.8851  (  13323 G-vectors)  smooth grid: ( 36, 36, 36)
     number of k points=   450

     PseudoPot. # 1 for Si read from file:
     ./Si_LDA.UPF
     MD5 check sum: b5ade7b37ee992b02096e360e546dc2d
     Pseudo is Ultrasoft + core correction, Zval =  4.0
     Generated by new atomic code, or converted to UPF format
     Using radial grid of  899 points,  6 beta functions with: 
                l(1) =   0
                l(2) =   0
                l(3) =   1
                l(4) =   1
                l(5) =   2
                l(6) =   2
     Q(r) pseudized with  8 coefficients,  rinner =    0.900   0.900   0.900
                                                       0.900   0.900

     Mode symmetry, C_2v (mm2)  point group:


     Atomic displacements:
     There are    6 irreducible representations

     Representation     1      1 modes -  To be done

     Representation     2      1 modes -  To be done

     Representation     3      1 modes -  To be done

     Representation     4      1 modes -  To be done

     Representation     5      1 modes -  To be done

     Representation     6      1 modes -  To be done



     Alpha used in Ewald sum =   2.8000
     PHONON       :      1h54m CPU      2h 0m WALL



     Representation #   1 mode #   1

     Self-consistent Calculation

      iter #   1 total cpu time :  7229.9 secs   av.it.:   5.7
      thresh= 1.000E-02 alpha_mix =  0.700 |ddv_scf|^2 =  2.764E-06

      iter #   2 total cpu time :  7267.6 secs   av.it.:  11.3
      thresh= 1.663E-04 alpha_mix =  0.700 |ddv_scf|^2 =  1.410E-05

      iter #   3 total cpu time :  7301.3 secs   av.it.:   9.6
      thresh= 3.754E-04 alpha_mix =  0.700 |ddv_scf|^2 =  3.490E-08

      iter #   4 total cpu time :  7338.3 secs   av.it.:  11.0
      thresh= 1.868E-05 alpha_mix =  0.700 |ddv_scf|^2 =  1.731E-10

      iter #   5 total cpu time :  7375.4 secs   av.it.:  11.0
      thresh= 1.316E-06 alpha_mix =  0.700 |ddv_scf|^2 =  7.854E-12

      iter #   6 total cpu time :  7411.6 secs   av.it.:  10.7
      thresh= 2.803E-07 alpha_mix =  0.700 |ddv_scf|^2 =  1.075E-13

      iter #   7 total cpu time :  7448.3 secs   av.it.:  10.8
      thresh= 3.278E-08 alpha_mix =  0.700 |ddv_scf|^2 =  1.970E-13

      iter #   8 total cpu time :  7482.5 secs   av.it.:   9.9
      thresh= 4.439E-08 alpha_mix =  0.700 |ddv_scf|^2 =  1.729E-15

      iter #   9 total cpu time :  7519.3 secs   av.it.:  10.9
      thresh= 4.158E-09 alpha_mix =  0.700 |ddv_scf|^2 =  5.879E-17

     End of self-consistent calculation

     Convergence has been achieved 


     Representation #   2 mode #   2

     Self-consistent Calculation

      iter #   1 total cpu time :  7546.3 secs   av.it.:   6.1
      thresh= 1.000E-02 alpha_mix =  0.700 |ddv_scf|^2 =  2.057E-05

      iter #   2 total cpu time :  7583.5 secs   av.it.:  11.1
      thresh= 4.536E-04 alpha_mix =  0.700 |ddv_scf|^2 =  1.151E-04

      iter #   3 total cpu time :  7616.9 secs   av.it.:   9.5
      thresh= 1.073E-03 alpha_mix =  0.700 |ddv_scf|^2 =  3.161E-08

      iter #   4 total cpu time :  7654.0 secs   av.it.:  11.1
      thresh= 1.778E-05 alpha_mix =  0.700 |ddv_scf|^2 =  4.691E-10

      iter #   5 total cpu time :  7690.8 secs   av.it.:  10.9
      thresh= 2.166E-06 alpha_mix =  0.700 |ddv_scf|^2 =  7.637E-12

      iter #   6 total cpu time :  7727.5 secs   av.it.:  10.8
      thresh= 2.764E-07 alpha_mix =  0.700 |ddv_scf|^2 =  2.592E-13

      iter #   7 total cpu time :  7763.4 secs   av.it.:  10.5
      thresh= 5.091E-08 alpha_mix =  0.700 |ddv_scf|^2 =  1.074E-13

      iter #   8 total cpu time :  7798.2 secs   av.it.:  10.2
      thresh= 3.277E-08 alpha_mix =  0.700 |ddv_scf|^2 =  2.100E-14

      iter #   9 total cpu time :  7832.9 secs   av.it.:  10.1
      thresh= 1.449E-08 alpha_mix =  0.700 |ddv_scf|^2 =  3.056E-16

      iter #  10 total cpu time :  7869.2 secs   av.it.:  10.7
      thresh= 1.748E-09 alpha_mix =  0.700 |ddv_scf|^2 =  4.776E-18

     End of self-consistent calculation

     Convergence has been achieved 


     Representation #   3 mode #   3

     Self-consistent Calculation

      iter #   1 total cpu time :  7894.2 secs   av.it.:   5.4
      thresh= 1.000E-02 alpha_mix =  0.700 |ddv_scf|^2 =  1.399E-07

      iter #   2 total cpu time :  7931.8 secs   av.it.:  11.3
      thresh= 3.741E-05 alpha_mix =  0.700 |ddv_scf|^2 =  1.404E-08

      iter #   3 total cpu time :  7968.7 secs   av.it.:  11.0
      thresh= 1.185E-05 alpha_mix =  0.700 |ddv_scf|^2 =  1.770E-10

      iter #   4 total cpu time :  8004.8 secs   av.it.:  10.6
      thresh= 1.330E-06 alpha_mix =  0.700 |ddv_scf|^2 =  1.527E-13

      iter #   5 total cpu time :  8042.9 secs   av.it.:  11.1
      thresh= 3.908E-08 alpha_mix =  0.700 |ddv_scf|^2 =  3.715E-15

      iter #   6 total cpu time :  8080.5 secs   av.it.:  11.2
      thresh= 6.095E-09 alpha_mix =  0.700 |ddv_scf|^2 =  3.638E-17

     End of self-consistent calculation

     Convergence has been achieved 


     Representation #   4 mode #   4

     Self-consistent Calculation

      iter #   1 total cpu time :  8104.4 secs   av.it.:   5.0
      thresh= 1.000E-02 alpha_mix =  0.700 |ddv_scf|^2 =  1.547E-08

      iter #   2 total cpu time :  8141.7 secs   av.it.:  11.2
      thresh= 1.244E-05 alpha_mix =  0.700 |ddv_scf|^2 =  7.831E-10

      iter #   3 total cpu time :  8178.6 secs   av.it.:  10.8
      thresh= 2.798E-06 alpha_mix =  0.700 |ddv_scf|^2 =  1.295E-11

      iter #   4 total cpu time :  8214.8 secs   av.it.:  10.7
      thresh= 3.599E-07 alpha_mix =  0.700 |ddv_scf|^2 =  1.697E-13

      iter #   5 total cpu time :  8252.1 secs   av.it.:  11.1
      thresh= 4.119E-08 alpha_mix =  0.700 |ddv_scf|^2 =  4.870E-16

      iter #   6 total cpu time :  8289.3 secs   av.it.:  11.0
      thresh= 2.207E-09 alpha_mix =  0.700 |ddv_scf|^2 =  4.251E-18

     End of self-consistent calculation

     Convergence has been achieved 


     Representation #   5 mode #   5

     Self-consistent Calculation

      iter #   1 total cpu time :  8313.2 secs   av.it.:   5.0
      thresh= 1.000E-02 alpha_mix =  0.700 |ddv_scf|^2 =  3.109E-08

      iter #   2 total cpu time :  8351.9 secs   av.it.:  11.7
      thresh= 1.763E-05 alpha_mix =  0.700 |ddv_scf|^2 =  1.524E-08

      iter #   3 total cpu time :  8389.2 secs   av.it.:  11.1
      thresh= 1.234E-05 alpha_mix =  0.700 |ddv_scf|^2 =  7.778E-10

      iter #   4 total cpu time :  8426.2 secs   av.it.:  11.0
      thresh= 2.789E-06 alpha_mix =  0.700 |ddv_scf|^2 =  1.229E-11

      iter #   5 total cpu time :  8464.1 secs   av.it.:  11.4
      thresh= 3.506E-07 alpha_mix =  0.700 |ddv_scf|^2 =  2.702E-13

      iter #   6 total cpu time :  8502.2 secs   av.it.:  11.4
      thresh= 5.198E-08 alpha_mix =  0.700 |ddv_scf|^2 =  1.358E-15

      iter #   7 total cpu time :  8540.5 secs   av.it.:  11.5
      thresh= 3.685E-09 alpha_mix =  0.700 |ddv_scf|^2 =  3.276E-17

     End of self-consistent calculation

     Convergence has been achieved 


     Representation #   6 mode #   6

     Self-consistent Calculation

      iter #   1 total cpu time :  8566.2 secs   av.it.:   5.8
      thresh= 1.000E-02 alpha_mix =  0.700 |ddv_scf|^2 =  8.826E-07

      iter #   2 total cpu time :  8604.3 secs   av.it.:  11.5
      thresh= 9.395E-05 alpha_mix =  0.700 |ddv_scf|^2 =  7.191E-07

      iter #   3 total cpu time :  8641.0 secs   av.it.:  10.8
      thresh= 8.480E-05 alpha_mix =  0.700 |ddv_scf|^2 =  7.610E-10

      iter #   4 total cpu time :  8679.0 secs   av.it.:  11.3
      thresh= 2.759E-06 alpha_mix =  0.700 |ddv_scf|^2 =  4.716E-11

      iter #   5 total cpu time :  8716.7 secs   av.it.:  11.3
      thresh= 6.867E-07 alpha_mix =  0.700 |ddv_scf|^2 =  1.033E-13

      iter #   6 total cpu time :  8754.2 secs   av.it.:  11.3
      thresh= 3.214E-08 alpha_mix =  0.700 |ddv_scf|^2 =  2.745E-15

      iter #   7 total cpu time :  8792.0 secs   av.it.:  11.3
      thresh= 5.239E-09 alpha_mix =  0.700 |ddv_scf|^2 =  3.799E-17

     End of self-consistent calculation

     Convergence has been achieved 
 
     Number of q in the star =   12
     List of q in the star:
          1   0.500000000   0.000000000   0.500000000
          2  -0.500000000   0.000000000   0.500000000
          3  -0.500000000   0.000000000  -0.500000000
          4   0.500000000   0.000000000  -0.500000000
          5   0.000000000   0.500000000  -0.500000000
          6  -0.500000000   0.500000000   0.000000000
          7   0.000000000   0.500000000   0.500000000
          8   0.000000000  -0.500000000  -0.500000000
          9   0.500000000   0.500000000   0.000000000
         10   0.500000000  -0.500000000   0.000000000
         11  -0.500000000  -0.500000000   0.000000000
         12   0.000000000  -0.500000000   0.500000000

     Diagonalizing the dynamical matrix

     q = (    0.500000000   0.000000000   0.500000000 ) 

 **************************************************************************
     freq (    1) =       4.137911 [THz] =     138.025843 [cm-1]
     freq (    2) =       5.733776 [THz] =     191.258170 [cm-1]
     freq (    3) =       8.061497 [THz] =     268.902587 [cm-1]
     freq (    4) =      11.871762 [THz] =     395.999368 [cm-1]
     freq (    5) =      13.391697 [THz] =     446.698918 [cm-1]
     freq (    6) =      13.814430 [THz] =     460.799794 [cm-1]
 **************************************************************************

     Mode symmetry, C_2v (mm2)  point group:

     freq (   1-   1) =        138.0  [cm-1]   --> B_1  D_3  S_3      
     freq (   2-   2) =        191.3  [cm-1]   --> B_2  D_4  S_4      
     freq (   3-   3) =        268.9  [cm-1]   --> A_1  D_1  S_1      
     freq (   4-   4) =        396.0  [cm-1]   --> B_2  D_4  S_4      
     freq (   5-   5) =        446.7  [cm-1]   --> A_2  D_2  S_2      
     freq (   6-   6) =        460.8  [cm-1]   --> A_1  D_1  S_1      

     Calculation of q =    0.0000000  -1.0000000   0.0000000
 
     G-vector sticks info
     --------------------
     sticks:   dense  smooth     PW     G-vecs:    dense   smooth      PW
[...]

      iter #   1 total cpu time :  8858.6 secs   av.it.:   5.0
      thresh= 1.000E-02 alpha_mix =  0.700 |ddv_scf|^2 =  2.707E-09

      iter #   2 total cpu time :  8887.4 secs   av.it.:  11.8
      thresh= 5.202E-06 alpha_mix =  0.700 |ddv_scf|^2 =  1.546E-10

      iter #   3 total cpu time :  8916.2 secs   av.it.:  11.8
      thresh= 1.243E-06 alpha_mix =  0.700 |ddv_scf|^2 =  9.087E-13

      iter #   4 total cpu time :  8944.0 secs   av.it.:  11.3
      thresh= 9.533E-08 alpha_mix =  0.700 |ddv_scf|^2 =  9.969E-15

      iter #   5 total cpu time :  8973.4 secs   av.it.:  12.2
      thresh= 9.984E-09 alpha_mix =  0.700 |ddv_scf|^2 =  1.994E-17

     End of self-consistent calculation

     Convergence has been achieved 


     Representation #   2 modes #   3   4

     Self-consistent Calculation

      iter #   1 total cpu time :  8992.8 secs   av.it.:   5.9
      thresh= 1.000E-02 alpha_mix =  0.700 |ddv_scf|^2 =  6.455E-07

      iter #   2 total cpu time :  9021.9 secs   av.it.:  11.9
      thresh= 8.034E-05 alpha_mix =  0.700 |ddv_scf|^2 =  9.578E-07

      iter #   3 total cpu time :  9049.3 secs   av.it.:  11.2
      thresh= 9.787E-05 alpha_mix =  0.700 |ddv_scf|^2 =  2.634E-10

      iter #   4 total cpu time :  9078.0 secs   av.it.:  11.9
      thresh= 1.623E-06 alpha_mix =  0.700 |ddv_scf|^2 =  1.635E-11

      iter #   5 total cpu time :  9106.8 secs   av.it.:  11.9
      thresh= 4.043E-07 alpha_mix =  0.700 |ddv_scf|^2 =  9.656E-14

      iter #   6 total cpu time :  9135.6 secs   av.it.:  11.8
      thresh= 3.107E-08 alpha_mix =  0.700 |ddv_scf|^2 =  3.429E-15

      iter #   7 total cpu time :  9164.0 secs   av.it.:  11.7
      thresh= 5.856E-09 alpha_mix =  0.700 |ddv_scf|^2 =  2.256E-17

     End of self-consistent calculation

     Convergence has been achieved 


     Representation #   3 modes #   5   6

     Self-consistent Calculation

      iter #   1 total cpu time :  9183.5 secs   av.it.:   5.7
      thresh= 1.000E-02 alpha_mix =  0.700 |ddv_scf|^2 =  1.117E-07

      iter #   2 total cpu time :  9212.9 secs   av.it.:  12.3
      thresh= 3.343E-05 alpha_mix =  0.700 |ddv_scf|^2 =  2.850E-08

      iter #   3 total cpu time :  9241.8 secs   av.it.:  11.9
      thresh= 1.688E-05 alpha_mix =  0.700 |ddv_scf|^2 =  6.780E-11

      iter #   4 total cpu time :  9270.6 secs   av.it.:  11.9
      thresh= 8.234E-07 alpha_mix =  0.700 |ddv_scf|^2 =  3.923E-14

      iter #   5 total cpu time :  9299.7 secs   av.it.:  12.1
      thresh= 1.981E-08 alpha_mix =  0.700 |ddv_scf|^2 =  2.748E-15

      iter #   6 total cpu time :  9329.0 secs   av.it.:  12.1
      thresh= 5.242E-09 alpha_mix =  0.700 |ddv_scf|^2 =  2.960E-18

     End of self-consistent calculation

     Convergence has been achieved 
 
     Number of q in the star =    3
     List of q in the star:
          1   0.000000000  -1.000000000   0.000000000
          2  -1.000000000   0.000000000   0.000000000
          3   0.000000000   0.000000000  -1.000000000

     Diagonalizing the dynamical matrix

     q = (    0.000000000  -1.000000000   0.000000000 ) 

 **************************************************************************
     freq (    1) =       4.448830 [THz] =     148.397000 [cm-1]
     freq (    2) =       4.448830 [THz] =     148.397000 [cm-1]
     freq (    3) =      11.701606 [THz] =     390.323568 [cm-1]
     freq (    4) =      11.701606 [THz] =     390.323568 [cm-1]
     freq (    5) =      12.892380 [THz] =     430.043515 [cm-1]
     freq (    6) =      12.892380 [THz] =     430.043515 [cm-1]
 **************************************************************************

     Calculation of q =   -0.5000000  -1.0000000   0.0000000
 
     G-vector sticks info
     --------------------
     sticks:   dense  smooth     PW     G-vecs:    dense   smooth      PW
     Sum        1843     745    253                52345    13323    2685
 
     Using Slab Decomposition
 

     Title: 
     Phonons of Si                                                              


     bravais-lattice index     =            2
     lattice parameter (alat)  =      10.3614  a.u.
     unit-cell volume          =     278.0964 (a.u.)^3
     number of atoms/cell      =            2
     number of atomic types    =            1
     number of electrons       =         8.00
     number of Kohn-Sham states=            4
     kinetic-energy cutoff     =      50.0000  Ry
     charge density cutoff     =     500.0000  Ry
     Exchange-correlation= PZ
                           (   1   1   0   0   0   0   0)

     celldm(1)=  10.361400  celldm(2)=   0.000000  celldm(3)=   0.000000
     celldm(4)=   0.000000  celldm(5)=   0.000000  celldm(6)=   0.000000

     crystal axes: (cart. coord. in units of alat)
               a(1) = (  -0.500000   0.000000   0.500000 )  
               a(2) = (   0.000000   0.500000   0.500000 )  
               a(3) = (  -0.500000   0.500000   0.000000 )  

     reciprocal axes: (cart. coord. in units 2 pi/alat)
               b(1) = ( -1.000000 -1.000000  1.000000 )  
               b(2) = (  1.000000  1.000000  1.000000 )  
               b(3) = ( -1.000000  1.000000 -1.000000 )  


     PseudoPot. # 1 for Si read from file:
     ./Si_LDA.UPF
     MD5 check sum: b5ade7b37ee992b02096e360e546dc2d
     Pseudo is Ultrasoft + core correction, Zval =  4.0
     Generated by new atomic code, or converted to UPF format
     Using radial grid of  899 points,  6 beta functions with: 
                l(1) =   0
                l(2) =   0
                l(3) =   1
                l(4) =   1
                l(5) =   2
                l(6) =   2
     Q(r) pseudized with  8 coefficients,  rinner =    0.900   0.900   0.900
                                                       0.900   0.900

     atomic species   valence    mass     pseudopotential
        Si             4.00    28.08550     Si( 1.00)

     48 Sym. Ops., with inversion, found



   Cartesian axes

     site n.     atom                  positions (alat units)
         1           Si  tau(   1) = (   0.0000000   0.0000000   0.0000000  )
         2           Si  tau(   2) = (  -0.2500000   0.2500000   0.2500000  )

     number of k points=   230

     Number of k-points >= 100: set verbosity='high' to print them.

     Dense  grid:    52345 G-vectors     FFT dimensions: (  60,  60,  60)

     Smooth grid:    13323 G-vectors     FFT dimensions: (  36,  36,  36)

     Estimated max dynamical RAM per process >     174.10 MB

     The potential is recalculated from file :
     ./_ph0/Si.save/charge-density

     Starting wfcs are    8 atomic wfcs

     Band Structure Calculation
     Davidson diagonalization with overlap

     ethr =  1.25E-10,  avg # of iterations = 13.1

     total cpu time spent up to now is      459.1 secs

     End of band structure calculation

     Number of k-points >= 100: set verbosity='high' to print the bands.

     highest occupied level (ev):     5.7131

     Writing config to output data dir ./_ph0/Si.save/

     Phonons of Si                                                              

     bravais-lattice index     =            2
     lattice parameter (alat)  =      10.3614  a.u.
     unit-cell volume          =     278.0964 (a.u.)^3
     number of atoms/cell      =            2
     number of atomic types    =            1
     kinetic-energy cut-off    =      50.0000  Ry
     charge density cut-off    =     500.0000  Ry
     convergence threshold     =      1.0E-16
     beta                      =       0.7000
     number of iterations used =            4
     Exchange-correlation= PZ
                           (   1   1   0   0   0   0   0)


     celldm(1)=   10.36140  celldm(2)=    0.00000  celldm(3)=    0.00000
     celldm(4)=    0.00000  celldm(5)=    0.00000  celldm(6)=    0.00000

     crystal axes: (cart. coord. in units of alat)
               a(1) = ( -0.5000  0.0000  0.5000 )  
               a(2) = (  0.0000  0.5000  0.5000 )  
               a(3) = ( -0.5000  0.5000  0.0000 )  

     reciprocal axes: (cart. coord. in units 2 pi/alat)
               b(1) = ( -1.0000 -1.0000  1.0000 )  
               b(2) = (  1.0000  1.0000  1.0000 )  
               b(3) = ( -1.0000  1.0000 -1.0000 )  


     Atoms inside the unit cell: 

     Cartesian axes

     site n.  atom      mass           positions (alat units)
        1     Si  28.0855   tau(    1) = (    0.00000    0.00000    0.00000  )
        2     Si  28.0855   tau(    2) = (   -0.25000    0.25000    0.25000  )

     Computing dynamical matrix for 
                    q = (  -0.5000000  -1.0000000   0.0000000 )
 
      8 Sym.Ops. (no q -> -q+G )


     G cutoff = 1359.7127  (  52345 G-vectors)     FFT grid: ( 60, 60, 60)
     G cutoff =  543.8851  (  13323 G-vectors)  smooth grid: ( 36, 36, 36)
     number of k points=   230

     PseudoPot. # 1 for Si read from file:
     ./Si_LDA.UPF
     MD5 check sum: b5ade7b37ee992b02096e360e546dc2d
     Pseudo is Ultrasoft + core correction, Zval =  4.0
     Generated by new atomic code, or converted to UPF format
     Using radial grid of  899 points,  6 beta functions with: 
                l(1) =   0
                l(2) =   0
                l(3) =   1
                l(4) =   1
                l(5) =   2
                l(6) =   2
     Q(r) pseudized with  8 coefficients,  rinner =    0.900   0.900   0.900
                                                       0.900   0.900


     Atomic displacements:
     There are    3 irreducible representations

     Representation     1      2 modes -  To be done

     Representation     2      2 modes -  To be done

     Representation     3      2 modes -  To be done



     Alpha used in Ewald sum =   2.8000
     PHONON       :      2h29m CPU      2h36m WALL



     Representation #   1 modes #   1   2

     Self-consistent Calculation

      iter #   1 total cpu time :  9419.9 secs   av.it.:   5.4
      thresh= 1.000E-02 alpha_mix =  0.700 |ddv_scf|^2 =  7.336E-08

      iter #   2 total cpu time :  9462.9 secs   av.it.:  12.6
      thresh= 2.709E-05 alpha_mix =  0.700 |ddv_scf|^2 =  4.079E-08

      iter #   3 total cpu time :  9504.6 secs   av.it.:  12.0
      thresh= 2.020E-05 alpha_mix =  0.700 |ddv_scf|^2 =  8.717E-11

      iter #   4 total cpu time :  9546.9 secs   av.it.:  12.3
      thresh= 9.336E-07 alpha_mix =  0.700 |ddv_scf|^2 =  4.130E-13

      iter #   5 total cpu time :  9589.1 secs   av.it.:  12.1
      thresh= 6.426E-08 alpha_mix =  0.700 |ddv_scf|^2 =  4.992E-15

      iter #   6 total cpu time :  9631.8 secs   av.it.:  12.4
      thresh= 7.065E-09 alpha_mix =  0.700 |ddv_scf|^2 =  3.536E-17

     End of self-consistent calculation

     Convergence has been achieved 


     Representation #   2 modes #   3   4

     Self-consistent Calculation

      iter #   1 total cpu time :  9659.0 secs   av.it.:   5.8
      thresh= 1.000E-02 alpha_mix =  0.700 |ddv_scf|^2 =  3.764E-07

      iter #   2 total cpu time :  9702.1 secs   av.it.:  12.6
      thresh= 6.136E-05 alpha_mix =  0.700 |ddv_scf|^2 =  5.598E-07

      iter #   3 total cpu time :  9743.6 secs   av.it.:  11.9
      thresh= 7.482E-05 alpha_mix =  0.700 |ddv_scf|^2 =  1.077E-10

      iter #   4 total cpu time :  9786.0 secs   av.it.:  12.2
      thresh= 1.038E-06 alpha_mix =  0.700 |ddv_scf|^2 =  3.089E-12

      iter #   5 total cpu time :  9828.6 secs   av.it.:  12.3
      thresh= 1.758E-07 alpha_mix =  0.700 |ddv_scf|^2 =  1.850E-14

      iter #   6 total cpu time :  9871.2 secs   av.it.:  12.3
      thresh= 1.360E-08 alpha_mix =  0.700 |ddv_scf|^2 =  7.956E-16

      iter #   7 total cpu time :  9913.4 secs   av.it.:  12.2
      thresh= 2.821E-09 alpha_mix =  0.700 |ddv_scf|^2 =  2.520E-18

     End of self-consistent calculation

     Convergence has been achieved 


     Representation #   3 modes #   5   6

     Self-consistent Calculation

      iter #   1 total cpu time :  9941.1 secs   av.it.:   5.9
      thresh= 1.000E-02 alpha_mix =  0.700 |ddv_scf|^2 =  2.644E-07

      iter #   2 total cpu time :  9984.4 secs   av.it.:  12.6
      thresh= 5.142E-05 alpha_mix =  0.700 |ddv_scf|^2 =  1.615E-07

      iter #   3 total cpu time : 10026.1 secs   av.it.:  12.0
      thresh= 4.018E-05 alpha_mix =  0.700 |ddv_scf|^2 =  8.124E-11

      iter #   4 total cpu time : 10067.9 secs   av.it.:  12.1
      thresh= 9.013E-07 alpha_mix =  0.700 |ddv_scf|^2 =  9.680E-13

      iter #   5 total cpu time : 10109.9 secs   av.it.:  12.1
      thresh= 9.839E-08 alpha_mix =  0.700 |ddv_scf|^2 =  7.278E-15

      iter #   6 total cpu time : 10152.4 secs   av.it.:  12.3
      thresh= 8.531E-09 alpha_mix =  0.700 |ddv_scf|^2 =  2.398E-16

      iter #   7 total cpu time : 10194.6 secs   av.it.:  12.2
      thresh= 1.548E-09 alpha_mix =  0.700 |ddv_scf|^2 =  1.360E-18

     End of self-consistent calculation

     Convergence has been achieved 
 
     Number of q in the star =    6
     List of q in the star:
          1  -0.500000000  -1.000000000   0.000000000
          2   0.000000000   1.000000000   0.500000000
          3   0.000000000  -1.000000000  -0.500000000
          4   0.500000000   1.000000000   0.000000000
          5  -1.000000000  -0.500000000   0.000000000
          6   0.000000000  -0.500000000  -1.000000000

     Diagonalizing the dynamical matrix

     q = (   -0.500000000  -1.000000000   0.000000000 ) 

 **************************************************************************
     freq (    1) =       6.032193 [THz] =     201.212313 [cm-1]
     freq (    2) =       6.032193 [THz] =     201.212313 [cm-1]
     freq (    3) =       9.997949 [THz] =     333.495679 [cm-1]
     freq (    4) =       9.997949 [THz] =     333.495679 [cm-1]
     freq (    5) =      13.074736 [THz] =     436.126253 [cm-1]
     freq (    6) =      13.074736 [THz] =     436.126253 [cm-1]
 **************************************************************************
 
     init_run     :     10.92s CPU     12.61s WALL (       7 calls)
     electrons    :    415.85s CPU    443.72s WALL (       7 calls)

     Called by init_run:
     wfcinit      :      0.00s CPU      0.02s WALL (       7 calls)
     potinit      :      0.44s CPU      0.87s WALL (       7 calls)
     hinit0       :      7.02s CPU      7.33s WALL (       7 calls)

     Called by electrons:
     c_bands      :    415.85s CPU    443.66s WALL (       7 calls)
     v_of_rho     :      0.42s CPU      0.60s WALL (       8 calls)
     newd         :      1.98s CPU      2.31s WALL (       8 calls)

     Called by c_bands:
     init_us_2    :    112.18s CPU    121.56s WALL (   68050 calls)
     init_us_2:cp :    110.34s CPU    120.29s WALL (   68050 calls)
     cegterg      :    348.30s CPU    362.32s WALL (    2410 calls)

     Called by *egterg:
     cdiaghg      :     13.37s CPU     14.36s WALL (   34023 calls)
     h_psi        :   6325.66s CPU   6557.91s WALL (  715080 calls)
     s_psi        :    569.84s CPU    637.29s WALL ( 1451702 calls)
     g_psi        :      1.57s CPU      1.69s WALL (   31613 calls)

     Called by h_psi:
     h_psi:calbec :    236.77s CPU    246.35s WALL (  715080 calls)
     vloc_psi     :   5748.78s CPU   5948.16s WALL (  715080 calls)
     add_vuspsi   :    280.37s CPU    309.86s WALL (  715080 calls)

     General routines
     calbec       :    430.70s CPU    475.29s WALL ( 1574177 calls)
     fft          :     14.18s CPU     14.40s WALL (    3289 calls)
     ffts         :      8.09s CPU      8.38s WALL (    8646 calls)
     fftw         :   5786.11s CPU   6008.64s WALL ( 6353900 calls)
     interpolate  :      4.79s CPU      4.91s WALL (     756 calls)
     davcio       :     36.42s CPU     83.12s WALL (  300261 calls)
 
     Parallel routines
 
     PHONON       :      2h41m CPU      2h49m WALL

     INITIALIZATION: 
     phq_setup    :      0.40s CPU      0.82s WALL (       8 calls)
     phq_init     :    184.93s CPU    188.97s WALL (       8 calls)
 
     phq_init     :    184.93s CPU    188.97s WALL (       8 calls)
     set_drhoc    :     26.55s CPU     26.56s WALL (      24 calls)
     init_vloc    :      0.02s CPU      0.05s WALL (       8 calls)
     init_us_1    :      7.23s CPU      7.32s WALL (       8 calls)
     init_us_2    :    112.18s CPU    121.56s WALL (   68050 calls)
     newd         :      1.98s CPU      2.31s WALL (       8 calls)
     dvanqq       :     50.36s CPU     50.48s WALL (       8 calls)
     drho         :     94.58s CPU     97.40s WALL (       8 calls)
 
     DYNAMICAL MATRIX:
     dynmat0      :     25.08s CPU     25.71s WALL (       8 calls)
     phqscf       :   8963.48s CPU   9391.99s WALL (       8 calls)
     dynmatrix    :      0.04s CPU      0.84s WALL (       8 calls)
 
     phqscf       :   8963.48s CPU   9391.99s WALL (       8 calls)
     solve_linter :   8932.28s CPU   9356.05s WALL (      32 calls)
     drhodv       :     24.47s CPU     26.38s WALL (      32 calls)
 
     dynmat0      :     25.08s CPU     25.71s WALL (       8 calls)
     dynmat_us    :      6.51s CPU      6.87s WALL (       8 calls)
     d2ionq       :      0.35s CPU      0.38s WALL (       8 calls)
     dynmatcc     :     18.21s CPU     18.24s WALL (       8 calls)
 
     dynmat_us    :      6.51s CPU      6.87s WALL (       8 calls)
     addusdynmat  :      0.00s CPU      0.00s WALL (       8 calls)
 
     phqscf       :   8963.48s CPU   9391.99s WALL (       8 calls)
     solve_linter :   8932.28s CPU   9356.05s WALL (      32 calls)
 
     solve_linter :   8932.28s CPU   9356.05s WALL (      32 calls)
     dvqpsi_us    :     98.23s CPU    101.43s WALL (    7650 calls)
     sth_kernel   :   8241.15s CPU   8636.64s WALL (     241 calls)
     apply_dpot_b :    437.05s CPU    455.26s WALL (   50220 calls)
     ortho        :     54.74s CPU     59.18s WALL (   57870 calls)
     cgsolve      :   7082.68s CPU   7395.78s WALL (   57870 calls)
     incdrhoscf   :    545.79s CPU    575.99s WALL (   57870 calls)
     addusddens   :    262.69s CPU    263.28s WALL (     268 calls)
     dv_of_drho   :      6.74s CPU      6.79s WALL (     348 calls)
     mix_pot      :      3.45s CPU     16.73s WALL (     241 calls)
     psymdvscf    :    114.08s CPU    114.35s WALL (     236 calls)
     newdq        :    304.68s CPU    304.78s WALL (     241 calls)
     adddvscf     :     25.14s CPU     26.43s WALL (   50220 calls)
     drhodvus     :      0.19s CPU      0.47s WALL (      32 calls)
 
     dvqpsi_us    :     98.23s CPU    101.43s WALL (    7650 calls)
     dvqpsi_us_on :     18.22s CPU     18.51s WALL (    7650 calls)
 
     cgsolve      :   7082.68s CPU   7395.78s WALL (   57870 calls)
     ch_psi       :   6973.98s CPU   7271.78s WALL (  678647 calls)
 
     ch_psi       :   6973.98s CPU   7271.78s WALL (  678647 calls)
     h_psi        :   6325.66s CPU   6557.91s WALL (  715080 calls)
     last         :    630.62s CPU    683.51s WALL (  678647 calls)
 
     h_psi        :   6325.66s CPU   6557.91s WALL (  715080 calls)
     add_vuspsi   :    280.37s CPU    309.86s WALL (  715080 calls)
 
     incdrhoscf   :    545.79s CPU    575.99s WALL (   57870 calls)
     addusdbec    :     24.69s CPU     25.32s WALL (   65310 calls)
 
     drhodvus     :      0.19s CPU      0.47s WALL (      32 calls)
 
      General routines
     calbec       :    430.70s CPU    475.29s WALL ( 1574177 calls)
     fft          :     14.18s CPU     14.40s WALL (    3289 calls)
     ffts         :      8.09s CPU      8.38s WALL (    8646 calls)
     fftw         :   5786.11s CPU   6008.64s WALL ( 6353900 calls)
     davcio       :     36.42s CPU     83.12s WALL (  300261 calls)
     write_rec    :      0.52s CPU     13.12s WALL (     273 calls)
 
 
     PHONON       :      2h41m CPU      2h49m WALL

 
   This run was terminated on:  11:25:49  10Apr2022            

=------------------------------------------------------------------------------=
   JOB DONE.
=------------------------------------------------------------------------------=
