
     Program PWSCF v.6.4.1 starts on 23Apr2022 at 20: 7:42 

     This program is part of the open-source Quantum ESPRESSO suite
     for quantum simulation of materials; please cite
         "P. Giannozzi et al., J. Phys.:Condens. Matter 21 395502 (2009);
         "P. Giannozzi et al., J. Phys.:Condens. Matter 29 465901 (2017);
          URL http://www.quantum-espresso.org", 
     in publications or presentations arising from this work. More details at
     http://www.quantum-espresso.org/quote

     Parallel version (MPI & OpenMP), running on      68 processor cores
     Number of MPI processes:                68
     Threads/MPI process:                     1

     MPI processes distributed on     1 nodes
     R & G space division:  proc/nbgrp/npool/nimage =      68
     Waiting for input...
     Reading input from standard input

     Current dimensions of program PWSCF are:
     Max number of different atomic species (ntypx) = 10
     Max number of k-points (npk) =  40000
     Max angular momentum in pseudopotentials (lmaxx) =  3

     Subspace diagonalization in iterative solution of the eigenvalue problem:
     one sub-group per band group will be used
     scalapack distributed-memory algorithm (size of sub-group:  5*  5 procs)

 
     Parallelization info
     --------------------
     sticks:   dense  smooth     PW     G-vecs:    dense   smooth      PW
     Min          25      25      7                  600      600      97
     Max          26      26      8                  602      602     102
     Sum        1707    1707    509                40885    40885    6705
 


     bravais-lattice index     =            5
     lattice parameter (alat)  =      12.1746  a.u.
     unit-cell volume          =     855.2461 (a.u.)^3
     number of atoms/cell      =           10
     number of atomic types    =            3
     number of electrons       =        64.00
     number of Kohn-Sham states=           32
     kinetic-energy cutoff     =      50.0000  Ry
     charge density cutoff     =     200.0000  Ry
     convergence threshold     =      1.0E-08
     mixing beta               =       0.7000
     number of iterations used =            8  plain     mixing
     Exchange-correlation      = SLA  PW   PBE  PBE ( 1  4  3  4 0 0)
     nstep                     =           50


     celldm(1)=  12.174600  celldm(2)=   0.000000  celldm(3)=   0.000000
     celldm(4)=   0.693200  celldm(5)=   0.000000  celldm(6)=   0.000000

     crystal axes: (cart. coord. in units of alat)
               a(1) = (   0.391663  -0.226127   0.891889 )  
               a(2) = (   0.000000   0.452254   0.891889 )  
               a(3) = (  -0.391663  -0.226127   0.891889 )  

     reciprocal axes: (cart. coord. in units 2 pi/alat)
               b(1) = (  1.276607 -0.737050  0.373738 )  
               b(2) = (  0.000000  1.474099  0.373738 )  
               b(3) = ( -1.276607 -0.737050  0.373738 )  


     PseudoPot. # 1 for Ca read from file:
     ./Ca_PBE.UPF
     MD5 check sum: 403a4c14b9e4d4dfdc3024c9a3812218
     Pseudo is Ultrasoft + core correction, Zval = 10.0
     Generated by new atomic code, or converted to UPF format
     Using radial grid of  845 points,  6 beta functions with: 
                l(1) =   0
                l(2) =   0
                l(3) =   1
                l(4) =   1
                l(5) =   2
                l(6) =   2
     Q(r) pseudized with  8 coefficients,  rinner =    1.500   1.500   1.500
                                                       1.500   1.500

     PseudoPot. # 2 for C  read from file:
     ./C_PBE.UPF
     MD5 check sum: d1aef80898a10debaa0f26306b886e00
     Pseudo is Ultrasoft + core correction, Zval =  4.0
     Generated by new atomic code, or converted to UPF format
     Using radial grid of  721 points,  4 beta functions with: 
                l(1) =   0
                l(2) =   0
                l(3) =   1
                l(4) =   1
     Q(r) pseudized with  8 coefficients,  rinner =    1.100   1.100   1.100


     PseudoPot. # 3 for O  read from file:
     ./O_PBE.UPF
     MD5 check sum: 734c27235a0248c51dbae37a1fbe46ec
     Pseudo is Ultrasoft + core correction, Zval =  6.0
     Generated by new atomic code, or converted to UPF format
     Using radial grid of  737 points,  5 beta functions with: 
                l(1) =   0
                l(2) =   0
                l(3) =   1
                l(4) =   1
                l(5) =   2
     Q(r) pseudized with  8 coefficients,  rinner =    0.900   0.900   0.900
                                                       0.900   0.900

     atomic species   valence    mass     pseudopotential
        Ca            10.00    40.07800     Ca( 1.00)
        C              4.00    12.01070     C ( 1.00)
        O              6.00    16.00000     O ( 1.00)

     12 Sym. Ops., with inversion, found ( 6 have fractional translation)



   Cartesian axes

     site n.     atom                  positions (alat units)
         1           Ca  tau(   1) = (   0.0000000  -0.0000000   1.3378341  )
         2           Ca  tau(   2) = (   0.0000000   0.0000000   0.0000000  )
         3           C   tau(   3) = (   0.0000000  -0.0000000   0.6689170  )
         4           C   tau(   4) = (   0.0000000  -0.0000000   2.0067511  )
         5           O   tau(   5) = (   0.1006641   0.2778983   1.5608064  )
         6           O   tau(   6) = (   0.1903350  -0.2261268   1.5608064  )
         7           O   tau(   7) = (  -0.2909991  -0.0517715   1.5608064  )
         8           O   tau(   8) = (  -0.1903350   0.2261268   1.1148617  )
         9           O   tau(   9) = (   0.2909991   0.0517715   1.1148617  )
        10           O   tau(  10) = (  -0.1006641  -0.2778983   1.1148617  )

     number of k points=    85
                       cart. coord. in units 2pi/alat
        k(    1) = (   0.0000000   0.0000000   0.0000000), wk =   0.0027435
        k(    2) = (  -0.1418453  -0.0818944   0.0415265), wk =   0.0164609
        k(    3) = (  -0.2836905  -0.1637888   0.0830530), wk =   0.0164609
        k(    4) = (  -0.4255358  -0.2456832   0.1245795), wk =   0.0164609
        k(    5) = (  -0.5673810  -0.3275776   0.1661060), wk =   0.0164609
        k(    6) = (  -0.1418453   0.0818944   0.0830530), wk =   0.0164609
        k(    7) = (  -0.2836905  -0.0000000   0.1245795), wk =   0.0329218
        k(    8) = (  -0.4255358  -0.0818944   0.1661060), wk =   0.0329218
        k(    9) = (  -0.5673810  -0.1637888   0.2076325), wk =   0.0329218
        k(   10) = (   0.5673810   0.4913664  -0.1245795), wk =   0.0329218
        k(   11) = (   0.4255358   0.4094720  -0.0830530), wk =   0.0329218
        k(   12) = (   0.2836905   0.3275776  -0.0415265), wk =   0.0329218
        k(   13) = (   0.1418453   0.2456832   0.0000000), wk =   0.0164609
        k(   14) = (  -0.2836905   0.1637888   0.1661060), wk =   0.0164609
        k(   15) = (  -0.4255358   0.0818944   0.2076325), wk =   0.0329218
        k(   16) = (  -0.5673810  -0.0000000   0.2491590), wk =   0.0329218
        k(   17) = (   0.5673810   0.6551552  -0.0830530), wk =   0.0329218
        k(   18) = (   0.4255358   0.5732608  -0.0415265), wk =   0.0329218
        k(   19) = (   0.2836905   0.4913664   0.0000000), wk =   0.0164609
        k(   20) = (  -0.4255358   0.2456832   0.2491590), wk =   0.0164609
        k(   21) = (  -0.5673810   0.1637888   0.2906854), wk =   0.0329218
        k(   22) = (   0.5673810   0.8189440  -0.0415265), wk =   0.0329218
        k(   23) = (   0.4255358   0.7370496   0.0000000), wk =   0.0164609
        k(   24) = (  -0.5673810   0.3275776   0.3322119), wk =   0.0164609
        k(   25) = (   0.5673810   0.9827328   0.0000000), wk =   0.0164609
        k(   26) = (  -0.0000000  -0.0000000   0.1245795), wk =   0.0054870
        k(   27) = (  -0.1418453  -0.0818944   0.1661060), wk =   0.0164609
        k(   28) = (  -0.2836905  -0.1637888   0.2076325), wk =   0.0164609
        k(   29) = (  -0.4255358  -0.2456832   0.2491590), wk =   0.0164609
        k(   30) = (   0.7092263   0.4094720  -0.0830530), wk =   0.0164609
        k(   31) = (   0.5673810   0.3275776  -0.0415265), wk =   0.0164609
        k(   32) = (   0.4255358   0.2456832   0.0000000), wk =   0.0164609
        k(   33) = (   0.2836905   0.1637888   0.0415265), wk =   0.0164609
        k(   34) = (  -0.1418453   0.0818944   0.2076325), wk =   0.0164609
        k(   35) = (  -0.2836905  -0.0000000   0.2491590), wk =   0.0329218
        k(   36) = (  -0.4255358  -0.0818944   0.2906854), wk =   0.0329218
        k(   37) = (   0.7092263   0.5732608  -0.0415265), wk =   0.0329218
        k(   38) = (   0.5673810   0.4913664   0.0000000), wk =   0.0329218
        k(   39) = (   0.4255358   0.4094720   0.0415265), wk =   0.0329218
        k(   40) = (   0.2836905   0.3275776   0.0830530), wk =   0.0329218
        k(   41) = (  -0.2836905   0.1637888   0.2906854), wk =   0.0164609
        k(   42) = (  -0.4255358   0.0818944   0.3322119), wk =   0.0329218
        k(   43) = (   0.7092263   0.7370496   0.0000000), wk =   0.0329218
        k(   44) = (   0.5673810   0.6551552   0.0415265), wk =   0.0329218
        k(   45) = (   0.4255358   0.5732608   0.0830530), wk =   0.0329218
        k(   46) = (   0.2836905   0.4913664   0.1245795), wk =   0.0329218
        k(   47) = (  -0.4255358   0.2456832   0.3737384), wk =   0.0164609
        k(   48) = (   0.7092263   0.9008384   0.0415265), wk =   0.0329218
        k(   49) = (   0.5673810   0.8189440   0.0830530), wk =   0.0329218
        k(   50) = (   0.4255358   0.7370496   0.1245795), wk =   0.0329218
        k(   51) = (   0.2836905   0.6551552   0.1661060), wk =   0.0329218
        k(   52) = (   0.7092263  -0.4094720  -0.2906854), wk =   0.0164609
        k(   53) = (   0.5673810  -0.4913664  -0.2491590), wk =   0.0329218
        k(   54) = (   0.4255358  -0.5732608  -0.2076325), wk =   0.0329218
        k(   55) = (   0.5673810  -0.3275776  -0.2076325), wk =   0.0164609
        k(   56) = (   0.4255358  -0.4094720  -0.1661060), wk =   0.0329218
        k(   57) = (   0.4255358  -0.2456832  -0.1245795), wk =   0.0164609
        k(   58) = (  -0.0000000  -0.0000000   0.2491590), wk =   0.0054870
        k(   59) = (  -0.1418453  -0.0818944   0.2906854), wk =   0.0164609
        k(   60) = (  -0.2836905  -0.1637888   0.3322119), wk =   0.0164609
        k(   61) = (   0.8510715   0.4913664   0.0000000), wk =   0.0164609
        k(   62) = (   0.7092263   0.4094720   0.0415265), wk =   0.0164609
        k(   63) = (   0.5673810   0.3275776   0.0830530), wk =   0.0164609
        k(   64) = (  -0.1418453   0.0818944   0.3322119), wk =   0.0164609
        k(   65) = (  -0.2836905  -0.0000000   0.3737384), wk =   0.0329218
        k(   66) = (   0.8510715   0.6551552   0.0415265), wk =   0.0329218
        k(   67) = (   0.7092263   0.5732608   0.0830530), wk =   0.0329218
        k(   68) = (   0.5673810   0.4913664   0.1245795), wk =   0.0329218
        k(   69) = (  -0.2836905   0.1637888   0.4152649), wk =   0.0164609
        k(   70) = (   0.8510715   0.8189440   0.0830530), wk =   0.0329218
        k(   71) = (   0.7092263   0.7370496   0.1245795), wk =   0.0329218
        k(   72) = (   0.5673810   0.6551552   0.1661060), wk =   0.0329218
        k(   73) = (   0.8510715  -0.4913664  -0.2491590), wk =   0.0164609
        k(   74) = (   0.7092263  -0.5732608  -0.2076325), wk =   0.0329218
        k(   75) = (   0.7092263  -0.4094720  -0.1661060), wk =   0.0164609
        k(   76) = (  -0.0000000   0.0000000   0.3737384), wk =   0.0054870
        k(   77) = (  -0.1418453  -0.0818944   0.4152649), wk =   0.0164609
        k(   78) = (   0.9929168   0.5732608   0.0830530), wk =   0.0164609
        k(   79) = (   0.8510715   0.4913664   0.1245795), wk =   0.0164609
        k(   80) = (  -0.1418453   0.0818944   0.4567914), wk =   0.0164609
        k(   81) = (   0.9929168   0.7370496   0.1245795), wk =   0.0329218
        k(   82) = (   0.8510715   0.6551552   0.1661060), wk =   0.0329218
        k(   83) = (   0.9929168  -0.5732608  -0.2076325), wk =   0.0164609
        k(   84) = (  -0.0000000  -0.0000000   0.4983179), wk =   0.0054870
        k(   85) = (   1.1347620   0.6551552   0.1661060), wk =   0.0164609

     Dense  grid:    40885 G-vectors     FFT dimensions: (  60,  60,  60)

     Estimated max dynamical RAM per process >      19.03 MB

     Estimated total dynamical RAM >       1.26 GB

     Check: negative core charge=   -0.000003

     Initial potential from superposition of free atoms

     starting charge   63.98899, renormalised to   64.00000
     Starting wfcs are   52 randomized atomic wfcs

     total cpu time spent up to now is       13.6 secs

     Self-consistent Calculation

     iteration #  1     ecut=    50.00 Ry     beta= 0.70
     CG style diagonalization
     ethr =  1.00E-02,  avg # of iterations =  2.7

     total cpu time spent up to now is       33.9 secs

     total energy              =    -366.66965635 Ry
     Harris-Foulkes estimate   =    -367.89252992 Ry
     estimated scf accuracy    <       1.75324062 Ry

     iteration #  2     ecut=    50.00 Ry     beta= 0.70
     CG style diagonalization
     ethr =  2.74E-03,  avg # of iterations =  4.4

     total cpu time spent up to now is       64.7 secs

     total energy              =    -367.10081831 Ry
     Harris-Foulkes estimate   =    -367.91445690 Ry
     estimated scf accuracy    <       1.67348951 Ry

     iteration #  3     ecut=    50.00 Ry     beta= 0.70
     CG style diagonalization
     ethr =  2.61E-03,  avg # of iterations =  3.8

     total cpu time spent up to now is       91.4 secs

     total energy              =    -367.41848128 Ry
     Harris-Foulkes estimate   =    -367.42047725 Ry
     estimated scf accuracy    <       0.01100829 Ry

     iteration #  4     ecut=    50.00 Ry     beta= 0.70
     CG style diagonalization
     ethr =  1.72E-05,  avg # of iterations =  4.4

     total cpu time spent up to now is      122.7 secs

     total energy              =    -367.42991295 Ry
     Harris-Foulkes estimate   =    -367.43093099 Ry
     estimated scf accuracy    <       0.00274529 Ry

     iteration #  5     ecut=    50.00 Ry     beta= 0.70
     CG style diagonalization
     ethr =  4.29E-06,  avg # of iterations =  3.6

     total cpu time spent up to now is      148.0 secs

     total energy              =    -367.43032250 Ry
     Harris-Foulkes estimate   =    -367.43035465 Ry
     estimated scf accuracy    <       0.00014843 Ry

     iteration #  6     ecut=    50.00 Ry     beta= 0.70
     CG style diagonalization
     ethr =  2.32E-07,  avg # of iterations =  4.1

     total cpu time spent up to now is      177.1 secs

     total energy              =    -367.43036104 Ry
     Harris-Foulkes estimate   =    -367.43037460 Ry
     estimated scf accuracy    <       0.00002317 Ry

     iteration #  7     ecut=    50.00 Ry     beta= 0.70
     CG style diagonalization
     ethr =  3.62E-08,  avg # of iterations =  4.1

     total cpu time spent up to now is      205.9 secs

     total energy              =    -367.43037072 Ry
     Harris-Foulkes estimate   =    -367.43037265 Ry
     estimated scf accuracy    <       0.00000480 Ry

     iteration #  8     ecut=    50.00 Ry     beta= 0.70
     CG style diagonalization
     ethr =  7.49E-09,  avg # of iterations =  3.7

     total cpu time spent up to now is      232.0 secs

     total energy              =    -367.43037167 Ry
     Harris-Foulkes estimate   =    -367.43037173 Ry
     estimated scf accuracy    <       0.00000013 Ry

     iteration #  9     ecut=    50.00 Ry     beta= 0.70
     CG style diagonalization
     ethr =  2.06E-10,  avg # of iterations =  4.3

     total cpu time spent up to now is      262.2 secs

     total energy              =    -367.43037174 Ry
     Harris-Foulkes estimate   =    -367.43037175 Ry
     estimated scf accuracy    <       0.00000002 Ry

     iteration # 10     ecut=    50.00 Ry     beta= 0.70
     CG style diagonalization
     ethr =  2.93E-11,  avg # of iterations =  3.9

     total cpu time spent up to now is      289.9 secs

     End of self-consistent calculation

          k = 0.0000 0.0000 0.0000 (  5173 PWs)   bands (ev):

   -33.7083 -33.6958 -17.0916 -17.0805 -15.1373 -15.1373 -14.7735 -14.7735
   -14.6799 -14.5711 -13.9131 -13.9131 -13.3840 -13.3840  -3.3230  -3.0503
    -1.6978  -1.5414  -1.5414  -1.2826  -1.2826  -0.4123   2.3477   2.3477
     2.7837   2.7837   2.9526   2.9526   3.5649   3.5649   3.7661   4.1926

          k =-0.1418-0.0819 0.0415 (  5137 PWs)   bands (ev):

   -33.7079 -33.6962 -17.0903 -17.0781 -15.1366 -15.0985 -14.8127 -14.7713
   -14.6950 -14.6379 -13.8869 -13.8125 -13.4336 -13.3931  -3.2730  -3.0571
    -1.6522  -1.5221  -1.5020  -1.3049  -1.2752  -0.4653   2.3723   2.4038
     2.7276   2.7688   2.8587   2.9048   3.4851   3.5034   3.8788   4.1971

          k =-0.2837-0.1638 0.0831 (  5105 PWs)   bands (ev):

   -33.7066 -33.6971 -17.1070 -17.0496 -15.1350 -15.0284 -14.9362 -14.7813
   -14.7045 -14.6810 -13.8211 -13.6538 -13.5462 -13.4208  -3.1532  -3.0588
    -1.5663  -1.4687  -1.3910  -1.3289  -1.2697  -0.5886   2.4126   2.4915
     2.6066   2.6383   2.7695   2.7790   3.3373   3.3686   4.0830   4.2097

          k =-0.4255-0.2457 0.1246 (  5101 PWs)   bands (ev):

   -33.7048 -33.6986 -17.1081 -17.0345 -15.1252 -15.0190 -15.0024 -14.8477
   -14.6821 -14.6648 -13.7408 -13.6251 -13.5652 -13.4702  -3.0325  -3.0300
    -1.5461  -1.4228  -1.2844  -1.2788  -1.2131  -0.7185   2.2786   2.3536
     2.5639   2.5869   2.7130   2.8186   3.1894   3.2230   4.2360   4.2507

          k =-0.5674-0.3276 0.1661 (  5098 PWs)   bands (ev):

   -33.7027 -33.7005 -17.0848 -17.0508 -15.0674 -15.0300 -15.0152 -14.9545
   -14.6691 -14.6536 -13.6517 -13.6078 -13.5643 -13.5492  -2.9837  -2.9714
    -1.5329  -1.4715  -1.2481  -1.2378  -1.0151  -0.8480   2.1434   2.2017
     2.5264   2.5553   2.7972   2.8488   3.1001   3.1146   4.2838   4.3126

          k =-0.1418 0.0819 0.0831 (  5127 PWs)   bands (ev):

   -33.7078 -33.6963 -17.0913 -17.0774 -15.1168 -15.1143 -14.8096 -14.7742
   -14.6897 -14.6546 -13.8504 -13.8338 -13.4204 -13.4135  -3.2706  -3.0639
    -1.6369  -1.5160  -1.5063  -1.3093  -1.2729  -0.4763   2.3729   2.4094
     2.7316   2.7360   2.8849   2.9119   3.4573   3.5200   3.8799   4.1911

          k =-0.2837-0.0000 0.1246 (  5105 PWs)   bands (ev):

   -33.7069 -33.6970 -17.1050 -17.0560 -15.1206 -15.0678 -14.8744 -14.7777
   -14.7194 -14.6846 -13.8121 -13.7153 -13.4981 -13.4279  -3.1837  -3.0715
    -1.5636  -1.4839  -1.4297  -1.3304  -1.2624  -0.5704   2.4034   2.4817
     2.6136   2.7031   2.7572   2.8565   3.3314   3.4328   4.0318   4.1968

          k =-0.4255-0.0819 0.1661 (  5094 PWs)   bands (ev):

   -33.7053 -33.6982 -17.1096 -17.0386 -15.1187 -15.0772 -14.9167 -14.8293
   -14.6882 -14.6838 -13.7400 -13.7026 -13.5081 -13.4655  -3.0700  -3.0473
    -1.5288  -1.4255  -1.3656  -1.2580  -1.2394  -0.6882   2.3390   2.4419
     2.5266   2.6038   2.7153   2.8132   3.1857   3.3037   4.2046   4.2257

          k =-0.5674-0.1638 0.2076 (  5101 PWs)   bands (ev):

   -33.7034 -33.6999 -17.0897 -17.0489 -15.1078 -15.0636 -14.9458 -14.9137
   -14.6732 -14.6627 -13.7136 -13.6561 -13.5315 -13.4887  -2.9947  -2.9871
    -1.5184  -1.4592  -1.3000  -1.2402  -1.0576  -0.7987   2.1898   2.2693
     2.5020   2.5398   2.7468   2.8311   3.1001   3.1926   4.2819   4.3016

          k = 0.5674 0.4914-0.1246 (  5117 PWs)   bands (ev):

   -33.7019 -33.7013 -17.0827 -17.0517 -15.1006 -15.0393 -15.0017 -14.9192
   -14.6754 -14.6516 -13.7063 -13.6267 -13.5556 -13.4911  -2.9869  -2.9364
    -1.5329  -1.4689  -1.2664  -1.2207  -0.9386  -0.8961   2.1230   2.1913
     2.4733   2.5344   2.7622   2.8270   3.1071   3.1423   4.2956   4.3452

          k = 0.4255 0.4095-0.0831 (  5101 PWs)   bands (ev):

   -33.7039 -33.6993 -17.1132 -17.0222 -15.1466 -15.0447 -14.9917 -14.8415
   -14.6941 -14.6399 -13.7650 -13.6327 -13.5436 -13.4599  -3.0242  -2.9539
    -1.5607  -1.4017  -1.2863  -1.2341  -1.1257  -0.7766   2.1443   2.3283
     2.4728   2.5672   2.6908   2.8608   3.1245   3.2052   4.2473   4.3391

          k = 0.2837 0.3276-0.0415 (  5094 PWs)   bands (ev):

   -33.7058 -33.6977 -17.1204 -17.0255 -15.1295 -15.0756 -14.9212 -14.8035
   -14.7092 -14.6770 -13.7578 -13.6928 -13.5067 -13.4590  -3.0577  -3.0519
    -1.5499  -1.4137  -1.3379  -1.3065  -1.2471  -0.6664   2.3270   2.4576
     2.5382   2.6293   2.6423   2.8216   3.2163   3.3217   4.2132   4.2232

          k = 0.1418 0.2457 0.0000 (  5107 PWs)   bands (ev):

   -33.7072 -33.6967 -17.1062 -17.0540 -15.1180 -15.0784 -14.8322 -14.8152
   -14.7087 -14.6912 -13.8178 -13.7260 -13.4869 -13.4244  -3.1833  -3.0627
    -1.5878  -1.4850  -1.4424  -1.3349  -1.2560  -0.5460   2.4027   2.4836
     2.6105   2.7372   2.7440   2.8134   3.3649   3.4361   4.0295   4.2060

          k =-0.2837 0.1638 0.1661 (  5098 PWs)   bands (ev):

   -33.7064 -33.6974 -17.1180 -17.0400 -15.1013 -15.0854 -14.8324 -14.8096
   -14.7506 -14.6985 -13.7517 -13.7184 -13.4929 -13.4658  -3.1292  -3.0935
    -1.5012  -1.4728  -1.4543  -1.2923  -1.2496  -0.6260   2.4165   2.4205
     2.6152   2.6310   2.7496   2.9008   3.2289   3.4298   4.0986   4.1814

          k =-0.4255 0.0819 0.2076 (  5106 PWs)   bands (ev):

   -33.7053 -33.6982 -17.1274 -17.0210 -15.1403 -15.0816 -14.8645 -14.8081
   -14.7150 -14.6983 -13.7697 -13.6943 -13.5035 -13.4546  -3.0888  -3.0329
    -1.5094  -1.4270  -1.4000  -1.2370  -1.2048  -0.7137   2.2791   2.4105
     2.5449   2.6314   2.7035   2.8937   3.0990   3.3551   4.1893   4.2350

          k =-0.5674-0.0000 0.2492 (  5107 PWs)   bands (ev):

   -33.7038 -33.6995 -17.1134 -17.0268 -15.1657 -15.0389 -14.9400 -14.8323
   -14.6955 -14.6668 -13.8111 -13.6164 -13.5591 -13.4278  -3.0323  -2.9611
    -1.5082  -1.4342  -1.3588  -1.2272  -1.0558  -0.7855   2.1549   2.3188
     2.4965   2.5498   2.6900   2.8318   3.0760   3.2672   4.2464   4.3370

          k = 0.5674 0.6552-0.0831 (  5111 PWs)   bands (ev):

   -33.7021 -33.7011 -17.0739 -17.0622 -15.1370 -15.0390 -14.9659 -14.8731
   -14.6917 -14.6688 -13.7666 -13.6555 -13.5252 -13.4452  -2.9528  -2.9487
    -1.5100  -1.4629  -1.3265  -1.2146  -0.9144  -0.8664   2.1395   2.1796
     2.4538   2.4911   2.6960   2.7507   3.1302   3.2105   4.3389   4.3471

          k = 0.4255 0.5733-0.0415 (  5104 PWs)   bands (ev):

   -33.7028 -33.7004 -17.1030 -17.0296 -15.1565 -15.0563 -14.9968 -14.7998
   -14.7096 -14.6448 -13.8054 -13.6485 -13.5298 -13.4239  -2.9948  -2.9044
    -1.5612  -1.3906  -1.3162  -1.2171  -1.0029  -0.8194   2.0953   2.2604
     2.4108   2.4960   2.6749   2.7779   3.1715   3.1889   4.2905   4.3971

          k = 0.2837 0.4914 0.0000 (  5103 PWs)   bands (ev):

   -33.7044 -33.6989 -17.1242 -17.0108 -15.1774 -15.0525 -14.9815 -14.7637
   -14.7244 -14.6363 -13.8213 -13.6473 -13.5313 -13.4231  -3.0399  -2.9458
    -1.5644  -1.3712  -1.3028  -1.2366  -1.1732  -0.7511   2.1567   2.4289
     2.4373   2.5239   2.6395   2.8493   3.1485   3.2501   4.2373   4.3532

          k =-0.4255 0.2457 0.2492 (  5104 PWs)   bands (ev):

   -33.7048 -33.6986 -17.1474 -16.9945 -15.1637 -15.1375 -14.8100 -14.7527
   -14.7300 -14.7017 -13.8058 -13.7469 -13.4675 -13.4272  -3.1213  -2.9483
    -1.5460  -1.3984  -1.3548  -1.2223  -1.1302  -0.7767   2.1402   2.3714
     2.4909   2.7004   2.7075   2.9542   2.9826   3.3396   4.1550   4.3206

          k =-0.5674 0.1638 0.2907 (  5109 PWs)   bands (ev):

   -33.7039 -33.6993 -17.1470 -16.9888 -15.2016 -15.1316 -14.8279 -14.7672
   -14.7077 -14.6558 -13.8806 -13.7255 -13.4711 -13.3901  -3.1008  -2.8810
    -1.5543  -1.4080  -1.3183  -1.2106  -1.0311  -0.8191   2.0340   2.2972
     2.4738   2.6724   2.7008   2.7994   3.0670   3.2864   4.1735   4.4034

          k = 0.5674 0.8189-0.0415 (  5115 PWs)   bands (ev):

   -33.7028 -33.7004 -17.1164 -17.0195 -15.1799 -15.0771 -14.8838 -14.8182
   -14.7198 -14.6650 -13.8429 -13.6773 -13.4991 -13.4049  -3.0215  -2.8791
    -1.5073  -1.4647  -1.3365  -1.2052  -0.9257  -0.8360   2.0284   2.2166
     2.4745   2.5634   2.6677   2.6897   3.1414   3.2415   4.2630   4.4205

          k = 0.4255 0.7370 0.0000 (  5091 PWs)   bands (ev):

   -33.7015 -33.7015 -17.0678 -17.0675 -15.1253 -15.0905 -14.9258 -14.8368
   -14.7281 -14.6702 -13.7413 -13.7346 -13.4613 -13.4581  -2.9337  -2.9332
    -1.5288  -1.4195  -1.3616  -1.2067  -0.8964  -0.8506   2.1260   2.1376
     2.4539   2.4710   2.6536   2.6903   3.1738   3.2171   4.3636   4.3672

          k =-0.5674 0.3276 0.3322 (  5099 PWs)   bands (ev):

   -33.7038 -33.6994 -17.1661 -16.9628 -15.2166 -15.2106 -14.7593 -14.7380
   -14.7064 -14.6028 -13.9300 -13.8301 -13.4078 -13.3672  -3.1374  -2.8135
    -1.5942  -1.3850  -1.2714  -1.1985  -0.9940  -0.8615   1.9375   2.2489
     2.4904   2.7201   2.7271   2.7349   3.1000   3.2639   4.1251   4.4610

          k = 0.5674 0.9827 0.0000 (  5114 PWs)   bands (ev):

   -33.7034 -33.6998 -17.1546 -16.9756 -15.2102 -15.1836 -14.7833 -14.7314
   -14.7291 -14.6290 -13.9203 -13.7860 -13.4273 -13.3708  -3.1050  -2.8141
    -1.5752  -1.4119  -1.2852  -1.1969  -0.9564  -0.8524   1.9359   2.2256
     2.4979   2.6606   2.6935   2.7024   3.1374   3.2434   4.1633   4.4693

          k =-0.0000-0.0000 0.1246 (  5164 PWs)   bands (ev):

   -33.7079 -33.6962 -17.0916 -17.0811 -15.1295 -15.1295 -14.7907 -14.7907
   -14.6762 -14.5740 -13.8910 -13.8910 -13.3968 -13.3968  -3.3202  -3.0676
    -1.6522  -1.5336  -1.5336  -1.2904  -1.2904  -0.4472   2.3610   2.3610
     2.7675   2.7675   2.9720   2.9720   3.5433   3.5433   3.7772   4.1761

          k =-0.1418-0.0819 0.1661 (  5127 PWs)   bands (ev):

   -33.7073 -33.6967 -17.0891 -17.0800 -15.1403 -15.0717 -14.8720 -14.7645
   -14.6920 -14.6211 -13.8838 -13.7673 -13.4676 -13.3966  -3.2720  -3.0777
    -1.5962  -1.5141  -1.4746  -1.3102  -1.2928  -0.5161   2.3890   2.4176
     2.7039   2.7536   2.8653   2.9557   3.4472   3.4753   3.8893   4.1757

          k =-0.2837-0.1638 0.2076 (  5104 PWs)   bands (ev):

   -33.7059 -33.6978 -17.0970 -17.0612 -15.1369 -14.9943 -14.9924 -14.7619
   -14.7178 -14.6549 -13.8226 -13.6246 -13.5808 -13.4200  -3.1671  -3.0609
    -1.5339  -1.4664  -1.3566  -1.3013  -1.2954  -0.6358   2.3997   2.5195
     2.5973   2.6280   2.7404   2.8621   3.2891   3.3359   4.0787   4.2027

          k =-0.4255-0.2457 0.2492 (  5112 PWs)   bands (ev):

   -33.7040 -33.6994 -17.0845 -17.0612 -15.1077 -15.0570 -14.9673 -14.8585
   -14.6857 -14.6581 -13.7348 -13.6355 -13.5708 -13.4640  -3.0711  -2.9997
    -1.5039  -1.4627  -1.3191  -1.2743  -1.1281  -0.7539   2.2931   2.3362
     2.5419   2.5826   2.7532   2.8454   3.1375   3.2002   4.2185   4.2608

          k = 0.7092 0.4095-0.0831 (  5113 PWs)   bands (ev):

   -33.7019 -33.7013 -17.0866 -17.0502 -15.1024 -15.0370 -14.9863 -14.9279
   -14.6814 -14.6437 -13.6839 -13.6431 -13.5591 -13.4968  -3.0283  -2.9282
    -1.5329  -1.4654  -1.2851  -1.2160  -0.9576  -0.8849   2.1221   2.2129
     2.4919   2.5903   2.7674   2.9110   3.0368   3.1332   4.2581   4.3363

          k = 0.5674 0.3276-0.0415 (  5103 PWs)   bands (ev):

   -33.7033 -33.6999 -17.1167 -17.0164 -15.1326 -15.0878 -14.9506 -14.8750
   -14.6949 -14.6275 -13.7491 -13.6366 -13.5373 -13.4738  -3.0381  -2.9148
    -1.5764  -1.3976  -1.2852  -1.2049  -1.0630  -0.8256   2.0683   2.2713
     2.4641   2.6221   2.7142   2.9405   3.0363   3.1738   4.2311   4.3656

          k = 0.4255 0.2457 0.0000 (  5086 PWs)   bands (ev):

   -33.7053 -33.6982 -17.1278 -17.0126 -15.1472 -15.0643 -14.9495 -14.8037
   -14.7086 -14.6605 -13.7806 -13.6146 -13.5691 -13.4465  -3.0629  -2.9959
    -1.5602  -1.4009  -1.2935  -1.2647  -1.2365  -0.7130   2.2174   2.4014
     2.5372   2.6316   2.6389   2.8845   3.1403   3.2895   4.2078   4.2806

          k = 0.2837 0.1638 0.0415 (  5097 PWs)   bands (ev):

   -33.7068 -33.6969 -17.1143 -17.0422 -15.1179 -15.0663 -14.8722 -14.7993
   -14.7144 -14.7042 -13.7959 -13.6863 -13.5155 -13.4362  -3.1398  -3.0700
    -1.5555  -1.4654  -1.4405  -1.3161  -1.2525  -0.5858   2.4194   2.4518
     2.6223   2.6335   2.7305   2.8361   3.3001   3.4180   4.0895   4.2023

          k =-0.1418 0.0819 0.2076 (  5115 PWs)   bands (ev):

   -33.7070 -33.6971 -17.0920 -17.0781 -15.1180 -15.0822 -14.8670 -14.7815
   -14.6788 -14.6516 -13.8262 -13.7851 -13.4567 -13.4289  -3.2647  -3.0957
    -1.5585  -1.4965  -1.4827  -1.3222  -1.2863  -0.5480   2.3922   2.4331
     2.6850   2.7187   2.9051   2.9817   3.3948   3.4940   3.8948   4.1593

          k =-0.2837-0.0000 0.2492 (  5100 PWs)   bands (ev):

   -33.7059 -33.6979 -17.1015 -17.0615 -15.1207 -15.0476 -14.9182 -14.7557
   -14.7351 -14.6693 -13.7942 -13.6893 -13.5248 -13.4410  -3.1836  -3.0943
    -1.5061  -1.4760  -1.4055  -1.3020  -1.2793  -0.6421   2.4078   2.4801
     2.6111   2.6599   2.7928   2.9362   3.2549   3.4050   4.0395   4.1722

          k =-0.4255-0.0819 0.2907 (  5103 PWs)   bands (ev):

   -33.7044 -33.6991 -17.0951 -17.0565 -15.0993 -15.0926 -14.9103 -14.8238
   -14.7117 -14.6706 -13.7423 -13.6894 -13.5251 -13.4617  -3.0892  -3.0417
    -1.4823  -1.4410  -1.3926  -1.2691  -1.1492  -0.7416   2.3295   2.3995
     2.5655   2.5935   2.7194   2.8871   3.1135   3.2777   4.1908   4.2278

          k = 0.7092 0.5733-0.0415 (  5104 PWs)   bands (ev):

   -33.7026 -33.7007 -17.0777 -17.0637 -15.1236 -15.0379 -14.9665 -14.8760
   -14.6904 -14.6635 -13.7468 -13.6168 -13.5757 -13.4567  -3.0350  -2.9510
    -1.5107  -1.4487  -1.3412  -1.2299  -0.9857  -0.8366   2.1750   2.2474
     2.4946   2.5755   2.7252   2.8727   3.0607   3.1831   4.2616   4.3178

          k = 0.5674 0.4914 0.0000 (  5108 PWs)   bands (ev):

   -33.7025 -33.7007 -17.1114 -17.0221 -15.1495 -15.0769 -14.9652 -14.8344
   -14.7012 -14.6352 -13.7878 -13.6393 -13.5424 -13.4365  -3.0339  -2.8884
    -1.5718  -1.3882  -1.3175  -1.2029  -0.9696  -0.8633   2.0521   2.2406
     2.4294   2.5959   2.7111   2.8588   3.0875   3.1696   4.2475   4.3925

          k = 0.4255 0.4095 0.0415 (  5100 PWs)   bands (ev):

   -33.7043 -33.6990 -17.1318 -17.0016 -15.1822 -15.0750 -14.9558 -14.7748
   -14.7188 -14.6285 -13.8335 -13.6207 -13.5562 -13.4161  -3.0580  -2.9186
    -1.5758  -1.3691  -1.2886  -1.2370  -1.1359  -0.7750   2.0934   2.3754
     2.4240   2.6071   2.6604   2.8942   3.0918   3.2459   4.2143   4.3714

          k = 0.2837 0.3276 0.0831 (  5105 PWs)   bands (ev):

   -33.7058 -33.6978 -17.1266 -17.0195 -15.1332 -15.0852 -14.9001 -14.7882
   -14.7205 -14.6867 -13.7695 -13.6878 -13.5091 -13.4521  -3.0721  -3.0393
    -1.5400  -1.4078  -1.3856  -1.2697  -1.2373  -0.6757   2.3019   2.4443
     2.5687   2.5871   2.6676   2.8552   3.1759   3.3489   4.2040   4.2298

          k =-0.2837 0.1638 0.2907 (  5103 PWs)   bands (ev):

   -33.7054 -33.6983 -17.1174 -17.0429 -15.1271 -15.0407 -14.8833 -14.7906
   -14.7512 -14.6813 -13.7457 -13.6983 -13.5066 -13.4792  -3.1231  -3.1209
    -1.4878  -1.4366  -1.4276  -1.2640  -1.2427  -0.7052   2.4010   2.4117
     2.6079   2.6297   2.7945   2.9726   3.1358   3.4008   4.1109   4.1523

          k =-0.4255 0.0819 0.3322 (  5109 PWs)   bands (ev):

   -33.7044 -33.6991 -17.1223 -17.0296 -15.1476 -15.0639 -14.8556 -14.8103
   -14.7396 -14.6837 -13.7637 -13.7020 -13.4946 -13.4653  -3.1038  -3.0320
    -1.4933  -1.4267  -1.3879  -1.2516  -1.1248  -0.7764   2.2674   2.3720
     2.5561   2.6573   2.7393   2.9167   3.0375   3.3258   4.1763   4.2363

          k = 0.7092 0.7370 0.0000 (  5118 PWs)   bands (ev):

   -33.7030 -33.7003 -17.1004 -17.0440 -15.1458 -15.0480 -14.8968 -14.8474
   -14.7085 -14.6971 -13.7852 -13.6425 -13.5370 -13.4412  -3.0227  -2.9767
    -1.4681  -1.4623  -1.3754  -1.2343  -0.9836  -0.8223   2.1603   2.2580
     2.5287   2.5838   2.7001   2.7960   3.0736   3.2432   4.2594   4.3194

          k = 0.5674 0.6552 0.0415 (  5095 PWs)   bands (ev):

   -33.7016 -33.7016 -17.0806 -17.0573 -15.1319 -15.0560 -14.9579 -14.8240
   -14.7198 -14.6821 -13.7725 -13.6649 -13.5192 -13.4377  -2.9778  -2.9245
    -1.5325  -1.4062  -1.3639  -1.2193  -0.8879  -0.8718   2.1141   2.1623
     2.4621   2.5381   2.6757   2.7355   3.1368   3.2028   4.3197   4.3660

          k = 0.4255 0.5733 0.0831 (  5105 PWs)   bands (ev):

   -33.7030 -33.7002 -17.1127 -17.0198 -15.1757 -15.0527 -14.9899 -14.7620
   -14.7258 -14.6456 -13.8411 -13.6290 -13.5458 -13.4039  -3.0112  -2.8876
    -1.5644  -1.3850  -1.3080  -1.2324  -0.9968  -0.8140   2.0638   2.2650
     2.4083   2.5257   2.6615   2.7721   3.1568   3.2123   4.2730   4.4139

          k = 0.2837 0.4914 0.1246 (  5107 PWs)   bands (ev):

   -33.7043 -33.6990 -17.1215 -17.0150 -15.1751 -15.0469 -14.9707 -14.7939
   -14.7056 -14.6444 -13.8204 -13.6350 -13.5420 -13.4234  -3.0380  -2.9499
    -1.5490  -1.3954  -1.3180  -1.2398  -1.1286  -0.7603   2.1556   2.3815
     2.4694   2.5275   2.6593   2.8452   3.1199   3.2621   4.2394   4.3489

          k =-0.4255 0.2457 0.3737 (  5106 PWs)   bands (ev):

   -33.7040 -33.6994 -17.1447 -17.0002 -15.1880 -15.1090 -14.7911 -14.7702
   -14.7546 -14.6674 -13.7991 -13.7813 -13.4438 -13.4354  -3.1379  -2.9411
    -1.5481  -1.3947  -1.3273  -1.2379  -1.0630  -0.8307   2.1337   2.3297
     2.5396   2.7117   2.7381   2.8611   3.0196   3.3099   4.1432   4.3250

          k = 0.7092 0.9008 0.0415 (  5118 PWs)   bands (ev):

   -33.7033 -33.6999 -17.1413 -16.9976 -15.1880 -15.1348 -14.8054 -14.7564
   -14.7259 -14.6840 -13.8426 -13.7652 -13.4432 -13.4106  -3.1040  -2.8821
    -1.5515  -1.4109  -1.3063  -1.2292  -0.9782  -0.8482   2.0382   2.2626
     2.5247   2.6849   2.7003   2.7471   3.0818   3.2587   4.1760   4.3983

          k = 0.5674 0.8189 0.0831 (  5106 PWs)   bands (ev):

   -33.7025 -33.7007 -17.1094 -17.0284 -15.1567 -15.0927 -14.8579 -14.8256
   -14.7287 -14.6907 -13.8082 -13.7029 -13.4797 -13.4232  -3.0141  -2.8877
    -1.5088  -1.4653  -1.3217  -1.2264  -0.9026  -0.8439   2.0385   2.1908
     2.5024   2.5696   2.6552   2.6797   3.1513   3.2218   4.2742   4.4095

          k = 0.4255 0.7370 0.1246 (  5104 PWs)   bands (ev):

   -33.7015 -33.7015 -17.0677 -17.0676 -15.1181 -15.1011 -14.9053 -14.8628
   -14.7084 -14.6811 -13.7396 -13.7363 -13.4605 -13.4589  -2.9336  -2.9334
    -1.5124  -1.4668  -1.3045  -1.2364  -0.8831  -0.8605   2.1288   2.1346
     2.4583   2.4669   2.6621   2.6804   3.1853   3.2069   4.3645   4.3663

          k = 0.2837 0.6552 0.1661 (  5113 PWs)   bands (ev):

   -33.7025 -33.7007 -17.0896 -17.0443 -15.1407 -15.0608 -14.9650 -14.8630
   -14.6861 -14.6573 -13.7720 -13.6653 -13.5150 -13.4449  -2.9731  -2.9271
    -1.5263  -1.4591  -1.2704  -1.2456  -0.9632  -0.8404   2.1233   2.2270
     2.4433   2.4681   2.6959   2.7601   3.1542   3.1985   4.3130   4.3738

          k = 0.7092-0.4095-0.2907 (  5104 PWs)   bands (ev):

   -33.7034 -33.6998 -17.1611 -16.9698 -15.2187 -15.1933 -14.7593 -14.7374
   -14.7294 -14.6039 -13.9011 -13.8416 -13.4011 -13.3810  -3.1361  -2.8167
    -1.5948  -1.3823  -1.2544  -1.2236  -0.9696  -0.8741   1.9476   2.2392
     2.5144   2.6701   2.7313   2.7636   3.1028   3.2390   4.1319   4.4543

          k = 0.5674-0.4914-0.2492 (  5102 PWs)   bands (ev):

   -33.7033 -33.6999 -17.1495 -16.9813 -15.2039 -15.1708 -14.8182 -14.7376
   -14.7211 -14.6310 -13.9043 -13.7646 -13.4422 -13.3770  -3.0965  -2.8231
    -1.5805  -1.4002  -1.2677  -1.2245  -0.9613  -0.8493   1.9503   2.2346
     2.4682   2.6648   2.6874   2.7393   3.1303   3.2287   4.1746   4.4598

          k = 0.4255-0.5733-0.2076 (  5113 PWs)   bands (ev):

   -33.7030 -33.7002 -17.1174 -17.0164 -15.1856 -15.0644 -14.9413 -14.7894
   -14.7078 -14.6547 -13.8563 -13.6446 -13.5289 -13.3969  -3.0204  -2.8790
    -1.5398  -1.4350  -1.2949  -1.2350  -0.9601  -0.8233   2.0386   2.2449
     2.4351   2.5489   2.6608   2.7368   3.1456   3.2346   4.2629   4.4220

          k = 0.5674-0.3276-0.2076 (  5101 PWs)   bands (ev):

   -33.7039 -33.6993 -17.1597 -16.9690 -15.2063 -15.1930 -14.8001 -14.7342
   -14.7327 -14.6004 -13.9067 -13.7830 -13.4339 -13.3789  -3.1197  -2.8305
    -1.5968  -1.3723  -1.2567  -1.2274  -1.0272  -0.8406   1.9567   2.2838
     2.4365   2.6957   2.7168   2.8300   3.0746   3.2548   4.1434   4.4461

          k = 0.4255-0.4095-0.1661 (  5110 PWs)   bands (ev):

   -33.7043 -33.6990 -17.1435 -16.9900 -15.2009 -15.1105 -14.8924 -14.7503
   -14.7199 -14.6340 -13.8770 -13.6725 -13.5119 -13.3920  -3.0846  -2.8934
    -1.5682  -1.3876  -1.2980  -1.2315  -1.0870  -0.7919   2.0537   2.3523
     2.4259   2.6407   2.6773   2.8738   3.0650   3.2791   4.1876   4.3940

          k = 0.4255-0.2457-0.1246 (  5098 PWs)   bands (ev):

   -33.7052 -33.6982 -17.1414 -16.9987 -15.1513 -15.1212 -14.8762 -14.7542
   -14.7336 -14.6797 -13.8056 -13.6809 -13.5134 -13.4287  -3.0948  -2.9668
    -1.5536  -1.3978  -1.3439  -1.2373  -1.1877  -0.7347   2.1689   2.4270
     2.4656   2.6543   2.6815   2.9399   3.0569   3.3311   4.1786   4.3050

          k =-0.0000-0.0000 0.2492 (  5121 PWs)   bands (ev):

   -33.7068 -33.6973 -17.0913 -17.0828 -15.1066 -15.1066 -14.8361 -14.8361
   -14.6656 -14.5824 -13.8314 -13.8314 -13.4342 -13.4342  -3.3109  -3.1117
    -1.5257  -1.5110  -1.5110  -1.3130  -1.3130  -0.5487   2.3992   2.3992
     2.7265   2.7265   3.0230   3.0230   3.4827   3.4827   3.8095   4.1306

          k =-0.1418-0.0819 0.2907 (  5119 PWs)   bands (ev):

   -33.7060 -33.6980 -17.0879 -17.0830 -15.1277 -15.0352 -14.9353 -14.7938
   -14.6783 -14.6139 -13.8418 -13.7061 -13.5196 -13.4235  -3.2656  -3.1169
    -1.5088  -1.4934  -1.4045  -1.3232  -1.3199  -0.6248   2.4207   2.4500
     2.6705   2.6941   2.9248   3.0306   3.3605   3.4288   3.9122   4.1329

          k =-0.2837-0.1638 0.3322 (  5107 PWs)   bands (ev):

   -33.7047 -33.6991 -17.0853 -17.0754 -15.1300 -15.0298 -14.9679 -14.7508
   -14.7359 -14.6392 -13.8055 -13.6101 -13.6028 -13.4316  -3.1775  -3.0726
    -1.4740  -1.4641  -1.3638  -1.3217  -1.2069  -0.7257   2.3880   2.5091
     2.5961   2.6198   2.7523   2.9775   3.1896   3.2992   4.0780   4.1857

          k = 0.8511 0.4914 0.0000 (  5116 PWs)   bands (ev):

   -33.7030 -33.7005 -17.0889 -17.0593 -15.1449 -15.0112 -14.9891 -14.8162
   -14.7124 -14.6413 -13.7797 -13.6208 -13.5839 -13.4372  -3.1054  -2.9745
    -1.5031  -1.4381  -1.3475  -1.2670  -1.0417  -0.8163   2.2325   2.3558
     2.5401   2.6171   2.7013   2.9787   3.0386   3.1825   4.1875   4.2831

          k = 0.7092 0.4095 0.0415 (  5122 PWs)   bands (ev):

   -33.7021 -33.7011 -17.1192 -17.0169 -15.1598 -15.1031 -14.8977 -14.8499
   -14.7061 -14.6224 -13.7566 -13.7399 -13.4799 -13.4468  -3.0784  -2.8781
    -1.5731  -1.3818  -1.3281  -1.2053  -0.9227  -0.9123   2.0464   2.2538
     2.4581   2.6528   2.7123   2.9403   3.0204   3.1516   4.2059   4.3858

          k = 0.5674 0.3276 0.0831 (  5097 PWs)   bands (ev):

   -33.7037 -33.6995 -17.1426 -16.9877 -15.1800 -15.1491 -14.8700 -14.7961
   -14.7177 -14.6081 -13.8399 -13.7138 -13.4779 -13.4151  -3.0852  -2.8657
    -1.5952  -1.3551  -1.2842  -1.2201  -1.0612  -0.8242   2.0026   2.3096
     2.4164   2.6785   2.6848   2.9418   3.0206   3.2208   4.1818   4.4122

          k =-0.1418 0.0819 0.3322 (  5106 PWs)   bands (ev):

   -33.7056 -33.6985 -17.0920 -17.0798 -15.1087 -15.0347 -14.9318 -14.8242
   -14.6630 -14.6394 -13.7905 -13.7047 -13.5194 -13.4578  -3.2531  -3.1407
    -1.4944  -1.4667  -1.3936  -1.3214  -1.3137  -0.6746   2.4302   2.4718
     2.6337   2.6780   2.9614   3.0636   3.3064   3.4300   3.9249   4.1096

          k =-0.2837-0.0000 0.3737 (  5092 PWs)   bands (ev):

   -33.7045 -33.6993 -17.0957 -17.0696 -15.1118 -15.0427 -14.9321 -14.8003
   -14.7034 -14.6584 -13.7635 -13.6683 -13.5472 -13.4659  -3.1798  -3.1230
    -1.4631  -1.4459  -1.3982  -1.3105  -1.2051  -0.7563   2.4202   2.4794
     2.5929   2.6287   2.8554   3.0249   3.1651   3.3442   4.0540   4.1392

          k = 0.8511 0.6552 0.0415 (  5112 PWs)   bands (ev):

   -33.7032 -33.7004 -17.0782 -17.0764 -15.1151 -15.0732 -14.9096 -14.7967
   -14.7350 -14.6718 -13.7546 -13.6717 -13.5381 -13.4578  -3.1051  -3.0387
    -1.4705  -1.4099  -1.4061  -1.2855  -1.0517  -0.8229   2.3057   2.3664
     2.5999   2.6052   2.7195   2.9389   3.0824   3.2262   4.1784   4.2291

          k = 0.7092 0.5733 0.0831 (  5107 PWs)   bands (ev):

   -33.7016 -33.7016 -17.1048 -17.0378 -15.1489 -15.0708 -14.9232 -14.8076
   -14.7152 -14.6707 -13.7765 -13.6928 -13.5110 -13.4358  -3.0694  -2.9194
    -1.5407  -1.3780  -1.3662  -1.2393  -0.9253  -0.8822   2.1155   2.2513
     2.5114   2.6244   2.6878   2.8513   3.0959   3.1624   4.2247   4.3514

          k = 0.5674 0.4914 0.1246 (  5107 PWs)   bands (ev):

   -33.7030 -33.7002 -17.1345 -16.9975 -15.1840 -15.1340 -14.8886 -14.7612
   -14.7235 -14.6298 -13.8577 -13.7095 -13.4832 -13.3981  -3.0719  -2.8490
    -1.5851  -1.3693  -1.2967  -1.2258  -0.9719  -0.8487   1.9912   2.2507
     2.4288   2.6441   2.6872   2.8147   3.1084   3.1971   4.2050   4.4327

          k =-0.2837 0.1638 0.4153 (  5096 PWs)   bands (ev):

   -33.7040 -33.6997 -17.1123 -17.0503 -15.1400 -14.9915 -14.9409 -14.8172
   -14.7159 -14.6604 -13.7642 -13.6467 -13.5534 -13.4717  -3.1511  -3.1126
    -1.4881  -1.4156  -1.3780  -1.2964  -1.1397  -0.8167   2.3901   2.4185
     2.6032   2.6228   2.8561   3.0388   3.0509   3.3347   4.1227   4.1264

          k = 0.8511 0.8189 0.0831 (  5108 PWs)   bands (ev):

   -33.7032 -33.7004 -17.1115 -17.0434 -15.1461 -15.0501 -14.8773 -14.8041
   -14.7342 -14.6845 -13.7613 -13.6952 -13.5041 -13.4665  -3.1131  -3.0339
    -1.4938  -1.4175  -1.3515  -1.2872  -1.0283  -0.8583   2.2686   2.3502
     2.5788   2.6510   2.7866   2.8663   3.0719   3.2614   4.1694   4.2346

          k = 0.7092 0.7370 0.1246 (  5108 PWs)   bands (ev):

   -33.7021 -33.7012 -17.0833 -17.0638 -15.1152 -15.0786 -14.8562 -14.8421
   -14.7302 -14.7249 -13.7432 -13.6923 -13.4989 -13.4653  -3.0096  -2.9938
    -1.4731  -1.4677  -1.3307  -1.2721  -0.9200  -0.8668   2.1773   2.2096
     2.5709   2.6000   2.7036   2.7406   3.1239   3.1905   4.2776   4.2987

          k = 0.5674 0.6552 0.1661 (  5107 PWs)   bands (ev):

   -33.7021 -33.7011 -17.0970 -17.0415 -15.1273 -15.0988 -14.9055 -14.7980
   -14.7262 -14.7075 -13.7796 -13.6986 -13.4899 -13.4342  -2.9991  -2.9034
    -1.5286  -1.4416  -1.2915  -1.2648  -0.8913  -0.8535   2.0689   2.1725
     2.4882   2.5673   2.6575   2.7010   3.1672   3.1879   4.2943   4.3906

          k = 0.8511-0.4914-0.2492 (  5104 PWs)   bands (ev):

   -33.7029 -33.7005 -17.1333 -17.0144 -15.1925 -15.0710 -14.8657 -14.7685
   -14.7368 -14.6438 -13.8245 -13.7370 -13.4778 -13.4194  -3.1412  -2.9441
    -1.5470  -1.3849  -1.2918  -1.2876  -0.9838  -0.8921   2.1484   2.3198
     2.5802   2.6929   2.7129   2.8590   3.0573   3.2447   4.1458   4.3183

          k = 0.7092-0.5733-0.2076 (  5112 PWs)   bands (ev):

   -33.7025 -33.7007 -17.1268 -17.0149 -15.1691 -15.1140 -14.8539 -14.7528
   -14.7297 -14.6925 -13.7836 -13.7747 -13.4519 -13.4311  -3.0933  -2.8956
    -1.5522  -1.3999  -1.2878  -1.2704  -0.9294  -0.8806   2.0665   2.2505
     2.5428   2.6508   2.6816   2.7886   3.1055   3.1993   4.1945   4.3798

          k = 0.7092-0.4095-0.1661 (  5107 PWs)   bands (ev):

   -33.7028 -33.7004 -17.1449 -16.9888 -15.1994 -15.1566 -14.8096 -14.7881
   -14.7232 -14.6086 -13.8313 -13.8140 -13.4192 -13.4143  -3.1158  -2.8393
    -1.5916  -1.3638  -1.2922  -1.2231  -0.9495  -0.8860   1.9856   2.2511
     2.4782   2.6815   2.7032   2.8396   3.0851   3.1882   4.1613   4.4274

          k =-0.0000 0.0000 0.3737 (  5112 PWs)   bands (ev):

   -33.7052 -33.6989 -17.0907 -17.0852 -15.0695 -15.0695 -14.8966 -14.8966
   -14.6499 -14.5956 -13.7491 -13.7491 -13.4935 -13.4935  -3.2925  -3.1669
    -1.4766  -1.4766  -1.3475  -1.3475  -1.3418  -0.7074   2.4572   2.4572
     2.6691   2.6691   3.0970   3.0970   3.3939   3.3939   3.8596   4.0662

          k =-0.1418-0.0819 0.4153 (  5100 PWs)   bands (ev):

   -33.7043 -33.6997 -17.0863 -17.0862 -15.0998 -14.9934 -14.9905 -14.8462
   -14.6605 -14.6170 -13.7723 -13.6379 -13.5845 -13.4713  -3.2505  -3.1617
    -1.4637  -1.4471  -1.3657  -1.3621  -1.2278  -0.7820   2.4644   2.4981
     2.6252   2.6282   3.0044   3.1245   3.2563   3.3524   3.9485   4.0782

          k = 0.9929 0.5733 0.0831 (  5102 PWs)   bands (ev):

   -33.7031 -33.7006 -17.0899 -17.0728 -15.1309 -15.0301 -14.9512 -14.7935
   -14.7122 -14.6355 -13.7852 -13.6188 -13.5946 -13.4495  -3.1799  -3.0879
    -1.4682  -1.4066  -1.3771  -1.3417  -1.0846  -0.8512   2.3826   2.4767
     2.5912   2.6160   2.8159   3.0833   3.0935   3.2416   4.0839   4.1651

          k = 0.8511 0.4914 0.1246 (  5109 PWs)   bands (ev):

   -33.7017 -33.7017 -17.1140 -17.0350 -15.1774 -15.0291 -14.9419 -14.7765
   -14.7319 -14.6355 -13.8163 -13.6805 -13.5264 -13.4203  -3.1300  -2.9557
    -1.5326  -1.3693  -1.3603  -1.2706  -0.9620  -0.8973   2.1824   2.3357
     2.5793   2.6577   2.6774   2.9382   3.0701   3.1760   4.1617   4.3031

          k =-0.1418 0.0819 0.4568 (  5094 PWs)   bands (ev):

   -33.7037 -33.7003 -17.0911 -17.0821 -15.0865 -14.9942 -14.9781 -14.8776
   -14.6450 -14.6365 -13.7341 -13.6219 -13.5956 -13.5034  -3.2329  -3.1864
    -1.4543  -1.4313  -1.3910  -1.3517  -1.1699  -0.8441   2.4843   2.5179
     2.5812   2.6229   3.0432   3.1560   3.2052   3.3388   3.9683   4.0524

          k = 0.9929 0.7370 0.1246 (  5103 PWs)   bands (ev):

   -33.7028 -33.7010 -17.0879 -17.0789 -15.0926 -15.0655 -14.9021 -14.8528
   -14.6765 -14.6604 -13.7233 -13.6834 -13.5351 -13.5002  -3.1690  -3.1496
    -1.4423  -1.4256  -1.3831  -1.3452  -1.0606  -0.9019   2.4422   2.4671
     2.5862   2.6032   2.9384   3.0277   3.1638   3.2577   4.0761   4.1054

          k = 0.8511 0.6552 0.1661 (  5100 PWs)   bands (ev):

   -33.7018 -33.7018 -17.0956 -17.0604 -15.1342 -15.0537 -14.8978 -14.7991
   -14.7270 -14.6848 -13.7609 -13.6775 -13.5275 -13.4598  -3.1137  -3.0364
    -1.4864  -1.4141  -1.3424  -1.3126  -0.9526  -0.9231   2.2823   2.3491
     2.6010   2.6257   2.7656   2.8826   3.1348   3.1828   4.1704   4.2316

          k = 0.9929-0.5733-0.2076 (  5103 PWs)   bands (ev):

   -33.7024 -33.7014 -17.1028 -17.0607 -15.1394 -14.9940 -14.9552 -14.8228
   -14.7028 -14.6434 -13.7740 -13.6088 -13.5963 -13.4640  -3.1711  -3.1019
    -1.4788  -1.3951  -1.3563  -1.3448  -0.9973  -0.9487   2.3840   2.4418
     2.5953   2.6171   2.8851   2.9990   3.1242   3.2476   4.0988   4.1447

          k =-0.0000-0.0000 0.4983 (  5100 PWs)   bands (ev):

   -33.7031 -33.7010 -17.0895 -17.0875 -15.0197 -15.0197 -14.9604 -14.9604
   -14.6314 -14.6125 -13.6583 -13.6583 -13.5704 -13.5704  -3.2624  -3.2196
    -1.4344  -1.4344  -1.3896  -1.3896  -1.1269  -0.9073   2.5273   2.5273
     2.6006   2.6006   3.1887   3.1887   3.2913   3.2913   3.9229   3.9939

          k = 1.1348 0.6552 0.1661 (  5110 PWs)   bands (ev):

   -33.7023 -33.7017 -17.0891 -17.0843 -15.0668 -15.0324 -14.9444 -14.9034
   -14.6448 -14.6285 -13.6982 -13.6468 -13.5770 -13.5302  -3.2242  -3.2021
    -1.4339  -1.4010  -1.4010  -1.3912  -1.0377  -0.9715   2.5142   2.5410
     2.5705   2.5812   3.0940   3.1521   3.2233   3.2646   3.9966   4.0211

     highest occupied level (ev):     4.4693

!    total energy              =    -367.43037174 Ry
     Harris-Foulkes estimate   =    -367.43037174 Ry
     estimated scf accuracy    <          5.7E-09 Ry

     The total energy is the sum of the following terms:

     one-electron contribution =    -148.27715498 Ry
     hartree contribution      =     103.50117316 Ry
     xc contribution           =     -75.26597932 Ry
     ewald contribution        =    -247.38841059 Ry

     convergence has been achieved in  10 iterations

     Forces acting on atoms (cartesian axes, Ry/au):

     atom    1 type  1   force =    -0.00000000   -0.00000000   -0.00000000
     atom    2 type  1   force =     0.00000000    0.00000000   -0.00000000
     atom    3 type  2   force =    -0.00000000   -0.00000000    0.00000000
     atom    4 type  2   force =     0.00000000   -0.00000000   -0.00000000
     atom    5 type  3   force =    -0.00007177    0.00012432    0.00000000
     atom    6 type  3   force =     0.00014355   -0.00000000    0.00000000
     atom    7 type  3   force =    -0.00007177   -0.00012432   -0.00000000
     atom    8 type  3   force =    -0.00014355    0.00000000   -0.00000000
     atom    9 type  3   force =     0.00007177    0.00012432    0.00000000
     atom   10 type  3   force =     0.00007177   -0.00012432   -0.00000000

     Total force =     0.000352     Total SCF correction =     0.000005


     Computing stress (Cartesian axis) and pressure

          total   stress  (Ry/bohr**3)                   (kbar)     P=   -1.57
  -0.00001257   0.00000000   0.00000000         -1.85      0.00      0.00
   0.00000000  -0.00001257  -0.00000000          0.00     -1.85     -0.00
   0.00000000  -0.00000000  -0.00000688          0.00     -0.00     -1.01


     BFGS Geometry Optimization

     number of scf cycles    =   1
     number of bfgs steps    =   0

     enthalpy new            =    -367.4303717376 Ry

     new trust radius        =       0.0018380120 bohr
     new conv_thr            =       0.0000000100 Ry

     new unit-cell volume =    854.56158 a.u.^3 (   126.63296 Ang^3 )
     density =      2.62493 g/cm^3

CELL_PARAMETERS (alat= 12.17460000)
   0.391540041  -0.226055748   0.891735948
  -0.000000000   0.452111496   0.891735948
  -0.391540041  -0.226055748   0.891735948

ATOMIC_POSITIONS (crystal)
Ca       0.500000000   0.500000000   0.500000000
Ca       0.000000000   0.000000000  -0.000000000
C        0.250000000   0.250000000   0.250000000
C        0.750000000   0.750000000   0.750000000
O        0.507001903   0.992998097   0.250000000
O        0.992998097   0.250000000   0.507001903
O        0.250000000   0.507001903   0.992998097
O        0.007001903   0.750000000   0.492998097
O        0.750000000   0.492998097   0.007001903
O        0.492998097   0.007001903   0.750000000



     Writing output data file CCO.save/
     NEW-OLD atomic charge density approx. for the potential

     Check: negative core charge=   -0.000003
     extrapolated charge   63.94875, renormalised to   64.00000

     total cpu time spent up to now is      293.4 secs

     Self-consistent Calculation

     iteration #  1     ecut=    50.00 Ry     beta= 0.70
     CG style diagonalization
     ethr =  1.00E-06,  avg # of iterations =  2.3

     total cpu time spent up to now is      310.8 secs

     total energy              =    -367.43022908 Ry
     Harris-Foulkes estimate   =    -367.52217544 Ry
     estimated scf accuracy    <       0.00010283 Ry

     iteration #  2     ecut=    50.00 Ry     beta= 0.70
     CG style diagonalization
     ethr =  1.61E-07,  avg # of iterations =  5.0

     total cpu time spent up to now is      346.3 secs

     total energy              =    -367.43036545 Ry
     Harris-Foulkes estimate   =    -367.43047627 Ry
     estimated scf accuracy    <       0.00030566 Ry

     iteration #  3     ecut=    50.00 Ry     beta= 0.70
     CG style diagonalization
     ethr =  1.61E-07,  avg # of iterations =  3.8

     total cpu time spent up to now is      373.1 secs

     total energy              =    -367.43037910 Ry
     Harris-Foulkes estimate   =    -367.43038813 Ry
     estimated scf accuracy    <       0.00003698 Ry

     iteration #  4     ecut=    50.00 Ry     beta= 0.70
     CG style diagonalization
     ethr =  5.78E-08,  avg # of iterations =  3.0

     total cpu time spent up to now is      394.6 secs

     total energy              =    -367.43037530 Ry
     Harris-Foulkes estimate   =    -367.43038015 Ry
     estimated scf accuracy    <       0.00001709 Ry

     iteration #  5     ecut=    50.00 Ry     beta= 0.70
     CG style diagonalization
     ethr =  2.67E-08,  avg # of iterations =  3.1

     total cpu time spent up to now is      416.5 secs

     total energy              =    -367.43037446 Ry
     Harris-Foulkes estimate   =    -367.43037623 Ry
     estimated scf accuracy    <       0.00000452 Ry

     iteration #  6     ecut=    50.00 Ry     beta= 0.70
     CG style diagonalization
     ethr =  7.06E-09,  avg # of iterations =  3.5

     total cpu time spent up to now is      441.9 secs

     total energy              =    -367.43037502 Ry
     Harris-Foulkes estimate   =    -367.43037506 Ry
     estimated scf accuracy    <       0.00000019 Ry

     iteration #  7     ecut=    50.00 Ry     beta= 0.70
     CG style diagonalization
     ethr =  3.01E-10,  avg # of iterations =  3.9

     total cpu time spent up to now is      469.8 secs

     total energy              =    -367.43037510 Ry
     Harris-Foulkes estimate   =    -367.43037508 Ry
     estimated scf accuracy    <       0.00000018 Ry

     iteration #  8     ecut=    50.00 Ry     beta= 0.70
     CG style diagonalization
     ethr =  2.80E-10,  avg # of iterations =  3.0

     total cpu time spent up to now is      491.4 secs

     total energy              =    -367.43037499 Ry
     Harris-Foulkes estimate   =    -367.43037510 Ry
     estimated scf accuracy    <       0.00000021 Ry

     iteration #  9     ecut=    50.00 Ry     beta= 0.70
     CG style diagonalization
     ethr =  2.80E-10,  avg # of iterations =  3.7

     total cpu time spent up to now is      517.7 secs

     End of self-consistent calculation

          k = 0.0000 0.0000 0.0000 (  5173 PWs)   bands (ev):

   -33.6976 -33.6851 -17.0916 -17.0809 -15.1293 -15.1293 -14.7632 -14.7632
   -14.6693 -14.5612 -13.9101 -13.9101 -13.3784 -13.3784  -3.3158  -3.0420
    -1.6961  -1.5370  -1.5370  -1.2773  -1.2773  -0.4098   2.3535   2.3535
     2.7900   2.7900   2.9597   2.9597   3.5718   3.5718   3.7740   4.2009

          k =-0.1419-0.0819 0.0415 (  5137 PWs)   bands (ev):

   -33.6972 -33.6854 -17.0906 -17.0780 -15.1286 -15.0904 -14.8030 -14.7612
   -14.6845 -14.6283 -13.8836 -13.8085 -13.4281 -13.3875  -3.2657  -3.0489
    -1.6504  -1.5177  -1.4975  -1.2997  -1.2699  -0.4629   2.3783   2.4098
     2.7339   2.7751   2.8657   2.9119   3.4919   3.5103   3.8868   4.2055

          k =-0.2838-0.1638 0.0831 (  5105 PWs)   bands (ev):

   -33.6959 -33.6864 -17.1072 -17.0496 -15.1270 -15.0200 -14.9276 -14.7716
   -14.6942 -14.6710 -13.8172 -13.6487 -13.5411 -13.4152  -3.1456  -3.0506
    -1.5637  -1.4641  -1.3868  -1.3241  -1.2645  -0.5862   2.4188   2.4977
     2.6133   2.6446   2.7763   2.7853   3.3439   3.3753   4.0911   4.2180

          k =-0.4257-0.2458 0.1246 (  5101 PWs)   bands (ev):

   -33.6941 -33.6879 -17.1083 -17.0346 -15.1174 -15.0108 -14.9939 -14.8386
   -14.6720 -14.6547 -13.7364 -13.6203 -13.5598 -13.4646  -3.0246  -3.0219
    -1.5423  -1.4181  -1.2796  -1.2738  -1.2099  -0.7159   2.2848   2.3599
     2.5706   2.5935   2.7191   2.8248   3.1958   3.2296   4.2443   4.2590

          k =-0.5676-0.3277 0.1661 (  5098 PWs)   bands (ev):

   -33.6920 -33.6898 -17.0849 -17.0510 -15.0594 -15.0218 -15.0068 -14.9461
   -14.6590 -14.6435 -13.6467 -13.6028 -13.5590 -13.5438  -2.9756  -2.9633
    -1.5288  -1.4671  -1.2431  -1.2328  -1.0121  -0.8452   2.1495   2.2078
     2.5330   2.5619   2.8035   2.8551   3.1065   3.1210   4.2921   4.3211

          k =-0.1419 0.0819 0.0831 (  5127 PWs)   bands (ev):

   -33.6971 -33.6855 -17.0916 -17.0774 -15.1087 -15.1063 -14.7999 -14.7640
   -14.6792 -14.6454 -13.8468 -13.8299 -13.4149 -13.4081  -3.2633  -3.0557
    -1.6350  -1.5115  -1.5018  -1.3041  -1.2676  -0.4738   2.3788   2.4153
     2.7381   2.7423   2.8920   2.9188   3.4641   3.5269   3.8879   4.1995

          k =-0.2838-0.0000 0.1246 (  5105 PWs)   bands (ev):

   -33.6962 -33.6862 -17.1053 -17.0561 -15.1126 -15.0597 -14.8654 -14.7681
   -14.7094 -14.6745 -13.8082 -13.7107 -13.4928 -13.4224  -3.1762  -3.0634
    -1.5612  -1.4794  -1.4251  -1.3256  -1.2572  -0.5679   2.4095   2.4879
     2.6200   2.7096   2.7639   2.8631   3.3380   3.4396   4.0399   4.2051

          k =-0.4257-0.0819 0.1661 (  5094 PWs)   bands (ev):

   -33.6946 -33.6875 -17.1098 -17.0387 -15.1108 -15.0692 -14.9078 -14.8202
   -14.6780 -14.6736 -13.7356 -13.6981 -13.5026 -13.4600  -3.0623  -3.0392
    -1.5251  -1.4210  -1.3609  -1.2529  -1.2358  -0.6857   2.3452   2.4485
     2.5329   2.6104   2.7216   2.8193   3.1922   3.3103   4.2129   4.2340

          k =-0.5676-0.1638 0.2077 (  5101 PWs)   bands (ev):

   -33.6926 -33.6892 -17.0898 -17.0490 -15.1000 -15.0555 -14.9372 -14.9049
   -14.6631 -14.6525 -13.7090 -13.6512 -13.5261 -13.4831  -2.9867  -2.9789
    -1.5143  -1.4547  -1.2953  -1.2351  -1.0543  -0.7960   2.1959   2.2756
     2.5084   2.5464   2.7530   2.8373   3.1065   3.1990   4.2903   4.3100

          k = 0.5676 0.4915-0.1246 (  5117 PWs)   bands (ev):

   -33.6912 -33.6905 -17.0828 -17.0518 -15.0927 -15.0312 -14.9933 -14.9104
   -14.6652 -14.6415 -13.7016 -13.6217 -13.5503 -13.4855  -2.9788  -2.9282
    -1.5287  -1.4646  -1.2615  -1.2156  -0.9358  -0.8931   2.1290   2.1975
     2.4797   2.5410   2.7684   2.8332   3.1135   3.1487   4.3040   4.3537

          k = 0.4257 0.4096-0.0831 (  5101 PWs)   bands (ev):

   -33.6932 -33.6886 -17.1133 -17.0224 -15.1389 -15.0365 -14.9832 -14.8324
   -14.6839 -14.6297 -13.7608 -13.6277 -13.5384 -13.4541  -3.0161  -2.9458
    -1.5566  -1.3971  -1.2814  -1.2291  -1.1228  -0.7740   2.1504   2.3346
     2.4793   2.5737   2.6969   2.8670   3.1309   3.2117   4.2556   4.3476

          k = 0.2838 0.3277-0.0415 (  5094 PWs)   bands (ev):

   -33.6951 -33.6870 -17.1206 -17.0257 -15.1217 -15.0675 -14.9124 -14.7944
   -14.6990 -14.6668 -13.7535 -13.6882 -13.5013 -13.4534  -3.0497  -3.0440
    -1.5463  -1.4092  -1.3332  -1.3029  -1.2419  -0.6639   2.3332   2.4640
     2.5447   2.6361   2.6484   2.8278   3.2228   3.3284   4.2215   4.2315

          k = 0.1419 0.2458 0.0000 (  5107 PWs)   bands (ev):

   -33.6965 -33.6859 -17.1064 -17.0541 -15.1100 -15.0703 -14.8227 -14.8063
   -14.6983 -14.6813 -13.8139 -13.7214 -13.4816 -13.4189  -3.1758  -3.0546
    -1.5856  -1.4806  -1.4378  -1.3299  -1.2507  -0.5436   2.4088   2.4897
     2.6168   2.7438   2.7505   2.8201   3.3715   3.4429   4.0376   4.2143

          k =-0.2838 0.1638 0.1661 (  5098 PWs)   bands (ev):

   -33.6957 -33.6866 -17.1182 -17.0401 -15.0933 -15.0773 -14.8235 -14.8006
   -14.7406 -14.6880 -13.7473 -13.7139 -13.4875 -13.4604  -3.1216  -3.0855
    -1.4986  -1.4684  -1.4497  -1.2876  -1.2443  -0.6236   2.4226   2.4268
     2.6214   2.6375   2.7565   2.9072   3.2355   3.4366   4.1068   4.1896

          k =-0.4257 0.0819 0.2077 (  5106 PWs)   bands (ev):

   -33.6946 -33.6875 -17.1276 -17.0211 -15.1325 -15.0736 -14.8556 -14.7988
   -14.7050 -14.6880 -13.7655 -13.6897 -13.4980 -13.4490  -3.0809  -3.0251
    -1.5050  -1.4230  -1.3959  -1.2319  -1.2008  -0.7113   2.2853   2.4168
     2.5512   2.6379   2.7101   2.9000   3.1054   3.3618   4.1976   4.2434

          k =-0.5676-0.0000 0.2492 (  5107 PWs)   bands (ev):

   -33.6931 -33.6888 -17.1135 -17.0269 -15.1581 -15.0308 -14.9316 -14.8228
   -14.6852 -14.6566 -13.8072 -13.6114 -13.5538 -13.4220  -3.0242  -2.9530
    -1.5039  -1.4297  -1.3547  -1.2221  -1.0523  -0.7829   2.1610   2.3251
     2.5029   2.5562   2.6963   2.8380   3.0824   3.2738   4.2547   4.3455

          k = 0.5676 0.6554-0.0831 (  5111 PWs)   bands (ev):

   -33.6913 -33.6904 -17.0740 -17.0623 -15.1292 -15.0310 -14.9574 -14.8640
   -14.6815 -14.6586 -13.7623 -13.6505 -13.5197 -13.4394  -2.9447  -2.9405
    -1.5057  -1.4585  -1.3221  -1.2095  -0.9112  -0.8635   2.1457   2.1858
     2.4600   2.4975   2.7021   2.7568   3.1367   3.2171   4.3474   4.3556

          k = 0.4257 0.5734-0.0415 (  5104 PWs)   bands (ev):

   -33.6921 -33.6896 -17.1031 -17.0297 -15.1489 -15.0482 -14.9883 -14.7905
   -14.6993 -14.6347 -13.8013 -13.6436 -13.5244 -13.4180  -2.9867  -2.8961
    -1.5570  -1.3862  -1.3114  -1.2120  -1.0000  -0.8164   2.1013   2.2667
     2.4170   2.5023   2.6810   2.7840   3.1780   3.1955   4.2989   4.4057

          k = 0.2838 0.4915 0.0000 (  5103 PWs)   bands (ev):

   -33.6937 -33.6881 -17.1243 -17.0110 -15.1698 -15.0443 -14.9730 -14.7543
   -14.7139 -14.6262 -13.8174 -13.6424 -13.5260 -13.4172  -3.0319  -2.9377
    -1.5603  -1.3666  -1.2978  -1.2314  -1.1704  -0.7486   2.1627   2.4354
     2.4437   2.5302   2.6455   2.8555   3.1549   3.2567   4.2456   4.3617

          k =-0.4257 0.2458 0.2492 (  5104 PWs)   bands (ev):

   -33.6941 -33.6879 -17.1475 -16.9947 -15.1559 -15.1299 -14.8005 -14.7424
   -14.7209 -14.6913 -13.8017 -13.7429 -13.4618 -13.4214  -3.1135  -2.9402
    -1.5413  -1.3937  -1.3515  -1.2172  -1.1261  -0.7743   2.1462   2.3777
     2.4971   2.7070   2.7142   2.9604   2.9889   3.3463   4.1632   4.3291

          k =-0.5676 0.1638 0.2907 (  5109 PWs)   bands (ev):

   -33.6932 -33.6886 -17.1470 -16.9890 -15.1940 -15.1240 -14.8185 -14.7571
   -14.6973 -14.6460 -13.8771 -13.7212 -13.4654 -13.3842  -3.0930  -2.8728
    -1.5497  -1.4036  -1.3145  -1.2054  -1.0274  -0.8165   2.0399   2.3034
     2.4799   2.6790   2.7074   2.8055   3.0735   3.2930   4.1817   4.4120

          k = 0.5676 0.8192-0.0415 (  5115 PWs)   bands (ev):

   -33.6921 -33.6896 -17.1164 -17.0197 -15.1723 -15.0693 -14.8749 -14.8089
   -14.7094 -14.6549 -13.8390 -13.6726 -13.4935 -13.3990  -3.0134  -2.8708
    -1.5026  -1.4605  -1.3326  -1.2000  -0.9223  -0.8331   2.0344   2.2228
     2.4806   2.5697   2.6740   2.6957   3.1480   3.2481   4.2713   4.4290

          k = 0.4257 0.7373 0.0000 (  5091 PWs)   bands (ev):

   -33.6908 -33.6908 -17.0679 -17.0677 -15.1175 -15.0828 -14.9170 -14.8283
   -14.7177 -14.6599 -13.7368 -13.7300 -13.4556 -13.4524  -2.9255  -2.9250
    -1.5246  -1.4147  -1.3576  -1.2015  -0.8935  -0.8473   2.1322   2.1438
     2.4600   2.4773   2.6597   2.6964   3.1804   3.2237   4.3721   4.3757

          k =-0.5676 0.3277 0.3323 (  5099 PWs)   bands (ev):

   -33.6931 -33.6887 -17.1661 -16.9631 -15.2091 -15.2032 -14.7489 -14.7277
   -14.6959 -14.5931 -13.9268 -13.8269 -13.4018 -13.3612  -3.1297  -2.8050
    -1.5896  -1.3805  -1.2677  -1.1933  -0.9901  -0.8591   1.9432   2.2550
     2.4965   2.7266   2.7332   2.7417   3.1065   3.2705   4.1332   4.4697

          k = 0.5676 0.9830 0.0000 (  5114 PWs)   bands (ev):

   -33.6927 -33.6890 -17.1547 -16.9759 -15.2027 -15.1761 -14.7733 -14.7214
   -14.7187 -14.6193 -13.9170 -13.7822 -13.4214 -13.3648  -3.0972  -2.8056
    -1.5705  -1.4076  -1.2813  -1.1917  -0.9528  -0.8496   1.9417   2.2317
     2.5040   2.6666   2.7001   2.7089   3.1440   3.2498   4.1715   4.4780

          k =-0.0000-0.0000 0.1246 (  5164 PWs)   bands (ev):

   -33.6972 -33.6855 -17.0915 -17.0815 -15.1215 -15.1215 -14.7806 -14.7806
   -14.6656 -14.5640 -13.8878 -13.8878 -13.3912 -13.3912  -3.3130  -3.0594
    -1.6504  -1.5292  -1.5292  -1.2852  -1.2852  -0.4447   2.3669   2.3669
     2.7739   2.7739   2.9790   2.9790   3.5502   3.5502   3.7851   4.1844

          k =-0.1419-0.0819 0.1661 (  5127 PWs)   bands (ev):

   -33.6966 -33.6860 -17.0895 -17.0800 -15.1323 -15.0635 -14.8628 -14.7543
   -14.6816 -14.6113 -13.8806 -13.7630 -13.4623 -13.3910  -3.2647  -3.0696
    -1.5940  -1.5096  -1.4703  -1.3051  -1.2875  -0.5136   2.3950   2.4236
     2.7104   2.7600   2.8721   2.9626   3.4540   3.4821   3.8973   4.1840

          k =-0.2838-0.1638 0.2077 (  5104 PWs)   bands (ev):

   -33.6952 -33.6871 -17.0973 -17.0612 -15.1290 -14.9857 -14.9841 -14.7520
   -14.7077 -14.6449 -13.8189 -13.6194 -13.5759 -13.4143  -3.1596  -3.0529
    -1.5309  -1.4617  -1.3518  -1.2974  -1.2903  -0.6333   2.4059   2.5257
     2.6040   2.6345   2.7466   2.8687   3.2958   3.3425   4.0868   4.2110

          k =-0.4257-0.2458 0.2492 (  5112 PWs)   bands (ev):

   -33.6933 -33.6887 -17.0847 -17.0613 -15.0997 -15.0490 -14.9585 -14.8494
   -14.6755 -14.6481 -13.7305 -13.6306 -13.5653 -13.4584  -3.0633  -2.9916
    -1.5002  -1.4580  -1.3144  -1.2692  -1.1247  -0.7512   2.2994   2.3426
     2.5483   2.5892   2.7594   2.8517   3.1440   3.2067   4.2268   4.2692

          k = 0.7094 0.4096-0.0831 (  5113 PWs)   bands (ev):

   -33.6912 -33.6906 -17.0867 -17.0504 -15.0944 -15.0289 -14.9779 -14.9190
   -14.6711 -14.6337 -13.6793 -13.6380 -13.5538 -13.4913  -3.0204  -2.9200
    -1.5285  -1.4612  -1.2803  -1.2109  -0.9544  -0.8821   2.1282   2.2191
     2.4983   2.5969   2.7737   2.9173   3.0431   3.1396   4.2665   4.3447

          k = 0.5676 0.3277-0.0415 (  5103 PWs)   bands (ev):

   -33.6926 -33.6892 -17.1168 -17.0166 -15.1249 -15.0797 -14.9419 -14.8660
   -14.6847 -14.6174 -13.7446 -13.6318 -13.5319 -13.4681  -3.0301  -2.9066
    -1.5722  -1.3931  -1.2803  -1.1998  -1.0602  -0.8228   2.0742   2.2774
     2.4705   2.6288   2.7205   2.9468   3.0426   3.1802   4.2394   4.3741

          k = 0.4257 0.2458 0.0000 (  5086 PWs)   bands (ev):

   -33.6945 -33.6874 -17.1279 -17.0128 -15.1394 -15.0561 -14.9409 -14.7944
   -14.6985 -14.6504 -13.7764 -13.6097 -13.5639 -13.4407  -3.0549  -2.9880
    -1.5563  -1.3962  -1.2899  -1.2596  -1.2323  -0.7105   2.2235   2.4076
     2.5438   2.6378   2.6456   2.8908   3.1466   3.2962   4.2160   4.2890

          k = 0.2838 0.1638 0.0415 (  5097 PWs)   bands (ev):

   -33.6961 -33.6862 -17.1145 -17.0422 -15.1099 -15.0581 -14.8634 -14.7900
   -14.7045 -14.6937 -13.7918 -13.6815 -13.5102 -13.4307  -3.1322  -3.0619
    -1.5530  -1.4608  -1.4362  -1.3113  -1.2472  -0.5835   2.4255   2.4580
     2.6289   2.6396   2.7374   2.8424   3.3067   3.4248   4.0977   4.2107

          k =-0.1419 0.0819 0.2077 (  5115 PWs)   bands (ev):

   -33.6963 -33.6863 -17.0923 -17.0781 -15.1100 -15.0740 -14.8577 -14.7714
   -14.6683 -14.6422 -13.8224 -13.7810 -13.4514 -13.4234  -3.2574  -3.0877
    -1.5561  -1.4920  -1.4785  -1.3171  -1.2811  -0.5455   2.3982   2.4392
     2.6915   2.7251   2.9120   2.9885   3.4016   3.5008   3.9028   4.1676

          k =-0.2838-0.0000 0.2492 (  5100 PWs)   bands (ev):

   -33.6952 -33.6871 -17.1017 -17.0616 -15.1127 -15.0393 -14.9095 -14.7456
   -14.7255 -14.6592 -13.7902 -13.6846 -13.5196 -13.4354  -3.1760  -3.0863
    -1.5031  -1.4714  -1.4010  -1.2977  -1.2742  -0.6397   2.4139   2.4863
     2.6175   2.6664   2.7994   2.9427   3.2615   3.4117   4.0476   4.1805

          k =-0.4257-0.0819 0.2907 (  5103 PWs)   bands (ev):

   -33.6937 -33.6884 -17.0953 -17.0566 -15.0914 -15.0846 -14.9013 -14.8148
   -14.7015 -14.6605 -13.7380 -13.6848 -13.5196 -13.4561  -3.0815  -3.0336
    -1.4783  -1.4365  -1.3880  -1.2641  -1.1457  -0.7390   2.3358   2.4060
     2.5719   2.6000   2.7257   2.8934   3.1200   3.2843   4.1991   4.2361

          k = 0.7094 0.5734-0.0415 (  5104 PWs)   bands (ev):

   -33.6918 -33.6900 -17.0778 -17.0639 -15.1158 -15.0297 -14.9581 -14.8668
   -14.6801 -14.6534 -13.7425 -13.6117 -13.5704 -13.4511  -3.0272  -2.9428
    -1.5062  -1.4445  -1.3367  -1.2248  -0.9824  -0.8339   2.1811   2.2537
     2.5009   2.5820   2.7315   2.8789   3.0671   3.1896   4.2700   4.3262

          k = 0.5676 0.4915 0.0000 (  5108 PWs)   bands (ev):

   -33.6918 -33.6900 -17.1114 -17.0223 -15.1418 -15.0688 -14.9566 -14.8251
   -14.6909 -14.6251 -13.7836 -13.6344 -13.5370 -13.4307  -3.0259  -2.8801
    -1.5676  -1.3839  -1.3127  -1.1978  -0.9668  -0.8602   2.0580   2.2468
     2.4357   2.6025   2.7174   2.8649   3.0939   3.1761   4.2558   4.4011

          k = 0.4257 0.4096 0.0415 (  5100 PWs)   bands (ev):

   -33.6935 -33.6883 -17.1319 -17.0018 -15.1747 -15.0669 -14.9472 -14.7652
   -14.7085 -14.6184 -13.8297 -13.6158 -13.5509 -13.4102  -3.0500  -2.9104
    -1.5716  -1.3645  -1.2837  -1.2323  -1.1326  -0.7724   2.0994   2.3816
     2.4304   2.6137   2.6667   2.9004   3.0982   3.2525   4.2226   4.3800

          k = 0.2838 0.3277 0.0831 (  5105 PWs)   bands (ev):

   -33.6951 -33.6870 -17.1268 -17.0196 -15.1254 -15.0770 -14.8913 -14.7791
   -14.7102 -14.6765 -13.7652 -13.6831 -13.5038 -13.4465  -3.0640  -3.0314
    -1.5362  -1.4032  -1.3818  -1.2655  -1.2321  -0.6733   2.3081   2.4506
     2.5750   2.5935   2.6742   2.8614   3.1824   3.3556   4.2123   4.2382

          k =-0.2838 0.1638 0.2907 (  5103 PWs)   bands (ev):

   -33.6947 -33.6876 -17.1176 -17.0430 -15.1192 -15.0325 -14.8746 -14.7811
   -14.7413 -14.6709 -13.7415 -13.6936 -13.5014 -13.4737  -3.1153  -3.1133
    -1.4833  -1.4319  -1.4242  -1.2589  -1.2386  -0.7028   2.4073   2.4179
     2.6143   2.6362   2.8011   2.9791   3.1423   3.4076   4.1191   4.1606

          k =-0.4257 0.0819 0.3323 (  5109 PWs)   bands (ev):

   -33.6937 -33.6884 -17.1225 -17.0297 -15.1398 -15.0560 -14.8467 -14.8011
   -14.7293 -14.6735 -13.7596 -13.6974 -13.4891 -13.4596  -3.0960  -3.0241
    -1.4886  -1.4224  -1.3839  -1.2466  -1.1211  -0.7738   2.2736   2.3783
     2.5624   2.6639   2.7457   2.9229   3.0439   3.3324   4.1846   4.2447

          k = 0.7094 0.7373 0.0000 (  5118 PWs)   bands (ev):

   -33.6923 -33.6895 -17.1005 -17.0441 -15.1381 -15.0401 -14.8883 -14.8381
   -14.6982 -14.6869 -13.7810 -13.6376 -13.5315 -13.4355  -3.0147  -2.9687
    -1.4634  -1.4577  -1.3715  -1.2294  -0.9802  -0.8194   2.1665   2.2643
     2.5349   2.5902   2.7064   2.8021   3.0800   3.2498   4.2678   4.3279

          k = 0.5676 0.6554 0.0415 (  5095 PWs)   bands (ev):

   -33.6908 -33.6908 -17.0806 -17.0574 -15.1242 -15.0481 -14.9495 -14.8151
   -14.7095 -14.6719 -13.7682 -13.6599 -13.5138 -13.4319  -2.9697  -2.9163
    -1.5283  -1.4014  -1.3599  -1.2143  -0.8849  -0.8685   2.1203   2.1686
     2.4683   2.5445   2.6819   2.7416   3.1433   3.2093   4.3282   4.3745

          k = 0.4257 0.5734 0.0831 (  5105 PWs)   bands (ev):

   -33.6922 -33.6894 -17.1128 -17.0200 -15.1682 -15.0446 -14.9814 -14.7525
   -14.7154 -14.6355 -13.8372 -13.6239 -13.5404 -13.3979  -3.0031  -2.8794
    -1.5602  -1.3806  -1.3032  -1.2275  -0.9938  -0.8111   2.0698   2.2714
     2.4144   2.5321   2.6677   2.7781   3.1634   3.2189   4.2814   4.4225

          k = 0.2838 0.4915 0.1246 (  5107 PWs)   bands (ev):

   -33.6936 -33.6883 -17.1216 -17.0152 -15.1675 -15.0387 -14.9622 -14.7844
   -14.6953 -14.6343 -13.8166 -13.6300 -13.5367 -13.4175  -3.0300  -2.9418
    -1.5449  -1.3908  -1.3135  -1.2347  -1.1252  -0.7577   2.1617   2.3879
     2.4758   2.5338   2.6654   2.8514   3.1264   3.2687   4.2477   4.3575

          k =-0.4257 0.2458 0.3738 (  5106 PWs)   bands (ev):

   -33.6933 -33.6887 -17.1448 -17.0004 -15.1803 -15.1013 -14.7820 -14.7602
   -14.7443 -14.6573 -13.7956 -13.7769 -13.4381 -13.4296  -3.1301  -2.9330
    -1.5434  -1.3900  -1.3235  -1.2329  -1.0593  -0.8282   2.1397   2.3359
     2.5458   2.7184   2.7445   2.8674   3.0259   3.3165   4.1514   4.3334

          k = 0.7094 0.9011 0.0415 (  5118 PWs)   bands (ev):

   -33.6926 -33.6892 -17.1414 -16.9979 -15.1804 -15.1271 -14.7958 -14.7465
   -14.7155 -14.6743 -13.8388 -13.7612 -13.4374 -13.4047  -3.0962  -2.8738
    -1.5469  -1.4065  -1.3023  -1.2242  -0.9746  -0.8454   2.0441   2.2688
     2.5309   2.6914   2.7066   2.7534   3.0883   3.2652   4.1842   4.4068

          k = 0.5676 0.8192 0.0831 (  5106 PWs)   bands (ev):

   -33.6918 -33.6899 -17.1095 -17.0285 -15.1490 -15.0850 -14.8488 -14.8168
   -14.7183 -14.6805 -13.8040 -13.6983 -13.4740 -13.4173  -3.0061  -2.8794
    -1.5042  -1.4610  -1.3177  -1.2214  -0.8992  -0.8409   2.0444   2.1970
     2.5086   2.5759   2.6613   2.6859   3.1579   3.2284   4.2825   4.4181

          k = 0.4257 0.7373 0.1246 (  5104 PWs)   bands (ev):

   -33.6908 -33.6908 -17.0678 -17.0677 -15.1103 -15.0933 -14.8965 -14.8541
   -14.6981 -14.6708 -13.7351 -13.7317 -13.4548 -13.4532  -2.9254  -2.9252
    -1.5082  -1.4624  -1.2999  -1.2314  -0.8801  -0.8572   2.1350   2.1408
     2.4645   2.4731   2.6682   2.6865   3.1919   3.2135   4.3729   4.3747

          k = 0.2838 0.6554 0.1661 (  5113 PWs)   bands (ev):

   -33.6918 -33.6899 -17.0897 -17.0445 -15.1330 -15.0527 -14.9565 -14.8539
   -14.6758 -14.6471 -13.7677 -13.6604 -13.5096 -13.4391  -2.9649  -2.9190
    -1.5221  -1.4548  -1.2656  -1.2406  -0.9602  -0.8375   2.1294   2.2334
     2.4497   2.4743   2.7020   2.7662   3.1608   3.2050   4.3215   4.3823

          k = 0.7094-0.4096-0.2907 (  5104 PWs)   bands (ev):

   -33.6927 -33.6891 -17.1611 -16.9701 -15.2112 -15.1858 -14.7490 -14.7273
   -14.7190 -14.5941 -13.8976 -13.8385 -13.3951 -13.3750  -3.1284  -2.8082
    -1.5903  -1.3779  -1.2504  -1.2186  -0.9659  -0.8714   1.9534   2.2454
     2.5206   2.6763   2.7381   2.7700   3.1093   3.2455   4.1400   4.4629

          k = 0.5676-0.4915-0.2492 (  5102 PWs)   bands (ev):

   -33.6926 -33.6892 -17.1495 -16.9816 -15.1964 -15.1632 -14.8087 -14.7273
   -14.7107 -14.6213 -13.9008 -13.7606 -13.4364 -13.3710  -3.0887  -2.8146
    -1.5760  -1.3958  -1.2637  -1.2194  -0.9577  -0.8465   1.9561   2.2408
     2.4743   2.6712   2.6940   2.7455   3.1369   3.2352   4.1828   4.4684

          k = 0.4257-0.5734-0.2077 (  5113 PWs)   bands (ev):

   -33.6922 -33.6894 -17.1175 -17.0166 -15.1781 -15.0565 -14.9327 -14.7797
   -14.6974 -14.6446 -13.8525 -13.6397 -13.5235 -13.3910  -3.0124  -2.8707
    -1.5354  -1.4307  -1.2906  -1.2299  -0.9567  -0.8204   2.0445   2.2512
     2.4412   2.5553   2.6670   2.7428   3.1521   3.2412   4.2712   4.4306

          k = 0.5676-0.3277-0.2077 (  5101 PWs)   bands (ev):

   -33.6932 -33.6886 -17.1597 -16.9693 -15.1989 -15.1854 -14.7903 -14.7239
   -14.7226 -14.5905 -13.9033 -13.7793 -13.4281 -13.3728  -3.1119  -2.8220
    -1.5923  -1.3678  -1.2529  -1.2222  -1.0234  -0.8381   1.9625   2.2900
     2.4426   2.7022   2.7236   2.8361   3.0811   3.2613   4.1515   4.4547

          k = 0.4257-0.4096-0.1661 (  5110 PWs)   bands (ev):

   -33.6935 -33.6883 -17.1436 -16.9902 -15.1933 -15.1027 -14.8834 -14.7403
   -14.7096 -14.6240 -13.8735 -13.6679 -13.5064 -13.3861  -3.0768  -2.8851
    -1.5638  -1.3831  -1.2941  -1.2264  -1.0833  -0.7894   2.0596   2.3586
     2.4320   2.6473   2.6837   2.8800   3.0714   3.2857   4.1958   4.4026

          k = 0.4257-0.2458-0.1246 (  5098 PWs)   bands (ev):

   -33.6945 -33.6874 -17.1415 -16.9989 -15.1436 -15.1132 -14.8672 -14.7447
   -14.7234 -14.6696 -13.8015 -13.6764 -13.5079 -13.4229  -3.0869  -2.9588
    -1.5492  -1.3931  -1.3406  -1.2321  -1.1834  -0.7323   2.1749   2.4332
     2.4719   2.6608   2.6882   2.9462   3.0632   3.3377   4.1869   4.3135

          k =-0.0000-0.0000 0.2492 (  5121 PWs)   bands (ev):

   -33.6961 -33.6865 -17.0913 -17.0832 -15.0985 -15.0985 -14.8264 -14.8264
   -14.6551 -14.5723 -13.8277 -13.8277 -13.4287 -13.4287  -3.3037  -3.1037
    -1.5237  -1.5065  -1.5065  -1.3078  -1.3078  -0.5462   2.4052   2.4052
     2.7330   2.7330   3.0299   3.0299   3.4895   3.4895   3.8175   4.1389

          k =-0.1419-0.0819 0.2907 (  5119 PWs)   bands (ev):

   -33.6953 -33.6872 -17.0881 -17.0830 -15.1197 -15.0268 -14.9265 -14.7839
   -14.6680 -14.6039 -13.8383 -13.7015 -13.5145 -13.4179  -3.2582  -3.1090
    -1.5054  -1.4888  -1.4009  -1.3180  -1.3151  -0.6223   2.4268   2.4561
     2.6769   2.7006   2.9315   3.0374   3.3672   3.4356   3.9202   4.1411

          k =-0.2838-0.1638 0.3323 (  5107 PWs)   bands (ev):

   -33.6940 -33.6883 -17.0855 -17.0754 -15.1221 -15.0216 -14.9592 -14.7410
   -14.7257 -14.6291 -13.8018 -13.6053 -13.5975 -13.4260  -3.1700  -3.0647
    -1.4704  -1.4594  -1.3589  -1.3168  -1.2035  -0.7231   2.3942   2.5156
     2.6026   2.6263   2.7586   2.9840   3.1962   3.3059   4.0861   4.1940

          k = 0.8513 0.4915 0.0000 (  5116 PWs)   bands (ev):

   -33.6922 -33.6897 -17.0890 -17.0595 -15.1371 -15.0030 -14.9807 -14.8067
   -14.7021 -14.6312 -13.7758 -13.6156 -13.5788 -13.4315  -3.0977  -2.9663
    -1.4984  -1.4341  -1.3428  -1.2621  -1.0384  -0.8135   2.2387   2.3622
     2.5464   2.6237   2.7075   2.9851   3.0450   3.1889   4.1958   4.2916

          k = 0.7094 0.4096 0.0415 (  5122 PWs)   bands (ev):

   -33.6914 -33.6904 -17.1192 -17.0171 -15.1520 -15.0953 -14.8889 -14.8404
   -14.6958 -14.6124 -13.7526 -13.7352 -13.4742 -13.4410  -3.0706  -2.8697
    -1.5687  -1.3776  -1.3234  -1.2004  -0.9197  -0.9092   2.0523   2.2600
     2.4643   2.6595   2.7186   2.9465   3.0267   3.1580   4.2142   4.3944

          k = 0.5676 0.3277 0.0831 (  5097 PWs)   bands (ev):

   -33.6930 -33.6888 -17.1426 -16.9880 -15.1724 -15.1413 -14.8608 -14.7866
   -14.7074 -14.5981 -13.8360 -13.7095 -13.4723 -13.4092  -3.0774  -2.8574
    -1.5908  -1.3506  -1.2792  -1.2157  -1.0578  -0.8215   2.0084   2.3158
     2.4226   2.6852   2.6913   2.9480   3.0270   3.2273   4.1900   4.4208

          k =-0.1419 0.0819 0.3323 (  5106 PWs)   bands (ev):

   -33.6948 -33.6877 -17.0922 -17.0799 -15.1007 -15.0263 -14.9230 -14.8145
   -14.6526 -14.6295 -13.7866 -13.7001 -13.5143 -13.4523  -3.2457  -3.1329
    -1.4903  -1.4621  -1.3899  -1.3174  -1.3086  -0.6721   2.4363   2.4780
     2.6402   2.6845   2.9681   3.0703   3.3131   3.4368   3.9329   4.1178

          k =-0.2838-0.0000 0.3738 (  5092 PWs)   bands (ev):

   -33.6938 -33.6885 -17.0959 -17.0697 -15.1039 -15.0344 -14.9232 -14.7907
   -14.6935 -14.6482 -13.7594 -13.6636 -13.5420 -13.4603  -3.1722  -3.1152
    -1.4587  -1.4416  -1.3935  -1.3055  -1.2018  -0.7537   2.4264   2.4858
     2.5993   2.6351   2.8619   3.0315   3.1717   3.3509   4.0621   4.1474

          k = 0.8513 0.6554 0.0415 (  5112 PWs)   bands (ev):

   -33.6924 -33.6896 -17.0784 -17.0765 -15.1072 -15.0651 -14.9008 -14.7876
   -14.7246 -14.6617 -13.7505 -13.6669 -13.5327 -13.4521  -3.0974  -3.0307
    -1.4658  -1.4053  -1.4020  -1.2806  -1.0483  -0.8202   2.3120   2.3728
     2.6064   2.6116   2.7257   2.9452   3.0889   3.2327   4.1866   4.2374

          k = 0.7094 0.5734 0.0831 (  5107 PWs)   bands (ev):

   -33.6909 -33.6909 -17.1049 -17.0380 -15.1412 -15.0629 -14.9146 -14.7981
   -14.7049 -14.6608 -13.7724 -13.6879 -13.5055 -13.4300  -3.0616  -2.9111
    -1.5362  -1.3733  -1.3621  -1.2345  -0.9221  -0.8792   2.1215   2.2575
     2.5176   2.6310   2.6941   2.8576   3.1023   3.1689   4.2330   4.3599

          k = 0.5676 0.4915 0.1246 (  5107 PWs)   bands (ev):

   -33.6923 -33.6895 -17.1345 -16.9978 -15.1764 -15.1262 -14.8795 -14.7513
   -14.7132 -14.6199 -13.8539 -13.7051 -13.4775 -13.3922  -3.0640  -2.8406
    -1.5807  -1.3650  -1.2919  -1.2213  -0.9687  -0.8458   1.9970   2.2570
     2.4349   2.6507   2.6936   2.8208   3.1149   3.2036   4.2132   4.4413

          k =-0.2838 0.1638 0.4153 (  5096 PWs)   bands (ev):

   -33.6933 -33.6890 -17.1124 -17.0504 -15.1321 -14.9831 -14.9324 -14.8075
   -14.7059 -14.6501 -13.7602 -13.6417 -13.5483 -13.4661  -3.1434  -3.1049
    -1.4834  -1.4109  -1.3738  -1.2915  -1.1365  -0.8141   2.3964   2.4247
     2.6097   2.6292   2.8626   3.0452   3.0574   3.3414   4.1309   4.1347

          k = 0.8513 0.8192 0.0831 (  5108 PWs)   bands (ev):

   -33.6924 -33.6896 -17.1116 -17.0436 -15.1383 -15.0421 -14.8686 -14.7946
   -14.7239 -14.6743 -13.7573 -13.6905 -13.4986 -13.4608  -3.1053  -3.0260
    -1.4891  -1.4128  -1.3473  -1.2825  -1.0250  -0.8555   2.2749   2.3565
     2.5852   2.6575   2.7930   2.8726   3.0783   3.2680   4.1777   4.2429

          k = 0.7094 0.7373 0.1246 (  5108 PWs)   bands (ev):

   -33.6914 -33.6904 -17.0835 -17.0639 -15.1074 -15.0707 -14.8476 -14.8332
   -14.7198 -14.7146 -13.7388 -13.6876 -13.4933 -13.4597  -3.0016  -2.9857
    -1.4686  -1.4631  -1.3265  -1.2674  -0.9167  -0.8637   2.1834   2.2158
     2.5772   2.6065   2.7099   2.7467   3.1304   3.1970   4.2860   4.3071

          k = 0.5676 0.6554 0.1661 (  5107 PWs)   bands (ev):

   -33.6913 -33.6904 -17.0971 -17.0417 -15.1196 -15.0910 -14.8968 -14.7891
   -14.7159 -14.6972 -13.7752 -13.6939 -13.4843 -13.4284  -2.9910  -2.8951
    -1.5242  -1.4372  -1.2869  -1.2603  -0.8881  -0.8503   2.0750   2.1787
     2.4944   2.5737   2.6637   2.7071   3.1738   3.1945   4.3026   4.3991

          k = 0.8513-0.4915-0.2492 (  5104 PWs)   bands (ev):

   -33.6922 -33.6898 -17.1333 -17.0147 -15.1849 -15.0632 -14.8569 -14.7583
   -14.7265 -14.6338 -13.8212 -13.7323 -13.4722 -13.4135  -3.1335  -2.9359
    -1.5424  -1.3803  -1.2875  -1.2829  -0.9806  -0.8893   2.1545   2.3260
     2.5866   2.6996   2.7190   2.8654   3.0637   3.2513   4.1540   4.3268

[...]
    -1.4632  -1.4576  -1.3714  -1.2293  -0.9801  -0.8193   2.1665   2.2644
     2.5350   2.5903   2.7065   2.8021   3.0800   3.2498   4.2678   4.3279

          k = 0.5676 0.6554 0.0415 (  5091 PWs)   bands (ev):

   -33.6901 -33.6901 -17.0805 -17.0573 -15.1237 -15.0475 -14.9489 -14.8145
   -14.7088 -14.6713 -13.7680 -13.6597 -13.5135 -13.4316  -2.9696  -2.9162
    -1.5281  -1.4012  -1.3597  -1.2142  -0.8848  -0.8684   2.1203   2.1686
     2.4683   2.5446   2.6820   2.7416   3.1434   3.2093   4.3282   4.3745

          k = 0.4257 0.5734 0.0831 (  5103 PWs)   bands (ev):

   -33.6915 -33.6887 -17.1126 -17.0199 -15.1677 -15.0441 -14.9809 -14.7519
   -14.7147 -14.6349 -13.8370 -13.6237 -13.5402 -13.3977  -3.0030  -2.8792
    -1.5601  -1.3805  -1.3031  -1.2274  -0.9937  -0.8110   2.0699   2.2715
     2.4145   2.5321   2.6677   2.7781   3.1634   3.2189   4.2814   4.4226

          k = 0.2838 0.4915 0.1246 (  5104 PWs)   bands (ev):

   -33.6928 -33.6876 -17.1214 -17.0150 -15.1670 -15.0381 -14.9617 -14.7838
   -14.6946 -14.6336 -13.8164 -13.6297 -13.5365 -13.4173  -3.0299  -2.9417
    -1.5448  -1.3907  -1.3134  -1.2346  -1.1251  -0.7576   2.1618   2.3880
     2.4759   2.5338   2.6655   2.8514   3.1264   3.2687   4.2477   4.3575

          k =-0.4257 0.2458 0.3738 (  5100 PWs)   bands (ev):

   -33.6926 -33.6880 -17.1446 -17.0002 -15.1798 -15.1008 -14.7814 -14.7596
   -14.7437 -14.6567 -13.7955 -13.7767 -13.4378 -13.4294  -3.1300  -2.9329
    -1.5433  -1.3899  -1.3234  -1.2328  -1.0592  -0.8281   2.1398   2.3360
     2.5459   2.7185   2.7446   2.8674   3.0259   3.3165   4.1514   4.3335

          k = 0.7094 0.9011 0.0415 (  5107 PWs)   bands (ev):

   -33.6919 -33.6885 -17.1412 -16.9977 -15.1799 -15.1266 -14.7952 -14.7458
   -14.7149 -14.6737 -13.8386 -13.7610 -13.4372 -13.4044  -3.0961  -2.8737
    -1.5467  -1.4063  -1.3022  -1.2241  -0.9745  -0.8453   2.0442   2.2689
     2.5309   2.6915   2.7066   2.7535   3.0883   3.2653   4.1843   4.4069

          k = 0.5676 0.8192 0.0831 (  5101 PWs)   bands (ev):

   -33.6910 -33.6892 -17.1093 -17.0284 -15.1485 -15.0845 -14.8482 -14.8163
   -14.7176 -14.6799 -13.8038 -13.6981 -13.4737 -13.4171  -3.0060  -2.8793
    -1.5041  -1.4609  -1.3176  -1.2212  -0.8991  -0.8408   2.0445   2.1971
     2.5087   2.5759   2.6614   2.6859   3.1579   3.2284   4.2826   4.4182

          k = 0.4257 0.7373 0.1246 (  5094 PWs)   bands (ev):

   -33.6901 -33.6901 -17.0677 -17.0676 -15.1098 -15.0928 -14.8959 -14.8535
   -14.6975 -14.6701 -13.7349 -13.7315 -13.4545 -13.4529  -2.9253  -2.9251
    -1.5081  -1.4623  -1.2998  -1.2313  -0.8800  -0.8571   2.1351   2.1409
     2.4646   2.4732   2.6682   2.6865   3.1919   3.2135   4.3730   4.3748

          k = 0.2838 0.6554 0.1661 (  5110 PWs)   bands (ev):

   -33.6910 -33.6892 -17.0896 -17.0443 -15.1325 -15.0522 -14.9559 -14.8533
   -14.6752 -14.6465 -13.7675 -13.6602 -13.5093 -13.4389  -2.9648  -2.9189
    -1.5220  -1.4546  -1.2655  -1.2405  -0.9600  -0.8374   2.1295   2.2334
     2.4497   2.4744   2.7020   2.7662   3.1608   3.2051   4.3215   4.3824

          k = 0.7094-0.4096-0.2907 (  5094 PWs)   bands (ev):

   -33.6920 -33.6883 -17.1609 -16.9700 -15.2107 -15.1854 -14.7483 -14.7267
   -14.7183 -14.5935 -13.8975 -13.8384 -13.3948 -13.3747  -3.1283  -2.8081
    -1.5902  -1.3777  -1.2503  -1.2184  -0.9658  -0.8713   1.9534   2.2455
     2.5206   2.6763   2.7381   2.7701   3.1093   3.2455   4.1401   4.4630

          k = 0.5676-0.4915-0.2492 (  5092 PWs)   bands (ev):

   -33.6918 -33.6884 -17.1493 -16.9814 -15.1959 -15.1627 -14.8081 -14.7267
   -14.7101 -14.6206 -13.9007 -13.7604 -13.4361 -13.3707  -3.0886  -2.8145
    -1.5759  -1.3957  -1.2636  -1.2193  -0.9576  -0.8464   1.9562   2.2409
     2.4744   2.6713   2.6940   2.7455   3.1369   3.2352   4.1828   4.4685

          k = 0.4257-0.5734-0.2077 (  5107 PWs)   bands (ev):

   -33.6915 -33.6887 -17.1173 -17.0165 -15.1776 -15.0560 -14.9322 -14.7791
   -14.6968 -14.6440 -13.8524 -13.6395 -13.5232 -13.3907  -3.0123  -2.8706
    -1.5353  -1.4305  -1.2905  -1.2298  -0.9566  -0.8203   2.0446   2.2513
     2.4413   2.5554   2.6671   2.7429   3.1522   3.2412   4.2713   4.4307

          k = 0.5676-0.3277-0.2077 (  5099 PWs)   bands (ev):

   -33.6925 -33.6879 -17.1595 -16.9691 -15.1984 -15.1849 -14.7896 -14.7232
   -14.7219 -14.5898 -13.9032 -13.7792 -13.4278 -13.3726  -3.1118  -2.8219
    -1.5922  -1.3677  -1.2528  -1.2221  -1.0233  -0.8380   1.9625   2.2901
     2.4426   2.7023   2.7237   2.8361   3.0811   3.2613   4.1516   4.4547

          k = 0.4257-0.4096-0.1661 (  5106 PWs)   bands (ev):

   -33.6928 -33.6876 -17.1434 -16.9901 -15.1928 -15.1022 -14.8829 -14.7396
   -14.7089 -14.6234 -13.8734 -13.6677 -13.5061 -13.3858  -3.0766  -2.8850
    -1.5637  -1.3830  -1.2939  -1.2263  -1.0832  -0.7893   2.0597   2.3587
     2.4321   2.6474   2.6838   2.8800   3.0714   3.2857   4.1959   4.4027

          k = 0.4257-0.2458-0.1246 (  5098 PWs)   bands (ev):

   -33.6938 -33.6867 -17.1414 -16.9987 -15.1431 -15.1127 -14.8666 -14.7441
   -14.7227 -14.6690 -13.8014 -13.6762 -13.5076 -13.4227  -3.0868  -2.9587
    -1.5491  -1.3930  -1.3405  -1.2320  -1.1832  -0.7322   2.1750   2.4333
     2.4719   2.6608   2.6883   2.9462   3.0632   3.3377   4.1869   4.3135

          k =-0.0000-0.0000 0.2492 (  5121 PWs)   bands (ev):

   -33.6954 -33.6858 -17.0912 -17.0830 -15.0980 -15.0980 -14.8258 -14.8258
   -14.6544 -14.5717 -13.8276 -13.8276 -13.4285 -13.4285  -3.3036  -3.1036
    -1.5236  -1.5064  -1.5064  -1.3077  -1.3077  -0.5461   2.4053   2.4053
     2.7331   2.7331   3.0299   3.0299   3.4895   3.4895   3.8175   4.1389

          k =-0.1419-0.0819 0.2907 (  5113 PWs)   bands (ev):

   -33.6946 -33.6865 -17.0880 -17.0828 -15.1192 -15.0262 -14.9259 -14.7832
   -14.6673 -14.6033 -13.8381 -13.7013 -13.5143 -13.4177  -3.2581  -3.1089
    -1.5053  -1.4886  -1.4008  -1.3179  -1.3150  -0.6222   2.4269   2.4562
     2.6770   2.7007   2.9315   3.0374   3.3673   3.4356   3.9202   4.1412

          k =-0.2838-0.1638 0.3323 (  5097 PWs)   bands (ev):

   -33.6932 -33.6876 -17.0854 -17.0753 -15.1216 -15.0211 -14.9586 -14.7404
   -14.7251 -14.6285 -13.8016 -13.6051 -13.5973 -13.4257  -3.1699  -3.0646
    -1.4703  -1.4593  -1.3588  -1.3166  -1.2034  -0.7230   2.3943   2.5157
     2.6027   2.6264   2.7586   2.9841   3.1962   3.3059   4.0862   4.1941

          k = 0.8513 0.4915 0.0000 (  5110 PWs)   bands (ev):

   -33.6915 -33.6890 -17.0888 -17.0593 -15.1366 -15.0025 -14.9801 -14.8061
   -14.7014 -14.6306 -13.7757 -13.6153 -13.5786 -13.4312  -3.0976  -2.9662
    -1.4983  -1.4340  -1.3427  -1.2620  -1.0383  -0.8134   2.2388   2.3623
     2.5465   2.6238   2.7075   2.9851   3.0451   3.1889   4.1958   4.2916

          k = 0.7094 0.4096 0.0415 (  5122 PWs)   bands (ev):

   -33.6906 -33.6897 -17.1191 -17.0170 -15.1515 -15.0948 -14.8883 -14.8398
   -14.6951 -14.6118 -13.7525 -13.7350 -13.4739 -13.4408  -3.0705  -2.8696
    -1.5686  -1.3775  -1.3233  -1.2002  -0.9196  -0.9091   2.0524   2.2600
     2.4644   2.6595   2.7187   2.9465   3.0268   3.1580   4.2142   4.3944

          k = 0.5676 0.3277 0.0831 (  5093 PWs)   bands (ev):

   -33.6923 -33.6880 -17.1425 -16.9878 -15.1719 -15.1408 -14.8602 -14.7860
   -14.7068 -14.5974 -13.8358 -13.7093 -13.4720 -13.4089  -3.0773  -2.8572
    -1.5907  -1.3505  -1.2791  -1.2156  -1.0577  -0.8214   2.0085   2.3159
     2.4227   2.6853   2.6913   2.9480   3.0271   3.2273   4.1901   4.4209

          k =-0.1419 0.0819 0.3323 (  5103 PWs)   bands (ev):

   -33.6941 -33.6870 -17.0921 -17.0797 -15.1001 -15.0257 -14.9225 -14.8139
   -14.6519 -14.6289 -13.7864 -13.6999 -13.5141 -13.4521  -3.2456  -3.1328
    -1.4902  -1.4620  -1.3898  -1.3173  -1.3085  -0.6720   2.4364   2.4781
     2.6403   2.6845   2.9682   3.0703   3.3131   3.4368   3.9330   4.1179

          k =-0.2838-0.0000 0.3738 (  5090 PWs)   bands (ev):

   -33.6931 -33.6878 -17.0957 -17.0696 -15.1033 -15.0339 -14.9226 -14.7901
   -14.6928 -14.6476 -13.7593 -13.6634 -13.5417 -13.4601  -3.1721  -3.1151
    -1.4586  -1.4415  -1.3933  -1.3054  -1.2017  -0.7536   2.4265   2.4859
     2.5994   2.6352   2.8619   3.0315   3.1717   3.3510   4.0622   4.1475

          k = 0.8513 0.6554 0.0415 (  5110 PWs)   bands (ev):

   -33.6917 -33.6889 -17.0782 -17.0764 -15.1067 -15.0646 -14.9002 -14.7871
   -14.7239 -14.6611 -13.7504 -13.6667 -13.5324 -13.4518  -3.0973  -3.0306
    -1.4657  -1.4051  -1.4019  -1.2805  -1.0482  -0.8201   2.3121   2.3729
     2.6064   2.6117   2.7257   2.9452   3.0889   3.2327   4.1867   4.2375

          k = 0.7094 0.5734 0.0831 (  5102 PWs)   bands (ev):

   -33.6902 -33.6902 -17.1047 -17.0379 -15.1407 -15.0623 -14.9141 -14.7975
   -14.7042 -14.6601 -13.7723 -13.6877 -13.5052 -13.4297  -3.0615  -2.9110
    -1.5361  -1.3732  -1.3620  -1.2343  -0.9219  -0.8791   2.1216   2.2576
     2.5177   2.6310   2.6941   2.8576   3.1023   3.1689   4.2331   4.3600

          k = 0.5676 0.4915 0.1246 (  5098 PWs)   bands (ev):

   -33.6915 -33.6887 -17.1344 -16.9976 -15.1759 -15.1257 -14.8790 -14.7507
   -14.7126 -14.6193 -13.8538 -13.7049 -13.4772 -13.3919  -3.0639  -2.8404
    -1.5806  -1.3648  -1.2917  -1.2211  -0.9686  -0.8457   1.9971   2.2570
     2.4350   2.6508   2.6937   2.8209   3.1149   3.2036   4.2133   4.4413

          k =-0.2838 0.1638 0.4153 (  5096 PWs)   bands (ev):

   -33.6926 -33.6883 -17.1123 -17.0503 -15.1316 -14.9826 -14.9319 -14.8069
   -14.7053 -14.6495 -13.7601 -13.6415 -13.5481 -13.4659  -3.1433  -3.1048
    -1.4833  -1.4107  -1.3737  -1.2914  -1.1364  -0.8140   2.3965   2.4248
     2.6097   2.6293   2.8626   3.0453   3.0574   3.3415   4.1310   4.1347

          k = 0.8513 0.8192 0.0831 (  5105 PWs)   bands (ev):

   -33.6917 -33.6889 -17.1114 -17.0434 -15.1378 -15.0416 -14.8680 -14.7940
   -14.7232 -14.6737 -13.7571 -13.6903 -13.4984 -13.4605  -3.1052  -3.0259
    -1.4890  -1.4127  -1.3472  -1.2824  -1.0249  -0.8554   2.2750   2.3566
     2.5852   2.6576   2.7930   2.8726   3.0783   3.2680   4.1778   4.2430

          k = 0.7094 0.7373 0.1246 (  5106 PWs)   bands (ev):

   -33.6907 -33.6897 -17.0833 -17.0637 -15.1069 -15.0702 -14.8470 -14.8327
   -14.7192 -14.7139 -13.7386 -13.6874 -13.4931 -13.4594  -3.0015  -2.9856
    -1.4685  -1.4630  -1.3264  -1.2673  -0.9165  -0.8636   2.1835   2.2159
     2.5772   2.6065   2.7099   2.7468   3.1304   3.1970   4.2861   4.3071

          k = 0.5676 0.6554 0.1661 (  5106 PWs)   bands (ev):

   -33.6906 -33.6896 -17.0969 -17.0415 -15.1191 -15.0905 -14.8962 -14.7885
   -14.7152 -14.6966 -13.7750 -13.6937 -13.4840 -13.4281  -2.9909  -2.8950
    -1.5241  -1.4371  -1.2868  -1.2602  -0.8880  -0.8502   2.0751   2.1788
     2.4944   2.5737   2.6637   2.7071   3.1738   3.1945   4.3027   4.3992

          k = 0.8513-0.4915-0.2492 (  5102 PWs)   bands (ev):

   -33.6915 -33.6890 -17.1331 -17.0145 -15.1844 -15.0627 -14.8563 -14.7577
   -14.7258 -14.6331 -13.8211 -13.7321 -13.4720 -13.4133  -3.1334  -2.9358
    -1.5423  -1.3802  -1.2874  -1.2828  -0.9804  -0.8892   2.1546   2.3261
     2.5866   2.6997   2.7191   2.8655   3.0637   3.2513   4.1541   4.3268

          k = 0.7094-0.5734-0.2077 (  5106 PWs)   bands (ev):

   -33.6911 -33.6893 -17.1267 -17.0149 -15.1610 -15.1058 -14.8443 -14.7421
   -14.7187 -14.6824 -13.7794 -13.7702 -13.4459 -13.4250  -3.0854  -2.8872
    -1.5475  -1.3953  -1.2831  -1.2658  -0.9260  -0.8774   2.0726   2.2569
     2.5490   2.6571   2.6882   2.7949   3.1120   3.2058   4.2028   4.3883

          k = 0.7094-0.4096-0.1661 (  5107 PWs)   bands (ev):

   -33.6914 -33.6889 -17.1448 -16.9889 -15.1913 -15.1484 -14.7996 -14.7775
   -14.7122 -14.5980 -13.8270 -13.8104 -13.4131 -13.4081  -3.1079  -2.8307
    -1.5870  -1.3593  -1.2873  -1.2184  -0.9461  -0.8829   1.9915   2.2574
     2.4844   2.6879   2.7100   2.8459   3.0916   3.1947   4.1695   4.4361

          k =-0.0000 0.0000 0.3738 (  5112 PWs)   bands (ev):

   -33.6937 -33.6875 -17.0906 -17.0853 -15.0607 -15.0607 -14.8868 -14.8868
   -14.6388 -14.5848 -13.7447 -13.7447 -13.4880 -13.4880  -3.2851  -3.1590
    -1.4719  -1.4719  -1.3423  -1.3423  -1.3395  -0.7048   2.4634   2.4634
     2.6757   2.6757   3.1038   3.1038   3.4007   3.4007   3.8676   4.0744

          k =-0.1419-0.0819 0.4153 (  5095 PWs)   bands (ev):

   -33.6929 -33.6882 -17.0864 -17.0861 -15.0912 -14.9843 -14.9813 -14.8361
   -14.6496 -14.6063 -13.7682 -13.6328 -13.5794 -13.4656  -3.2430  -3.1539
    -1.4589  -1.4426  -1.3607  -1.3570  -1.2249  -0.7794   2.4708   2.5045
     2.6318   2.6348   3.0111   3.1312   3.2630   3.3592   3.9566   4.0865

          k = 0.9932 0.5734 0.0831 (  5102 PWs)   bands (ev):

   -33.6917 -33.6892 -17.0899 -17.0728 -15.1225 -15.0213 -14.9418 -14.7833
   -14.7014 -14.6247 -13.7813 -13.6138 -13.5891 -13.4436  -3.1722  -3.0799
    -1.4634  -1.4024  -1.3722  -1.3368  -1.0815  -0.8484   2.3890   2.4832
     2.5977   2.6226   2.8222   3.0898   3.1001   3.2483   4.0921   4.1734

          k = 0.8513 0.4915 0.1246 (  5109 PWs)   bands (ev):

   -33.6903 -33.6903 -17.1139 -17.0351 -15.1693 -15.0205 -14.9329 -14.7660
   -14.7208 -14.6248 -13.8127 -13.6753 -13.5208 -13.4142  -3.1223  -2.9474
    -1.5279  -1.3644  -1.3559  -1.2657  -0.9588  -0.8943   2.1886   2.3421
     2.5856   2.6644   2.6836   2.9447   3.0765   3.1825   4.1700   4.3116

          k =-0.1419 0.0819 0.4569 (  5091 PWs)   bands (ev):

   -33.6923 -33.6888 -17.0911 -17.0820 -15.0779 -14.9851 -14.9688 -14.8677
   -14.6340 -14.6257 -13.7297 -13.6168 -13.5906 -13.4978  -3.2253  -3.1787
    -1.4496  -1.4265  -1.3860  -1.3467  -1.1672  -0.8414   2.4907   2.5243
     2.5877   2.6295   3.0499   3.1627   3.2119   3.3456   3.9764   4.0606

          k = 0.9932 0.7373 0.1246 (  5100 PWs)   bands (ev):

   -33.6914 -33.6895 -17.0879 -17.0788 -15.0841 -15.0569 -14.8924 -14.8430
   -14.6657 -14.6496 -13.7189 -13.6788 -13.5295 -13.4945  -3.1613  -3.1418
    -1.4374  -1.4207  -1.3784  -1.3404  -1.0577  -0.8992   2.4487   2.4736
     2.5927   2.6097   2.9449   3.0341   3.1705   3.2644   4.0844   4.1137

          k = 0.8513 0.6554 0.1661 (  5098 PWs)   bands (ev):

   -33.6903 -33.6903 -17.0955 -17.0604 -15.1259 -15.0451 -14.8885 -14.7890
   -14.7161 -14.6741 -13.7568 -13.6725 -13.5218 -13.4538  -3.1059  -3.0283
    -1.4816  -1.4092  -1.3379  -1.3079  -0.9494  -0.9200   2.2887   2.3556
     2.6075   2.6322   2.7718   2.8890   3.1413   3.1894   4.1787   4.2400

          k = 0.9932-0.5734-0.2077 (  5098 PWs)   bands (ev):

   -33.6909 -33.6899 -17.1027 -17.0607 -15.1310 -14.9852 -14.9461 -14.8125
   -14.6920 -14.6326 -13.7701 -13.6034 -13.5911 -13.4581  -3.1634  -3.0940
    -1.4739  -1.3902  -1.3516  -1.3401  -0.9944  -0.9458   2.3904   2.4483
     2.6018   2.6236   2.8915   3.0056   3.1307   3.2543   4.1070   4.1531

          k =-0.0000-0.0000 0.4984 (  5100 PWs)   bands (ev):

   -33.6917 -33.6895 -17.0894 -17.0876 -15.0107 -15.0107 -14.9511 -14.9511
   -14.6204 -14.6017 -13.6535 -13.6535 -13.5651 -13.5651  -3.2549  -3.2120
    -1.4296  -1.4296  -1.3846  -1.3846  -1.1244  -0.9047   2.5336   2.5336
     2.6071   2.6071   3.1955   3.1955   3.2981   3.2981   3.9310   4.0021

          k = 1.1351 0.6554 0.1661 (  5104 PWs)   bands (ev):

   -33.6909 -33.6902 -17.0891 -17.0844 -15.0581 -15.0235 -14.9350 -14.8937
   -14.6340 -14.6176 -13.6937 -13.6420 -13.5716 -13.5247  -3.2166  -3.1944
    -1.4289  -1.3961  -1.3961  -1.3863  -1.0351  -0.9688   2.5207   2.5475
     2.5769   2.5876   3.1007   3.1588   3.2301   3.2714   4.0047   4.0293

     highest occupied level (ev):     4.4781

!    total energy              =    -367.43036559 Ry
     Harris-Foulkes estimate   =    -367.43036559 Ry
     estimated scf accuracy    <          8.7E-09 Ry

     The total energy is the sum of the following terms:

     one-electron contribution =    -148.19818713 Ry
     hartree contribution      =     103.48110604 Ry
     xc contribution           =     -75.27162252 Ry
     ewald contribution        =    -247.44166197 Ry

     convergence has been achieved in   9 iterations

     Forces acting on atoms (cartesian axes, Ry/au):

     atom    1 type  1   force =     0.00000000    0.00000000    0.00000000
     atom    2 type  1   force =    -0.00000000    0.00000000   -0.00000000
     atom    3 type  2   force =    -0.00000000   -0.00000000    0.00000000
     atom    4 type  2   force =     0.00000000    0.00000000    0.00000000
     atom    5 type  3   force =     0.00044777   -0.00077556   -0.00000000
     atom    6 type  3   force =    -0.00089554    0.00000000   -0.00000000
     atom    7 type  3   force =     0.00044777    0.00077556    0.00000000
     atom    8 type  3   force =     0.00089554    0.00000000   -0.00000000
     atom    9 type  3   force =    -0.00044777   -0.00077556   -0.00000000
     atom   10 type  3   force =    -0.00044777    0.00077556    0.00000000

     Total force =     0.002194     Total SCF correction =     0.000108


     Computing stress (Cartesian axis) and pressure

          total   stress  (Ry/bohr**3)                   (kbar)     P=   -0.16
   0.00000046   0.00000000   0.00000000          0.07      0.00      0.00
  -0.00000000   0.00000046   0.00000000         -0.00      0.07      0.00
  -0.00000000   0.00000000  -0.00000418         -0.00      0.00     -0.61


     Writing output data file CCO.save/
 
     init_run     :     16.56s CPU     20.77s WALL (       2 calls)
     electrons    :    727.95s CPU    821.21s WALL (       3 calls)
     update_pot   :      0.09s CPU      0.11s WALL (       1 calls)
     forces       :      2.40s CPU      2.67s WALL (       3 calls)
     stress       :      4.77s CPU      4.96s WALL (       3 calls)

     Called by init_run:
     wfcinit      :     15.95s CPU     18.90s WALL (       2 calls)
     potinit      :      0.06s CPU      0.19s WALL (       2 calls)
     hinit0       :      0.45s CPU      1.06s WALL (       2 calls)

     Called by electrons:
     c_bands      :    679.69s CPU    769.09s WALL (      28 calls)
     sum_band     :     47.49s CPU     50.88s WALL (      28 calls)
     v_of_rho     :      0.43s CPU      0.55s WALL (      31 calls)
     newd         :      0.24s CPU      0.50s WALL (      31 calls)
     mix_rho      :      0.06s CPU      0.14s WALL (      28 calls)

     Called by c_bands:
     init_us_2    :      1.39s CPU      1.64s WALL (    5440 calls)
     ccgdiagg     :    545.87s CPU    607.53s WALL (    2412 calls)
     wfcrot       :    148.05s CPU    175.21s WALL (    2327 calls)

     Called by sum_band:
     sum_band:bec :      0.59s CPU      0.67s WALL (    2380 calls)
     addusdens    :      0.21s CPU      0.30s WALL (      28 calls)

     Called by *cgdiagg:
     h_psi        :    486.67s CPU    531.10s WALL (  246936 calls)
     s_psi        :     33.74s CPU     39.66s WALL (  491545 calls)
     cdiaghg      :     48.81s CPU     68.70s WALL (    2327 calls)

     Called by h_psi:
     h_psi:pot    :    479.53s CPU    522.55s WALL (  246936 calls)
     h_psi:calbec :     46.85s CPU     51.88s WALL (  246936 calls)
     vloc_psi     :    400.28s CPU    435.19s WALL (  246936 calls)
     add_vuspsi   :     23.40s CPU     26.36s WALL (  246936 calls)
     hs_1psi      :    429.93s CPU    471.77s WALL (  244609 calls)
     s_1psi       :     53.78s CPU     62.42s WALL (  244609 calls)

     General routines
     calbec       :     69.01s CPU     79.14s WALL (  495200 calls)
     fft          :      0.45s CPU      0.84s WALL (     417 calls)
     ffts         :      0.03s CPU      0.03s WALL (      28 calls)
     fftw         :    419.99s CPU    455.14s WALL (  721106 calls)
 
     Parallel routines
     fft_scatt_xy :     21.47s CPU     23.21s WALL (  721551 calls)
     fft_scatt_yz :    299.85s CPU    325.43s WALL (  721551 calls)
 
     PWSCF        :  12m35.30s CPU  14m18.88s WALL

 
   This run was terminated on:  20:22: 1  23Apr2022            

=------------------------------------------------------------------------------=
   JOB DONE.
=------------------------------------------------------------------------------=
