
     Program PWSCF v.6.4.1 starts on 28Apr2022 at 13:49:24 

     This program is part of the open-source Quantum ESPRESSO suite
     for quantum simulation of materials; please cite
         "P. Giannozzi et al., J. Phys.:Condens. Matter 21 395502 (2009);
         "P. Giannozzi et al., J. Phys.:Condens. Matter 29 465901 (2017);
          URL http://www.quantum-espresso.org", 
     in publications or presentations arising from this work. More details at
     http://www.quantum-espresso.org/quote

     Parallel version (MPI & OpenMP), running on     300 processor cores
     Number of MPI processes:               300
     Threads/MPI process:                     1

     MPI processes distributed on     5 nodes
     R & G space division:  proc/nbgrp/npool/nimage =     300
     Waiting for input...
     Reading input from standard input

     Current dimensions of program PWSCF are:
     Max number of different atomic species (ntypx) = 10
     Max number of k-points (npk) =  40000
     Max angular momentum in pseudopotentials (lmaxx) =  3

     Subspace diagonalization in iterative solution of the eigenvalue problem:
     one sub-group per band group will be used
     scalapack distributed-memory algorithm (size of sub-group: 12* 12 procs)

 
     Parallelization info
     --------------------
     sticks:   dense  smooth     PW     G-vecs:    dense   smooth      PW
     Min           7       7      2                  218      218      34
     Max           8       8      3                  230      230      41
     Sum        2387    2387    697                67725    67725   10723
 


     bravais-lattice index     =            5
     lattice parameter (alat)  =      12.1700  a.u.
     unit-cell volume          =     854.2770 (a.u.)^3
     number of atoms/cell      =           10
     number of atomic types    =            3
     number of electrons       =        64.00
     number of Kohn-Sham states=           32
     kinetic-energy cutoff     =      70.0000  Ry
     charge density cutoff     =     280.0000  Ry
     convergence threshold     =      1.0E-08
     mixing beta               =       0.7000
     number of iterations used =            8  plain     mixing
     Exchange-correlation      = SLA  PW   PBE  PBE ( 1  4  3  4 0 0)
     nstep                     =           50


     celldm(1)=  12.170000  celldm(2)=   0.000000  celldm(3)=   0.000000
     celldm(4)=   0.693200  celldm(5)=   0.000000  celldm(6)=   0.000000

     crystal axes: (cart. coord. in units of alat)
               a(1) = (   0.391663  -0.226127   0.891889 )  
               a(2) = (   0.000000   0.452254   0.891889 )  
               a(3) = (  -0.391663  -0.226127   0.891889 )  

     reciprocal axes: (cart. coord. in units 2 pi/alat)
               b(1) = (  1.276607 -0.737050  0.373738 )  
               b(2) = (  0.000000  1.474099  0.373738 )  
               b(3) = ( -1.276607 -0.737050  0.373738 )  


     PseudoPot. # 1 for Ca read from file:
     ./Ca_PBE.UPF
     MD5 check sum: 403a4c14b9e4d4dfdc3024c9a3812218
     Pseudo is Ultrasoft + core correction, Zval = 10.0
     Generated by new atomic code, or converted to UPF format
     Using radial grid of  845 points,  6 beta functions with: 
                l(1) =   0
                l(2) =   0
                l(3) =   1
                l(4) =   1
                l(5) =   2
                l(6) =   2
     Q(r) pseudized with  8 coefficients,  rinner =    1.500   1.500   1.500
                                                       1.500   1.500

     PseudoPot. # 2 for C  read from file:
     ./C_PBE.UPF
     MD5 check sum: d1aef80898a10debaa0f26306b886e00
     Pseudo is Ultrasoft + core correction, Zval =  4.0
     Generated by new atomic code, or converted to UPF format
     Using radial grid of  721 points,  4 beta functions with: 
                l(1) =   0
                l(2) =   0
                l(3) =   1
                l(4) =   1
     Q(r) pseudized with  8 coefficients,  rinner =    1.100   1.100   1.100


     PseudoPot. # 3 for O  read from file:
     ./O_PBE.UPF
     MD5 check sum: 734c27235a0248c51dbae37a1fbe46ec
     Pseudo is Ultrasoft + core correction, Zval =  6.0
     Generated by new atomic code, or converted to UPF format
     Using radial grid of  737 points,  5 beta functions with: 
                l(1) =   0
                l(2) =   0
                l(3) =   1
                l(4) =   1
                l(5) =   2
     Q(r) pseudized with  8 coefficients,  rinner =    0.900   0.900   0.900
                                                       0.900   0.900

     atomic species   valence    mass     pseudopotential
        Ca            10.00    40.07800     Ca( 1.00)
        C              4.00    12.01070     C ( 1.00)
        O              6.00    16.00000     O ( 1.00)

     12 Sym. Ops., with inversion, found ( 6 have fractional translation)



   Cartesian axes

     site n.     atom                  positions (alat units)
         1           Ca  tau(   1) = (   0.0000000  -0.0000000   1.3378341  )
         2           Ca  tau(   2) = (   0.0000000   0.0000000   0.0000000  )
         3           C   tau(   3) = (   0.0000000  -0.0000000   0.6689170  )
         4           C   tau(   4) = (   0.0000000  -0.0000000   2.0067511  )
         5           O   tau(   5) = (   0.1006641   0.2778983   1.5608064  )
         6           O   tau(   6) = (   0.1903350  -0.2261268   1.5608064  )
         7           O   tau(   7) = (  -0.2909991  -0.0517715   1.5608064  )
         8           O   tau(   8) = (  -0.1903350   0.2261268   1.1148617  )
         9           O   tau(   9) = (   0.2909991   0.0517715   1.1148617  )
        10           O   tau(  10) = (  -0.1006641  -0.2778983   1.1148617  )

     number of k points=    85
                       cart. coord. in units 2pi/alat
        k(    1) = (   0.0000000   0.0000000   0.0000000), wk =   0.0027435
        k(    2) = (  -0.1418453  -0.0818944   0.0415265), wk =   0.0164609
        k(    3) = (  -0.2836905  -0.1637888   0.0830530), wk =   0.0164609
        k(    4) = (  -0.4255358  -0.2456832   0.1245795), wk =   0.0164609
        k(    5) = (  -0.5673810  -0.3275776   0.1661060), wk =   0.0164609
        k(    6) = (  -0.1418453   0.0818944   0.0830530), wk =   0.0164609
        k(    7) = (  -0.2836905  -0.0000000   0.1245795), wk =   0.0329218
        k(    8) = (  -0.4255358  -0.0818944   0.1661060), wk =   0.0329218
        k(    9) = (  -0.5673810  -0.1637888   0.2076325), wk =   0.0329218
        k(   10) = (   0.5673810   0.4913664  -0.1245795), wk =   0.0329218
        k(   11) = (   0.4255358   0.4094720  -0.0830530), wk =   0.0329218
        k(   12) = (   0.2836905   0.3275776  -0.0415265), wk =   0.0329218
        k(   13) = (   0.1418453   0.2456832   0.0000000), wk =   0.0164609
        k(   14) = (  -0.2836905   0.1637888   0.1661060), wk =   0.0164609
        k(   15) = (  -0.4255358   0.0818944   0.2076325), wk =   0.0329218
        k(   16) = (  -0.5673810  -0.0000000   0.2491590), wk =   0.0329218
        k(   17) = (   0.5673810   0.6551552  -0.0830530), wk =   0.0329218
        k(   18) = (   0.4255358   0.5732608  -0.0415265), wk =   0.0329218
        k(   19) = (   0.2836905   0.4913664   0.0000000), wk =   0.0164609
        k(   20) = (  -0.4255358   0.2456832   0.2491590), wk =   0.0164609
        k(   21) = (  -0.5673810   0.1637888   0.2906854), wk =   0.0329218
        k(   22) = (   0.5673810   0.8189440  -0.0415265), wk =   0.0329218
        k(   23) = (   0.4255358   0.7370496   0.0000000), wk =   0.0164609
        k(   24) = (  -0.5673810   0.3275776   0.3322119), wk =   0.0164609
        k(   25) = (   0.5673810   0.9827328   0.0000000), wk =   0.0164609
        k(   26) = (  -0.0000000  -0.0000000   0.1245795), wk =   0.0054870
        k(   27) = (  -0.1418453  -0.0818944   0.1661060), wk =   0.0164609
        k(   28) = (  -0.2836905  -0.1637888   0.2076325), wk =   0.0164609
        k(   29) = (  -0.4255358  -0.2456832   0.2491590), wk =   0.0164609
        k(   30) = (   0.7092263   0.4094720  -0.0830530), wk =   0.0164609
        k(   31) = (   0.5673810   0.3275776  -0.0415265), wk =   0.0164609
        k(   32) = (   0.4255358   0.2456832   0.0000000), wk =   0.0164609
        k(   33) = (   0.2836905   0.1637888   0.0415265), wk =   0.0164609
        k(   34) = (  -0.1418453   0.0818944   0.2076325), wk =   0.0164609
        k(   35) = (  -0.2836905  -0.0000000   0.2491590), wk =   0.0329218
        k(   36) = (  -0.4255358  -0.0818944   0.2906854), wk =   0.0329218
        k(   37) = (   0.7092263   0.5732608  -0.0415265), wk =   0.0329218
        k(   38) = (   0.5673810   0.4913664   0.0000000), wk =   0.0329218
        k(   39) = (   0.4255358   0.4094720   0.0415265), wk =   0.0329218
        k(   40) = (   0.2836905   0.3275776   0.0830530), wk =   0.0329218
        k(   41) = (  -0.2836905   0.1637888   0.2906854), wk =   0.0164609
        k(   42) = (  -0.4255358   0.0818944   0.3322119), wk =   0.0329218
        k(   43) = (   0.7092263   0.7370496   0.0000000), wk =   0.0329218
        k(   44) = (   0.5673810   0.6551552   0.0415265), wk =   0.0329218
        k(   45) = (   0.4255358   0.5732608   0.0830530), wk =   0.0329218
        k(   46) = (   0.2836905   0.4913664   0.1245795), wk =   0.0329218
        k(   47) = (  -0.4255358   0.2456832   0.3737384), wk =   0.0164609
        k(   48) = (   0.7092263   0.9008384   0.0415265), wk =   0.0329218
        k(   49) = (   0.5673810   0.8189440   0.0830530), wk =   0.0329218
        k(   50) = (   0.4255358   0.7370496   0.1245795), wk =   0.0329218
        k(   51) = (   0.2836905   0.6551552   0.1661060), wk =   0.0329218
        k(   52) = (   0.7092263  -0.4094720  -0.2906854), wk =   0.0164609
        k(   53) = (   0.5673810  -0.4913664  -0.2491590), wk =   0.0329218
        k(   54) = (   0.4255358  -0.5732608  -0.2076325), wk =   0.0329218
        k(   55) = (   0.5673810  -0.3275776  -0.2076325), wk =   0.0164609
        k(   56) = (   0.4255358  -0.4094720  -0.1661060), wk =   0.0329218
        k(   57) = (   0.4255358  -0.2456832  -0.1245795), wk =   0.0164609
        k(   58) = (  -0.0000000  -0.0000000   0.2491590), wk =   0.0054870
        k(   59) = (  -0.1418453  -0.0818944   0.2906854), wk =   0.0164609
        k(   60) = (  -0.2836905  -0.1637888   0.3322119), wk =   0.0164609
        k(   61) = (   0.8510715   0.4913664   0.0000000), wk =   0.0164609
        k(   62) = (   0.7092263   0.4094720   0.0415265), wk =   0.0164609
        k(   63) = (   0.5673810   0.3275776   0.0830530), wk =   0.0164609
        k(   64) = (  -0.1418453   0.0818944   0.3322119), wk =   0.0164609
        k(   65) = (  -0.2836905  -0.0000000   0.3737384), wk =   0.0329218
        k(   66) = (   0.8510715   0.6551552   0.0415265), wk =   0.0329218
        k(   67) = (   0.7092263   0.5732608   0.0830530), wk =   0.0329218
        k(   68) = (   0.5673810   0.4913664   0.1245795), wk =   0.0329218
        k(   69) = (  -0.2836905   0.1637888   0.4152649), wk =   0.0164609
        k(   70) = (   0.8510715   0.8189440   0.0830530), wk =   0.0329218
        k(   71) = (   0.7092263   0.7370496   0.1245795), wk =   0.0329218
        k(   72) = (   0.5673810   0.6551552   0.1661060), wk =   0.0329218
        k(   73) = (   0.8510715  -0.4913664  -0.2491590), wk =   0.0164609
        k(   74) = (   0.7092263  -0.5732608  -0.2076325), wk =   0.0329218
        k(   75) = (   0.7092263  -0.4094720  -0.1661060), wk =   0.0164609
        k(   76) = (  -0.0000000  -0.0000000   0.3737384), wk =   0.0054870
        k(   77) = (  -0.1418453  -0.0818944   0.4152649), wk =   0.0164609
        k(   78) = (   0.9929168   0.5732608   0.0830530), wk =   0.0164609
        k(   79) = (   0.8510715   0.4913664   0.1245795), wk =   0.0164609
        k(   80) = (  -0.1418453   0.0818944   0.4567914), wk =   0.0164609
        k(   81) = (   0.9929168   0.7370496   0.1245795), wk =   0.0329218
        k(   82) = (   0.8510715   0.6551552   0.1661060), wk =   0.0329218
        k(   83) = (   0.9929168  -0.5732608  -0.2076325), wk =   0.0164609
        k(   84) = (  -0.0000000  -0.0000000   0.4983179), wk =   0.0054870
        k(   85) = (   1.1347620   0.6551552   0.1661060), wk =   0.0164609

     Dense  grid:    67725 G-vectors     FFT dimensions: (  72,  72,  72)

     Estimated max dynamical RAM per process >      18.08 MB

     Estimated total dynamical RAM >       5.30 GB
     Message from routine sym_rho_init:
     some processors have no G-vectors for symmetrization
     Message from routine sym_rho_init:
     some processors have no G-vectors for symmetrization
     Message from routine sym_rho_init:
     some processors have no G-vectors for symmetrization
     Message from routine sym_rho_init:
     some processors have no G-vectors for symmetrization
     Message from routine sym_rho_init:
     some processors have no G-vectors for symmetrization
     Message from routine sym_rho_init:
     some processors have no G-vectors for symmetrization
     Message from routine sym_rho_init:
     some processors have no G-vectors for symmetrization
     Message from routine sym_rho_init:
     some processors have no G-vectors for symmetrization
     Message from routine sym_rho_init:
     some processors have no G-vectors for symmetrization
     Message from routine sym_rho_init:
     some processors have no G-vectors for symmetrization
     Message from routine sym_rho_init:
     some processors have no G-vectors for symmetrization
     Message from routine sym_rho_init:
     some processors have no G-vectors for symmetrization
     Message from routine sym_rho_init:
     some processors have no G-vectors for symmetrization
     Message from routine sym_rho_init:
     some processors have no G-vectors for symmetrization
     Message from routine sym_rho_init:
     some processors have no G-vectors for symmetrization
     Message from routine sym_rho_init:
     some processors have no G-vectors for symmetrization
     Message from routine sym_rho_init:
     some processors have no G-vectors for symmetrization
     Message from routine sym_rho_init:
     some processors have no G-vectors for symmetrization
     Message from routine sym_rho_init:
     some processors have no G-vectors for symmetrization
     Message from routine sym_rho_init:
     some processors have no G-vectors for symmetrization
     Message from routine sym_rho_init:
     some processors have no G-vectors for symmetrization
     Message from routine sym_rho_init:
     some processors have no G-vectors for symmetrization
     Message from routine sym_rho_init:
     some processors have no G-vectors for symmetrization
     Message from routine sym_rho_init:
     some processors have no G-vectors for symmetrization
     Message from routine sym_rho_init:
     some processors have no G-vectors for symmetrization
     Message from routine sym_rho_init:
     some processors have no G-vectors for symmetrization
     Message from routine sym_rho_init:
     some processors have no G-vectors for symmetrization
     Message from routine sym_rho_init:
     some processors have no G-vectors for symmetrization
     Message from routine sym_rho_init:
     some processors have no G-vectors for symmetrization
     Message from routine sym_rho_init:
     some processors have no G-vectors for symmetrization
     Message from routine sym_rho_init:
     some processors have no G-vectors for symmetrization
     Message from routine sym_rho_init:
     some processors have no G-vectors for symmetrization
     Message from routine sym_rho_init:
     some processors have no G-vectors for symmetrization
     Message from routine sym_rho_init:
     some processors have no G-vectors for symmetrization
     Message from routine sym_rho_init:
     some processors have no G-vectors for symmetrization
     Message from routine sym_rho_init:
     some processors have no G-vectors for symmetrization
     Message from routine sym_rho_init:
     some processors have no G-vectors for symmetrization
     Message from routine sym_rho_init:
     some processors have no G-vectors for symmetrization
     Message from routine sym_rho_init:
     some processors have no G-vectors for symmetrization
     Message from routine sym_rho_init:
     some processors have no G-vectors for symmetrization
     Message from routine sym_rho_init:
     some processors have no G-vectors for symmetrization
     Message from routine sym_rho_init:
     some processors have no G-vectors for symmetrization
     Message from routine sym_rho_init:
     some processors have no G-vectors for symmetrization
     Message from routine sym_rho_init:
     some processors have no G-vectors for symmetrization
     Message from routine sym_rho_init:
     some processors have no G-vectors for symmetrization
     Message from routine sym_rho_init:
     some processors have no G-vectors for symmetrization
     Message from routine sym_rho_init:
     some processors have no G-vectors for symmetrization
     Message from routine sym_rho_init:
     some processors have no G-vectors for symmetrization
     Message from routine sym_rho_init:
     some processors have no G-vectors for symmetrization
     Message from routine sym_rho_init:
     some processors have no G-vectors for symmetrization
     Message from routine sym_rho_init:
     some processors have no G-vectors for symmetrization
     Message from routine sym_rho_init:
     some processors have no G-vectors for symmetrization
     Message from routine sym_rho_init:
     some processors have no G-vectors for symmetrization
     Message from routine sym_rho_init:
     some processors have no G-vectors for symmetrization
     Message from routine sym_rho_init:
     some processors have no G-vectors for symmetrization
     Message from routine sym_rho_init:
     some processors have no G-vectors for symmetrization
     Message from routine sym_rho_init:
     some processors have no G-vectors for symmetrization
     Message from routine sym_rho_init:
     some processors have no G-vectors for symmetrization
     Message from routine sym_rho_init:
     some processors have no G-vectors for symmetrization
     Message from routine sym_rho_init:
     some processors have no G-vectors for symmetrization
     Message from routine sym_rho_init:
     some processors have no G-vectors for symmetrization
     Message from routine sym_rho_init:
     some processors have no G-vectors for symmetrization
     Message from routine sym_rho_init:
     some processors have no G-vectors for symmetrization
     Message from routine sym_rho_init:
     some processors have no G-vectors for symmetrization
     Message from routine sym_rho_init:
     some processors have no G-vectors for symmetrization
     Message from routine sym_rho_init:
     some processors have no G-vectors for symmetrization
     Message from routine sym_rho_init:
     some processors have no G-vectors for symmetrization
     Message from routine sym_rho_init:
     some processors have no G-vectors for symmetrization
     Message from routine sym_rho_init:
     some processors have no G-vectors for symmetrization
     Message from routine sym_rho_init:
     some processors have no G-vectors for symmetrization
     Message from routine sym_rho_init:
     some processors have no G-vectors for symmetrization
     Message from routine sym_rho_init:
     some processors have no G-vectors for symmetrization
     Message from routine sym_rho_init:
     some processors have no G-vectors for symmetrization
     Message from routine sym_rho_init:
     some processors have no G-vectors for symmetrization
     Message from routine sym_rho_init:
     some processors have no G-vectors for symmetrization
     Message from routine sym_rho_init:
     some processors have no G-vectors for symmetrization
     Message from routine sym_rho_init:
     some processors have no G-vectors for symmetrization
     Message from routine sym_rho_init:
     some processors have no G-vectors for symmetrization
     Message from routine sym_rho_init:
     some processors have no G-vectors for symmetrization
     Message from routine sym_rho_init:
     some processors have no G-vectors for symmetrization
     Message from routine sym_rho_init:
     some processors have no G-vectors for symmetrization
     Message from routine sym_rho_init:
     some processors have no G-vectors for symmetrization
     Message from routine sym_rho_init:
     some processors have no G-vectors for symmetrization
     Message from routine sym_rho_init:
     some processors have no G-vectors for symmetrization
     Message from routine sym_rho_init:
     some processors have no G-vectors for symmetrization
     Message from routine sym_rho_init:
     some processors have no G-vectors for symmetrization
     Message from routine sym_rho_init:
     some processors have no G-vectors for symmetrization
     Message from routine sym_rho_init:
     some processors have no G-vectors for symmetrization
     Message from routine sym_rho_init:
     some processors have no G-vectors for symmetrization
     Message from routine sym_rho_init:
     some processors have no G-vectors for symmetrization
     Message from routine sym_rho_init:
     some processors have no G-vectors for symmetrization
     Message from routine sym_rho_init:
     some processors have no G-vectors for symmetrization
     Message from routine sym_rho_init:
     some processors have no G-vectors for symmetrization
     Message from routine sym_rho_init:
     some processors have no G-vectors for symmetrization
     Message from routine sym_rho_init:
     some processors have no G-vectors for symmetrization
     Message from routine sym_rho_init:
     some processors have no G-vectors for symmetrization
     Message from routine sym_rho_init:
     some processors have no G-vectors for symmetrization
     Message from routine sym_rho_init:
     some processors have no G-vectors for symmetrization
     Message from routine sym_rho_init:
     some processors have no G-vectors for symmetrization
     Message from routine sym_rho_init:
     some processors have no G-vectors for symmetrization
     Message from routine sym_rho_init:
     some processors have no G-vectors for symmetrization
     Message from routine sym_rho_init:
     some processors have no G-vectors for symmetrization
     Message from routine sym_rho_init:
     some processors have no G-vectors for symmetrization
     Message from routine sym_rho_init:
     some processors have no G-vectors for symmetrization
     Message from routine sym_rho_init:
     some processors have no G-vectors for symmetrization
     Message from routine sym_rho_init:
     some processors have no G-vectors for symmetrization
     Message from routine sym_rho_init:
     some processors have no G-vectors for symmetrization
     Message from routine sym_rho_init:
     some processors have no G-vectors for symmetrization
     Message from routine sym_rho_init:
     some processors have no G-vectors for symmetrization
     Message from routine sym_rho_init:
     some processors have no G-vectors for symmetrization
     Message from routine sym_rho_init:
     some processors have no G-vectors for symmetrization
     Message from routine sym_rho_init:
     some processors have no G-vectors for symmetrization
     Message from routine sym_rho_init:
     some processors have no G-vectors for symmetrization
     Message from routine sym_rho_init:
     some processors have no G-vectors for symmetrization
     Message from routine sym_rho_init:
     some processors have no G-vectors for symmetrization
     Message from routine sym_rho_init:
     some processors have no G-vectors for symmetrization
     Message from routine sym_rho_init:
     some processors have no G-vectors for symmetrization
     Message from routine sym_rho_init:
     some processors have no G-vectors for symmetrization
     Message from routine sym_rho_init:
     some processors have no G-vectors for symmetrization
     Message from routine sym_rho_init:
     some processors have no G-vectors for symmetrization
     Message from routine sym_rho_init:
     some processors have no G-vectors for symmetrization
     Message from routine sym_rho_init:
     some processors have no G-vectors for symmetrization
     Message from routine sym_rho_init:
     some processors have no G-vectors for symmetrization
     Message from routine sym_rho_init:
     some processors have no G-vectors for symmetrization
     Message from routine sym_rho_init:
     some processors have no G-vectors for symmetrization
     Message from routine sym_rho_init:
     some processors have no G-vectors for symmetrization
     Message from routine sym_rho_init:
     some processors have no G-vectors for symmetrization
     Message from routine sym_rho_init:
     some processors have no G-vectors for symmetrization
     Message from routine sym_rho_init:
     some processors have no G-vectors for symmetrization
     Message from routine sym_rho_init:
     some processors have no G-vectors for symmetrization
     Message from routine sym_rho_init:
     some processors have no G-vectors for symmetrization
     Message from routine sym_rho_init:
     some processors have no G-vectors for symmetrization
     Message from routine sym_rho_init:
     some processors have no G-vectors for symmetrization
     Message from routine sym_rho_init:
     some processors have no G-vectors for symmetrization
     Message from routine sym_rho_init:
     some processors have no G-vectors for symmetrization
     Message from routine sym_rho_init:
     some processors have no G-vectors for symmetrization
     Message from routine sym_rho_init:
     some processors have no G-vectors for symmetrization
     Message from routine sym_rho_init:
     some processors have no G-vectors for symmetrization
     Message from routine sym_rho_init:
     some processors have no G-vectors for symmetrization
     Message from routine sym_rho_init:
     some processors have no G-vectors for symmetrization
     Message from routine sym_rho_init:
     some processors have no G-vectors for symmetrization
     Message from routine sym_rho_init:
     some processors have no G-vectors for symmetrization
     Message from routine sym_rho_init:
     some processors have no G-vectors for symmetrization
     Message from routine sym_rho_init:
     some processors have no G-vectors for symmetrization
     Message from routine sym_rho_init:
     some processors have no G-vectors for symmetrization
     Message from routine sym_rho_init:
     some processors have no G-vectors for symmetrization
     Message from routine sym_rho_init:
     some processors have no G-vectors for symmetrization
     Message from routine sym_rho_init:
     some processors have no G-vectors for symmetrization
     Message from routine sym_rho_init:
     some processors have no G-vectors for symmetrization
     Message from routine sym_rho_init:
     some processors have no G-vectors for symmetrization
     Message from routine sym_rho_init:
     some processors have no G-vectors for symmetrization
     Message from routine sym_rho_init:
     some processors have no G-vectors for symmetrization

     Check: negative core charge=   -0.000003

     Initial potential from superposition of free atoms

     starting charge   63.98899, renormalised to   64.00000
     Starting wfcs are   52 randomized atomic wfcs

     total cpu time spent up to now is       21.8 secs

     Self-consistent Calculation

     iteration #  1     ecut=    70.00 Ry     beta= 0.70
     CG style diagonalization
     ethr =  1.00E-02,  avg # of iterations =  2.7

     total cpu time spent up to now is       51.5 secs

     total energy              =    -366.67206721 Ry
     Harris-Foulkes estimate   =    -367.89572477 Ry
     estimated scf accuracy    <       1.75461231 Ry

     iteration #  2     ecut=    70.00 Ry     beta= 0.70
     CG style diagonalization
     ethr =  2.74E-03,  avg # of iterations =  4.4

     total cpu time spent up to now is      101.9 secs

     total energy              =    -367.10413394 Ry
     Harris-Foulkes estimate   =    -367.91501486 Ry
     estimated scf accuracy    <       1.66699809 Ry

     iteration #  3     ecut=    70.00 Ry     beta= 0.70
     CG style diagonalization
     ethr =  2.60E-03,  avg # of iterations =  3.8

     total cpu time spent up to now is      146.4 secs

     total energy              =    -367.42128943 Ry
     Harris-Foulkes estimate   =    -367.42329969 Ry
     estimated scf accuracy    <       0.01092355 Ry

     iteration #  4     ecut=    70.00 Ry     beta= 0.70
     CG style diagonalization
     ethr =  1.71E-05,  avg # of iterations =  4.4

     total cpu time spent up to now is      198.5 secs

     total energy              =    -367.43311453 Ry
     Harris-Foulkes estimate   =    -367.43412396 Ry
     estimated scf accuracy    <       0.00276347 Ry

     iteration #  5     ecut=    70.00 Ry     beta= 0.70
     CG style diagonalization
     ethr =  4.32E-06,  avg # of iterations =  3.6

     total cpu time spent up to now is      242.9 secs

     total energy              =    -367.43347904 Ry
     Harris-Foulkes estimate   =    -367.43352399 Ry
     estimated scf accuracy    <       0.00017189 Ry

     iteration #  6     ecut=    70.00 Ry     beta= 0.70
     CG style diagonalization
     ethr =  2.69E-07,  avg # of iterations =  4.1

     total cpu time spent up to now is      291.5 secs

     total energy              =    -367.43351731 Ry
     Harris-Foulkes estimate   =    -367.43353242 Ry
     estimated scf accuracy    <       0.00002496 Ry

     iteration #  7     ecut=    70.00 Ry     beta= 0.70
     CG style diagonalization
     ethr =  3.90E-08,  avg # of iterations =  4.1

     total cpu time spent up to now is      340.5 secs

     total energy              =    -367.43352807 Ry
     Harris-Foulkes estimate   =    -367.43353040 Ry
     estimated scf accuracy    <       0.00000576 Ry

     iteration #  8     ecut=    70.00 Ry     beta= 0.70
     CG style diagonalization
     ethr =  9.00E-09,  avg # of iterations =  3.7

     total cpu time spent up to now is      385.5 secs

     total energy              =    -367.43352914 Ry
     Harris-Foulkes estimate   =    -367.43352921 Ry
     estimated scf accuracy    <       0.00000017 Ry

     iteration #  9     ecut=    70.00 Ry     beta= 0.70
     CG style diagonalization
     ethr =  2.62E-10,  avg # of iterations =  4.2

     total cpu time spent up to now is      435.8 secs

     total energy              =    -367.43352922 Ry
     Harris-Foulkes estimate   =    -367.43352922 Ry
     estimated scf accuracy    <       0.00000002 Ry

     iteration # 10     ecut=    70.00 Ry     beta= 0.70
     CG style diagonalization
     ethr =  2.84E-11,  avg # of iterations =  4.0

     total cpu time spent up to now is      483.3 secs

     End of self-consistent calculation

          k = 0.0000 0.0000 0.0000 (  8423 PWs)   bands (ev):

   -33.6922 -33.6796 -17.0877 -17.0771 -15.1250 -15.1250 -14.7581 -14.7581
   -14.6642 -14.5560 -13.9064 -13.9064 -13.3736 -13.3736  -3.3131  -3.0392
    -1.6938  -1.5348  -1.5348  -1.2747  -1.2747  -0.4065   2.3558   2.3558
     2.7923   2.7923   2.9625   2.9625   3.5746   3.5746   3.7762   4.2035

          k =-0.1418-0.0819 0.0415 (  8455 PWs)   bands (ev):

   -33.6918 -33.6800 -17.0869 -17.0742 -15.1243 -15.0861 -14.7981 -14.7561
   -14.6795 -14.6233 -13.8798 -13.8044 -13.4234 -13.3827  -3.2630  -3.0461
    -1.6481  -1.5155  -1.4953  -1.2971  -1.2674  -0.4596   2.3806   2.4121
     2.7362   2.7774   2.8684   2.9146   3.4946   3.5130   3.8891   4.2079

          k =-0.2837-0.1638 0.0831 (  8442 PWs)   bands (ev):

   -33.6905 -33.6809 -17.1035 -17.0458 -15.1228 -15.0156 -14.9231 -14.7667
   -14.6891 -14.6660 -13.8132 -13.6443 -13.5365 -13.4104  -3.1429  -3.0480
    -1.5614  -1.4618  -1.3845  -1.3216  -1.2621  -0.5830   2.4211   2.5002
     2.6158   2.6468   2.7788   2.7876   3.3466   3.3780   4.0935   4.2204

          k =-0.4255-0.2457 0.1246 (  8455 PWs)   bands (ev):

   -33.6887 -33.6825 -17.1046 -17.0308 -15.1131 -15.0064 -14.9894 -14.8339
   -14.6668 -14.6495 -13.7322 -13.6158 -13.5553 -13.4599  -3.0219  -3.0193
    -1.5401  -1.4158  -1.2772  -1.2714  -1.2073  -0.7129   2.2874   2.3624
     2.5731   2.5961   2.7215   2.8272   3.1983   3.2322   4.2466   4.2614

          k =-0.5674-0.3276 0.1661 (  8438 PWs)   bands (ev):

   -33.6866 -33.6844 -17.0812 -17.0472 -15.0551 -15.0174 -15.0023 -14.9416
   -14.6538 -14.6383 -13.6423 -13.5983 -13.5545 -13.5392  -2.9730  -2.9607
    -1.5266  -1.4648  -1.2407  -1.2304  -1.0094  -0.8423   2.1520   2.2103
     2.5355   2.5644   2.8059   2.8576   3.1090   3.1235   4.2944   4.3234

          k =-0.1418 0.0819 0.0831 (  8443 PWs)   bands (ev):

   -33.6917 -33.6801 -17.0879 -17.0736 -15.1045 -15.1020 -14.7950 -14.7590
   -14.6742 -14.6404 -13.8429 -13.8259 -13.4101 -13.4033  -3.2606  -3.0530
    -1.6327  -1.5093  -1.4996  -1.3015  -1.2651  -0.4706   2.3812   2.4177
     2.7404   2.7445   2.8947   2.9214   3.4668   3.5296   3.8902   4.2019

          k =-0.2837-0.0000 0.1246 (  8450 PWs)   bands (ev):

   -33.6908 -33.6808 -17.1015 -17.0522 -15.1083 -15.0553 -14.8608 -14.7632
   -14.7043 -14.6694 -13.8042 -13.7064 -13.4881 -13.4176  -3.1736  -3.0607
    -1.5589  -1.4771  -1.4228  -1.3231  -1.2547  -0.5648   2.4119   2.4903
     2.6224   2.7120   2.7663   2.8656   3.3406   3.4423   4.0423   4.2075

          k =-0.4255-0.0819 0.1661 (  8464 PWs)   bands (ev):

   -33.6892 -33.6821 -17.1061 -17.0348 -15.1066 -15.0648 -14.9032 -14.8155
   -14.6729 -14.6685 -13.7314 -13.6938 -13.4980 -13.4553  -3.0596  -3.0366
    -1.5229  -1.4187  -1.3585  -1.2505  -1.2333  -0.6827   2.3476   2.4510
     2.5353   2.6129   2.7240   2.8217   3.1947   3.3130   4.2153   4.2363

          k =-0.5674-0.1638 0.2076 (  8448 PWs)   bands (ev):

   -33.6872 -33.6838 -17.0861 -17.0452 -15.0957 -15.0511 -14.9326 -14.9003
   -14.6579 -14.6473 -13.7047 -13.6468 -13.5214 -13.4784  -2.9841  -2.9763
    -1.5121  -1.4524  -1.2929  -1.2327  -1.0516  -0.7930   2.1984   2.2781
     2.5108   2.5489   2.7554   2.8397   3.1090   3.2016   4.2925   4.3124

          k = 0.5674 0.4914-0.1246 (  8448 PWs)   bands (ev):

   -33.6858 -33.6851 -17.0790 -17.0480 -15.0884 -15.0268 -14.9889 -14.9058
   -14.6600 -14.6363 -13.6973 -13.6172 -13.5458 -13.4808  -2.9762  -2.9255
    -1.5265  -1.4623  -1.2591  -1.2132  -0.9329  -0.8902   2.1316   2.2000
     2.4822   2.5435   2.7709   2.8356   3.1161   3.1513   4.3063   4.3560

          k = 0.4255 0.4095-0.0831 (  8449 PWs)   bands (ev):

   -33.6878 -33.6832 -17.1096 -17.0186 -15.1347 -15.0321 -14.9788 -14.8277
   -14.6788 -14.6245 -13.7566 -13.6233 -13.5338 -13.4494  -3.0136  -2.9431
    -1.5545  -1.3948  -1.2790  -1.2267  -1.1202  -0.7710   2.1529   2.3371
     2.4818   2.5763   2.6993   2.8695   3.1335   3.2143   4.2578   4.3500

          k = 0.2837 0.3276-0.0415 (  8456 PWs)   bands (ev):

   -33.6897 -33.6816 -17.1169 -17.0218 -15.1174 -15.0632 -14.9078 -14.7897
   -14.6939 -14.6617 -13.7493 -13.6839 -13.4966 -13.4487  -3.0471  -3.0413
    -1.5441  -1.4069  -1.3308  -1.3004  -1.2395  -0.6609   2.3357   2.4665
     2.5471   2.6387   2.6507   2.8302   3.2254   3.3310   4.2239   4.2338

          k = 0.1418 0.2457 0.0000 (  8465 PWs)   bands (ev):

   -33.6911 -33.6805 -17.1027 -17.0502 -15.1057 -15.0660 -14.8178 -14.8016
   -14.6932 -14.6762 -13.8099 -13.7172 -13.4769 -13.4142  -3.1732  -3.0519
    -1.5833  -1.4784  -1.4355  -1.3275  -1.2482  -0.5404   2.4112   2.4921
     2.6192   2.7463   2.7529   2.8226   3.3742   3.4456   4.0399   4.2167

          k =-0.2837 0.1638 0.1661 (  8445 PWs)   bands (ev):

   -33.6903 -33.6812 -17.1145 -17.0362 -15.0890 -15.0730 -14.8188 -14.7958
   -14.7356 -14.6829 -13.7431 -13.7097 -13.4829 -13.4557  -3.1189  -3.0829
    -1.4962  -1.4661  -1.4474  -1.2851  -1.2418  -0.6205   2.4250   2.4292
     2.6237   2.6401   2.7590   2.9097   3.2380   3.4394   4.1092   4.1920

          k =-0.4255 0.0819 0.2076 (  8452 PWs)   bands (ev):

   -33.6892 -33.6821 -17.1239 -17.0173 -15.1283 -15.0693 -14.8509 -14.7940
   -14.6999 -14.6829 -13.7614 -13.6854 -13.4933 -13.4443  -3.0783  -3.0223
    -1.5028  -1.4206  -1.3935  -1.2294  -1.1983  -0.7083   2.2878   2.4192
     2.5536   2.6405   2.7126   2.9024   3.1079   3.3645   4.1999   4.2458

          k =-0.5674-0.0000 0.2492 (  8454 PWs)   bands (ev):

   -33.6877 -33.6834 -17.1098 -17.0231 -15.1539 -15.0264 -14.9270 -14.8180
   -14.6801 -14.6515 -13.8031 -13.6069 -13.5492 -13.4173  -3.0217  -2.9503
    -1.5016  -1.4274  -1.3524  -1.2196  -1.0496  -0.7799   2.1635   2.3276
     2.5053   2.5587   2.6987   2.8404   3.0850   3.2765   4.2570   4.3479

          k = 0.5674 0.6552-0.0831 (  8435 PWs)   bands (ev):

   -33.6859 -33.6849 -17.0702 -17.0585 -15.1250 -15.0267 -14.9529 -14.8593
   -14.6764 -14.6534 -13.7581 -13.6460 -13.5152 -13.4347  -2.9421  -2.9379
    -1.5035  -1.4562  -1.3197  -1.2070  -0.9083  -0.8606   2.1481   2.1883
     2.4625   2.5001   2.7045   2.7591   3.1393   3.2197   4.3497   4.3579

          k = 0.4255 0.5733-0.0415 (  8436 PWs)   bands (ev):

   -33.6867 -33.6842 -17.0994 -17.0259 -15.1447 -15.0438 -14.9838 -14.7857
   -14.6942 -14.6295 -13.7971 -13.6391 -13.5198 -13.4133  -2.9841  -2.8935
    -1.5548  -1.3838  -1.3090  -1.2095  -0.9973  -0.8135   2.1038   2.2692
     2.4196   2.5048   2.6834   2.7863   3.1807   3.1980   4.3012   4.4080

          k = 0.2837 0.4914 0.0000 (  8445 PWs)   bands (ev):

   -33.6883 -33.6827 -17.1206 -17.0071 -15.1657 -15.0399 -14.9686 -14.7494
   -14.7089 -14.6209 -13.8134 -13.6379 -13.5215 -13.4124  -3.0294  -2.9350
    -1.5581  -1.3642  -1.2955  -1.2290  -1.1678  -0.7455   2.1652   2.4379
     2.4463   2.5327   2.6478   2.8579   3.1575   3.2593   4.2478   4.3641

          k =-0.4255 0.2457 0.2492 (  8455 PWs)   bands (ev):

   -33.6887 -33.6825 -17.1438 -16.9908 -15.1518 -15.1257 -14.7957 -14.7373
   -14.7160 -14.6863 -13.7975 -13.7388 -13.4571 -13.4167  -3.1110  -2.9375
    -1.5391  -1.3914  -1.3491  -1.2146  -1.1236  -0.7714   2.1487   2.3801
     2.4995   2.7094   2.7169   2.9629   2.9913   3.3491   4.1654   4.3314

          k =-0.5674 0.1638 0.2907 (  8453 PWs)   bands (ev):

   -33.6878 -33.6832 -17.1434 -16.9851 -15.1899 -15.1197 -14.8137 -14.7522
   -14.6922 -14.6408 -13.8732 -13.7170 -13.4607 -13.3794  -3.0905  -2.8700
    -1.5475  -1.4013  -1.3121  -1.2029  -1.0247  -0.8136   2.0423   2.3058
     2.4824   2.6816   2.7098   2.8079   3.0760   3.2957   4.1839   4.4144

          k = 0.5674 0.8189-0.0415 (  8444 PWs)   bands (ev):

   -33.6867 -33.6842 -17.1128 -17.0159 -15.1681 -15.0651 -14.8703 -14.8040
   -14.7043 -14.6497 -13.8350 -13.6682 -13.4888 -13.3943  -3.0109  -2.8681
    -1.5004  -1.4582  -1.3302  -1.1974  -0.9195  -0.8301   2.0368   2.2253
     2.4832   2.5723   2.6764   2.6980   3.1506   3.2508   4.2736   4.4314

          k = 0.4255 0.7370 0.0000 (  8443 PWs)   bands (ev):

   -33.6854 -33.6854 -17.0641 -17.0639 -15.1133 -15.0785 -14.9124 -14.8236
   -14.7126 -14.6547 -13.7325 -13.7257 -13.4509 -13.4477  -2.9230  -2.9224
    -1.5225  -1.4124  -1.3552  -1.1990  -0.8907  -0.8444   2.1346   2.1462
     2.4626   2.4798   2.6620   2.6987   3.1830   3.2264   4.3744   4.3779

          k =-0.5674 0.3276 0.3322 (  8482 PWs)   bands (ev):

   -33.6877 -33.6833 -17.1625 -16.9592 -15.2050 -15.1990 -14.7439 -14.7227
   -14.6908 -14.5879 -13.9230 -13.8230 -13.3970 -13.3564  -3.1273  -2.8021
    -1.5875  -1.3782  -1.2652  -1.1907  -0.9875  -0.8562   1.9456   2.2573
     2.4990   2.7290   2.7355   2.7443   3.1091   3.2732   4.1353   4.4721

          k = 0.5674 0.9827 0.0000 (  8460 PWs)   bands (ev):

   -33.6873 -33.6836 -17.1510 -16.9720 -15.1986 -15.1720 -14.7683 -14.7164
   -14.7136 -14.6141 -13.9132 -13.7782 -13.4166 -13.3600  -3.0948  -2.8028
    -1.5684  -1.4054  -1.2789  -1.1891  -0.9500  -0.8467   1.9441   2.2341
     2.5067   2.6688   2.7027   2.7113   3.1466   3.2526   4.1737   4.4804

          k =-0.0000-0.0000 0.1246 (  8462 PWs)   bands (ev):

   -33.6918 -33.6800 -17.0877 -17.0777 -15.1172 -15.1172 -14.7756 -14.7756
   -14.6605 -14.5588 -13.8840 -13.8840 -13.3864 -13.3864  -3.3104  -3.0566
    -1.6481  -1.5269  -1.5269  -1.2826  -1.2826  -0.4414   2.3692   2.3692
     2.7763   2.7763   2.9817   2.9817   3.5530   3.5530   3.7874   4.1869

          k =-0.1418-0.0819 0.1661 (  8459 PWs)   bands (ev):

   -33.6912 -33.6806 -17.0857 -17.0762 -15.1280 -15.0591 -14.8581 -14.7492
   -14.6766 -14.6062 -13.8768 -13.7589 -13.4576 -13.3862  -3.2621  -3.0669
    -1.5917  -1.5074  -1.4680  -1.3025  -1.2850  -0.5104   2.3973   2.4260
     2.7127   2.7624   2.8747   2.9652   3.4567   3.4848   3.8996   4.1865

          k =-0.2837-0.1638 0.2076 (  8466 PWs)   bands (ev):

   -33.6898 -33.6817 -17.0935 -17.0574 -15.1247 -14.9812 -14.9797 -14.7471
   -14.7026 -14.6398 -13.8149 -13.6150 -13.5714 -13.4096  -3.1569  -3.0502
    -1.5286  -1.4594  -1.3494  -1.2948  -1.2879  -0.6302   2.4082   2.5282
     2.6067   2.6368   2.7489   2.8712   3.2984   3.3451   4.0892   4.2133

          k =-0.4255-0.2457 0.2492 (  8442 PWs)   bands (ev):

   -33.6879 -33.6833 -17.0810 -17.0575 -15.0954 -15.0447 -14.9540 -14.8448
   -14.6703 -14.6429 -13.7263 -13.6262 -13.5608 -13.4537  -3.0607  -2.9889
    -1.4979  -1.4557  -1.3120  -1.2669  -1.1220  -0.7482   2.3019   2.3452
     2.5508   2.5917   2.7617   2.8542   3.1465   3.2093   4.2292   4.2715

          k = 0.7092 0.4095-0.0831 (  8444 PWs)   bands (ev):

   -33.6858 -33.6852 -17.0829 -17.0466 -15.0902 -15.0245 -14.9735 -14.9144
   -14.6660 -14.6285 -13.6750 -13.6335 -13.5492 -13.4867  -3.0178  -2.9173
    -1.5263  -1.4589  -1.2779  -1.2085  -0.9516  -0.8793   2.1307   2.2216
     2.5009   2.5995   2.7762   2.9199   3.0456   3.1421   4.2688   4.3470

          k = 0.5674 0.3276-0.0415 (  8433 PWs)   bands (ev):

   -33.6872 -33.6838 -17.1131 -17.0127 -15.1207 -15.0754 -14.9373 -14.8614
   -14.6796 -14.6122 -13.7404 -13.6274 -13.5273 -13.4634  -3.0276  -2.9039
    -1.5700  -1.3908  -1.2779  -1.1974  -1.0575  -0.8199   2.0767   2.2800
     2.4730   2.6314   2.7229   2.9494   3.0451   3.1827   4.2416   4.3765

          k = 0.4255 0.2457 0.0000 (  8443 PWs)   bands (ev):

   -33.6891 -33.6820 -17.1243 -17.0089 -15.1352 -15.0517 -14.9363 -14.7896
   -14.6934 -14.6452 -13.7722 -13.6052 -13.5594 -13.4360  -3.0523  -2.9852
    -1.5541  -1.3939  -1.2874  -1.2572  -1.2298  -0.7075   2.2260   2.4101
     2.5463   2.6400   2.6482   2.8932   3.1492   3.2988   4.2183   4.2914

          k = 0.2837 0.1638 0.0415 (  8456 PWs)   bands (ev):

   -33.6907 -33.6808 -17.1108 -17.0384 -15.1056 -15.0538 -14.8588 -14.7852
   -14.6994 -14.6887 -13.7877 -13.6772 -13.5056 -13.4260  -3.1295  -3.0593
    -1.5507  -1.4586  -1.4339  -1.3088  -1.2448  -0.5803   2.4279   2.4604
     2.6315   2.6418   2.7401   2.8448   3.3093   3.4275   4.1000   4.2130

          k =-0.1418 0.0819 0.2076 (  8451 PWs)   bands (ev):

   -33.6909 -33.6809 -17.0885 -17.0743 -15.1057 -15.0696 -14.8530 -14.7664
   -14.6632 -14.6372 -13.8184 -13.7769 -13.4467 -13.4186  -3.2547  -3.0850
    -1.5537  -1.4897  -1.4762  -1.3146  -1.2786  -0.5423   2.4005   2.4415
     2.6939   2.7274   2.9146   2.9911   3.4042   3.5036   3.9051   4.1700

          k =-0.2837-0.0000 0.2492 (  8454 PWs)   bands (ev):

   -33.6898 -33.6817 -17.0980 -17.0578 -15.1085 -15.0349 -14.9048 -14.7405
   -14.7206 -14.6541 -13.7862 -13.6803 -13.5150 -13.4307  -3.1734  -3.0837
    -1.5007  -1.4691  -1.3986  -1.2952  -1.2718  -0.6365   2.4163   2.4887
     2.6200   2.6688   2.8018   2.9452   3.2641   3.4144   4.0499   4.1828

          k =-0.4255-0.0819 0.2907 (  8455 PWs)   bands (ev):

   -33.6883 -33.6830 -17.0916 -17.0527 -15.0871 -15.0803 -14.8966 -14.8101
   -14.6964 -14.6554 -13.7338 -13.6805 -13.5149 -13.4514  -3.0789  -3.0310
    -1.4760  -1.4342  -1.3857  -1.2617  -1.1431  -0.7360   2.3382   2.4085
     2.5745   2.6025   2.7281   2.8958   3.1225   3.2869   4.2015   4.2384

          k = 0.7092 0.5733-0.0415 (  8454 PWs)   bands (ev):

   -33.6864 -33.6846 -17.0740 -17.0601 -15.1115 -15.0254 -14.9537 -14.8621
   -14.6749 -14.6482 -13.7383 -13.6072 -13.5659 -13.4464  -3.0246  -2.9401
    -1.5040  -1.4422  -1.3344  -1.2224  -0.9796  -0.8310   2.1836   2.2562
     2.5033   2.5845   2.7339   2.8814   3.0696   3.1922   4.2723   4.3285

          k = 0.5674 0.4914 0.0000 (  8431 PWs)   bands (ev):

   -33.6864 -33.6845 -17.1077 -17.0184 -15.1376 -15.0645 -14.9521 -14.8203
   -14.6858 -14.6199 -13.7794 -13.6300 -13.5324 -13.4260  -3.0234  -2.8774
    -1.5654  -1.3815  -1.3104  -1.1954  -0.9640  -0.8573   2.0605   2.2492
     2.4382   2.6051   2.7198   2.8673   3.0965   3.1787   4.2581   4.4035

          k = 0.4255 0.4095 0.0415 (  8454 PWs)   bands (ev):

   -33.6881 -33.6829 -17.1282 -16.9980 -15.1705 -15.0626 -14.9427 -14.7603
   -14.7034 -14.6132 -13.8256 -13.6113 -13.5464 -13.4054  -3.0475  -2.9076
    -1.5694  -1.3622  -1.2813  -1.2299  -1.1300  -0.7694   2.1018   2.3841
     2.4329   2.6163   2.6691   2.9028   3.1008   3.2551   4.2248   4.3824

          k = 0.2837 0.3276 0.0831 (  8452 PWs)   bands (ev):

   -33.6897 -33.6816 -17.1231 -17.0157 -15.1212 -15.0727 -14.8866 -14.7743
   -14.7051 -14.6714 -13.7610 -13.6788 -13.4991 -13.4418  -3.0615  -3.0287
    -1.5339  -1.4008  -1.3794  -1.2630  -1.2297  -0.6703   2.3105   2.4531
     2.5774   2.5960   2.6767   2.8638   3.1849   3.3583   4.2146   4.2406

          k =-0.2837 0.1638 0.2907 (  8458 PWs)   bands (ev):

   -33.6893 -33.6822 -17.1139 -17.0392 -15.1150 -15.0281 -14.8700 -14.7763
   -14.7363 -14.6658 -13.7374 -13.6893 -13.4967 -13.4690  -3.1127  -3.1106
    -1.4811  -1.4296  -1.4218  -1.2565  -1.2361  -0.6997   2.4097   2.4203
     2.6167   2.6387   2.8036   2.9816   3.1448   3.4104   4.1215   4.1629

          k =-0.4255 0.0819 0.3322 (  8456 PWs)   bands (ev):

   -33.6883 -33.6830 -17.1188 -17.0259 -15.1356 -15.0517 -14.8420 -14.7963
   -14.7242 -14.6684 -13.7555 -13.6931 -13.4844 -13.4549  -3.0935  -3.0214
    -1.4863  -1.4201  -1.3815  -1.2441  -1.1185  -0.7709   2.2760   2.3807
     2.5648   2.6665   2.7481   2.9253   3.0464   3.3352   4.1869   4.2471

          k = 0.7092 0.7370 0.0000 (  8446 PWs)   bands (ev):

   -33.6869 -33.6841 -17.0968 -17.0403 -15.1339 -15.0357 -14.8837 -14.8333
   -14.6931 -14.6818 -13.7769 -13.6332 -13.5269 -13.4308  -3.0121  -2.9660
    -1.4611  -1.4554  -1.3692  -1.2269  -0.9774  -0.8165   2.1689   2.2668
     2.5374   2.5928   2.7089   2.8045   3.0825   3.2525   4.2700   4.3302

          k = 0.5674 0.6552 0.0415 (  8440 PWs)   bands (ev):

   -33.6854 -33.6854 -17.0769 -17.0537 -15.1200 -15.0437 -14.9449 -14.8103
   -14.7044 -14.6668 -13.7640 -13.6555 -13.5092 -13.4272  -2.9672  -2.9136
    -1.5261  -1.3990  -1.3575  -1.2119  -0.8820  -0.8656   2.1227   2.1710
     2.4707   2.5471   2.6843   2.7439   3.1459   3.2119   4.3304   4.3768

          k = 0.4255 0.5733 0.0831 (  8435 PWs)   bands (ev):

   -33.6868 -33.6840 -17.1091 -17.0162 -15.1640 -15.0402 -14.9769 -14.7476
   -14.7103 -14.6303 -13.8332 -13.6195 -13.5359 -13.3931  -3.0006  -2.8767
    -1.5580  -1.3783  -1.3008  -1.2250  -0.9910  -0.8081   2.0722   2.2739
     2.4170   2.5346   2.6701   2.7805   3.1660   3.2215   4.2836   4.4249

          k = 0.2837 0.4914 0.1246 (  8442 PWs)   bands (ev):

   -33.6881 -33.6829 -17.1179 -17.0113 -15.1633 -15.0343 -14.9577 -14.7796
   -14.6902 -14.6290 -13.8125 -13.6255 -13.5321 -13.4128  -3.0275  -2.9391
    -1.5426  -1.3885  -1.3111  -1.2322  -1.1226  -0.7546   2.1641   2.3904
     2.4784   2.5363   2.6678   2.8538   3.1289   3.2713   4.2499   4.3599

          k =-0.4255 0.2457 0.3737 (  8456 PWs)   bands (ev):

   -33.6879 -33.6833 -17.1411 -16.9965 -15.1762 -15.0971 -14.7771 -14.7552
   -14.7393 -14.6522 -13.7916 -13.7727 -13.4334 -13.4249  -3.1277  -2.9302
    -1.5412  -1.3877  -1.3211  -1.2304  -1.0566  -0.8253   2.1421   2.3383
     2.5484   2.7210   2.7469   2.8698   3.0284   3.3193   4.1536   4.3358

          k = 0.7092 0.9008 0.0415 (  8452 PWs)   bands (ev):

   -33.6872 -33.6838 -17.1377 -16.9940 -15.1763 -15.1229 -14.7909 -14.7415
   -14.7105 -14.6693 -13.8347 -13.7571 -13.4327 -13.3999  -3.0938  -2.8710
    -1.5446  -1.4042  -1.2999  -1.2216  -0.9718  -0.8425   2.0465   2.2712
     2.5335   2.6939   2.7089   2.7559   3.0908   3.2680   4.1864   4.4092

          k = 0.5674 0.8189 0.0831 (  8449 PWs)   bands (ev):

   -33.6863 -33.6845 -17.1058 -17.0247 -15.1448 -15.0807 -14.8440 -14.8121
   -14.7132 -14.6754 -13.7999 -13.6939 -13.4693 -13.4126  -3.0036  -2.8767
    -1.5020  -1.4588  -1.3153  -1.2188  -0.8964  -0.8380   2.0469   2.1995
     2.5113   2.5784   2.6636   2.6882   3.1605   3.2311   4.2847   4.4205

          k = 0.4255 0.7370 0.1246 (  8422 PWs)   bands (ev):

   -33.6854 -33.6854 -17.0641 -17.0640 -15.1061 -15.0891 -14.8919 -14.8494
   -14.6930 -14.6657 -13.7308 -13.7274 -13.4501 -13.4485  -2.9228  -2.9226
    -1.5060  -1.4602  -1.2975  -1.2289  -0.8772  -0.8543   2.1374   2.1432
     2.4670   2.4757   2.6705   2.6888   3.1945   3.2162   4.3753   4.3770

          k = 0.2837 0.6552 0.1661 (  8435 PWs)   bands (ev):

   -33.6863 -33.6845 -17.0860 -17.0407 -15.1288 -15.0484 -14.9520 -14.8492
   -14.6707 -14.6419 -13.7635 -13.6560 -13.5049 -13.4344  -2.9624  -2.9163
    -1.5199  -1.4525  -1.2632  -1.2382  -0.9573  -0.8346   2.1319   2.2359
     2.4522   2.4768   2.7043   2.7686   3.1634   3.2077   4.3237   4.3847

          k = 0.7092-0.4095-0.2907 (  8459 PWs)   bands (ev):

   -33.6873 -33.6837 -17.1574 -16.9662 -15.2071 -15.1817 -14.7439 -14.7224
   -14.7139 -14.5889 -13.8937 -13.8346 -13.3903 -13.3702  -3.1260  -2.8054
    -1.5881  -1.3756  -1.2480  -1.2160  -0.9631  -0.8686   1.9558   2.2477
     2.5232   2.6785   2.7407   2.7724   3.1118   3.2482   4.1421   4.4653

          k = 0.5674-0.4914-0.2492 (  8464 PWs)   bands (ev):

   -33.6872 -33.6837 -17.1458 -16.9777 -15.1923 -15.1590 -14.8038 -14.7223
   -14.7057 -14.6161 -13.8970 -13.7565 -13.4317 -13.3662  -3.0862  -2.8118
    -1.5738  -1.3936  -1.2612  -1.2169  -0.9549  -0.8436   1.9585   2.2432
     2.4768   2.6737   2.6966   2.7478   3.1395   3.2378   4.1849   4.4708

          k = 0.4255-0.5733-0.2076 (  8444 PWs)   bands (ev):

   -33.6868 -33.6840 -17.1138 -17.0128 -15.1739 -15.0522 -14.9282 -14.7748
   -14.6923 -14.6394 -13.8485 -13.6353 -13.5189 -13.3862  -3.0099  -2.8680
    -1.5332  -1.4284  -1.2882  -1.2274  -0.9539  -0.8174   2.0470   2.2537
     2.4438   2.5579   2.6694   2.7452   3.1548   3.2438   4.2735   4.4330

          k = 0.5674-0.3276-0.2076 (  8462 PWs)   bands (ev):

   -33.6878 -33.6832 -17.1560 -16.9654 -15.1947 -15.1812 -14.7853 -14.7188
   -14.7176 -14.5852 -13.8995 -13.7753 -13.4233 -13.3680  -3.1095  -2.8192
    -1.5901  -1.3655  -1.2504  -1.2197  -1.0207  -0.8352   1.9649   2.2924
     2.4450   2.7047   2.7262   2.8384   3.0837   3.2640   4.1537   4.4571

          k = 0.4255-0.4095-0.1661 (  8446 PWs)   bands (ev):

   -33.6881 -33.6829 -17.1399 -16.9864 -15.1892 -15.0984 -14.8788 -14.7353
   -14.7045 -14.6188 -13.8696 -13.6636 -13.5017 -13.3813  -3.0743  -2.8823
    -1.5616  -1.3808  -1.2916  -1.2239  -1.0806  -0.7864   2.0621   2.3611
     2.4345   2.6498   2.6862   2.8824   3.0740   3.2884   4.1980   4.4050

          k = 0.4255-0.2457-0.1246 (  8452 PWs)   bands (ev):

   -33.6891 -33.6820 -17.1379 -16.9950 -15.1395 -15.1090 -14.8625 -14.7399
   -14.7183 -14.6645 -13.7974 -13.6721 -13.5032 -13.4182  -3.0844  -2.9560
    -1.5470  -1.3908  -1.3382  -1.2297  -1.1808  -0.7293   2.1774   2.4357
     2.4743   2.6632   2.6909   2.9487   3.0656   3.3404   4.1891   4.3159

          k =-0.0000-0.0000 0.2492 (  8453 PWs)   bands (ev):

   -33.6907 -33.6811 -17.0875 -17.0794 -15.0942 -15.0942 -14.8216 -14.8216
   -14.6500 -14.5672 -13.8238 -13.8238 -13.4240 -13.4240  -3.3011  -3.1010
    -1.5213  -1.5043  -1.5043  -1.3053  -1.3053  -0.5430   2.4075   2.4075
     2.7354   2.7354   3.0325   3.0325   3.4922   3.4922   3.8197   4.1413

          k =-0.1418-0.0819 0.2907 (  8449 PWs)   bands (ev):

   -33.6899 -33.6818 -17.0844 -17.0792 -15.1154 -15.0223 -14.9219 -14.7789
   -14.6629 -14.5988 -13.8343 -13.6972 -13.5099 -13.4132  -3.2556  -3.1063
    -1.5031  -1.4865  -1.3985  -1.3156  -1.3126  -0.6191   2.4291   2.4585
     2.6793   2.7031   2.9340   3.0400   3.3699   3.4383   3.9225   4.1435

          k =-0.2837-0.1638 0.3322 (  8441 PWs)   bands (ev):

   -33.6886 -33.6829 -17.0818 -17.0716 -15.1179 -15.0172 -14.9546 -14.7360
   -14.7207 -14.6240 -13.7977 -13.6008 -13.5930 -13.4212  -3.1674  -3.0620
    -1.4681  -1.4571  -1.3565  -1.3144  -1.2008  -0.7201   2.3966   2.5180
     2.6052   2.6287   2.7608   2.9866   3.1988   3.3085   4.0885   4.1964

          k = 0.8511 0.4914 0.0000 (  8449 PWs)   bands (ev):

   -33.6868 -33.6843 -17.0852 -17.0557 -15.1329 -14.9986 -14.9762 -14.8019
   -14.6970 -14.6261 -13.7717 -13.6111 -13.5743 -13.4267  -3.0952  -2.9637
    -1.4962  -1.4317  -1.3404  -1.2597  -1.0356  -0.8106   2.2412   2.3647
     2.5489   2.6262   2.7098   2.9877   3.0476   3.1915   4.1981   4.2939

          k = 0.7092 0.4095 0.0415 (  8455 PWs)   bands (ev):

   -33.6860 -33.6850 -17.1155 -17.0133 -15.1478 -15.0911 -14.8843 -14.8357
   -14.6907 -14.6072 -13.7485 -13.7310 -13.4695 -13.4363  -3.0681  -2.8670
    -1.5665  -1.3752  -1.3210  -1.1979  -0.9169  -0.9063   2.0549   2.2625
     2.4668   2.6621   2.7211   2.9490   3.0294   3.1605   4.2165   4.3967

          k = 0.5674 0.3276 0.0831 (  8437 PWs)   bands (ev):

   -33.6876 -33.6833 -17.1390 -16.9841 -15.1683 -15.1371 -14.8560 -14.7818
   -14.7023 -14.5928 -13.8319 -13.7053 -13.4676 -13.4044  -3.0749  -2.8546
    -1.5887  -1.3483  -1.2767  -1.2133  -1.0551  -0.8185   2.0108   2.3183
     2.4251   2.6879   2.6937   2.9504   3.0297   3.2299   4.1922   4.4232

          k =-0.1418 0.0819 0.3322 (  8464 PWs)   bands (ev):

   -33.6894 -33.6823 -17.0885 -17.0761 -15.0964 -15.0218 -14.9184 -14.8096
   -14.6475 -14.6245 -13.7825 -13.6959 -13.5097 -13.4476  -3.2431  -3.1303
    -1.4880  -1.4598  -1.3875  -1.3148  -1.3062  -0.6690   2.4387   2.4803
     2.6426   2.6869   2.9706   3.0729   3.3156   3.4395   3.9352   4.1202

          k =-0.2837-0.0000 0.3737 (  8443 PWs)   bands (ev):

   -33.6884 -33.6831 -17.0921 -17.0659 -15.0996 -15.0301 -14.9186 -14.7858
   -14.6884 -14.6431 -13.7553 -13.6593 -13.5374 -13.4556  -3.1696  -3.1126
    -1.4564  -1.4393  -1.3911  -1.3031  -1.1992  -0.7507   2.4288   2.4882
     2.6018   2.6376   2.8643   3.0340   3.1742   3.3536   4.0644   4.1498

          k = 0.8511 0.6552 0.0415 (  8444 PWs)   bands (ev):

   -33.6870 -33.6842 -17.0746 -17.0728 -15.1030 -15.0608 -14.8961 -14.7828
   -14.7195 -14.6566 -13.7464 -13.6626 -13.5281 -13.4474  -3.0948  -3.0280
    -1.4635  -1.4029  -1.3997  -1.2782  -1.0456  -0.8173   2.3144   2.3753
     2.6089   2.6141   2.7280   2.9477   3.0915   3.2354   4.1890   4.2398

          k = 0.7092 0.5733 0.0831 (  8453 PWs)   bands (ev):

   -33.6855 -33.6855 -17.1011 -17.0342 -15.1370 -15.0585 -14.9101 -14.7932
   -14.6997 -14.6557 -13.7683 -13.6836 -13.5008 -13.4252  -3.0591  -2.9084
    -1.5340  -1.3709  -1.3597  -1.2320  -0.9192  -0.8763   2.1240   2.2600
     2.5201   2.6335   2.6965   2.8600   3.1049   3.1714   4.2353   4.3622

          k = 0.5674 0.4914 0.1246 (  8443 PWs)   bands (ev):

   -33.6868 -33.6841 -17.1308 -16.9939 -15.1723 -15.1220 -14.8749 -14.7464
   -14.7081 -14.6147 -13.8499 -13.7008 -13.4728 -13.3874  -3.0615  -2.8378
    -1.5785  -1.3626  -1.2894  -1.2188  -0.9659  -0.8429   1.9995   2.2594
     2.4374   2.6533   2.6961   2.8232   3.1175   3.2061   4.2155   4.4437

          k =-0.2837 0.1638 0.4153 (  8457 PWs)   bands (ev):

   -33.6879 -33.6836 -17.1087 -17.0466 -15.1279 -14.9786 -14.9279 -14.8026
   -14.7008 -14.6450 -13.7561 -13.6373 -13.5438 -13.4614  -3.1409  -3.1023
    -1.4812  -1.4085  -1.3714  -1.2890  -1.1339  -0.8112   2.3988   2.4271
     2.6121   2.6317   2.8650   3.0477   3.0599   3.3442   4.1332   4.1370

          k = 0.8511 0.8189 0.0831 (  8457 PWs)   bands (ev):

   -33.6870 -33.6842 -17.1079 -17.0398 -15.1341 -15.0378 -14.8639 -14.7898
   -14.7188 -14.6692 -13.7532 -13.6862 -13.4940 -13.4561  -3.1028  -3.0233
    -1.4869  -1.4105  -1.3449  -1.2800  -1.0223  -0.8526   2.2773   2.3589
     2.5877   2.6601   2.7953   2.8750   3.0808   3.2707   4.1800   4.2453

          k = 0.7092 0.7370 0.1246 (  8447 PWs)   bands (ev):

   -33.6860 -33.6850 -17.0797 -17.0601 -15.1031 -15.0664 -14.8429 -14.8285
   -14.7147 -14.7095 -13.7345 -13.6832 -13.4887 -13.4550  -2.9990  -2.9831
    -1.4663  -1.4608  -1.3240  -1.2649  -0.9138  -0.8608   2.1859   2.2182
     2.5797   2.6091   2.7122   2.7491   3.1329   3.1997   4.2883   4.3094

          k = 0.5674 0.6552 0.1661 (  8437 PWs)   bands (ev):

   -33.6859 -33.6849 -17.0933 -17.0379 -15.1154 -15.0867 -14.8922 -14.7843
   -14.7108 -14.6921 -13.7710 -13.6896 -13.4796 -13.4236  -2.9885  -2.8924
    -1.5220  -1.4350  -1.2844  -1.2578  -0.8852  -0.8474   2.0774   2.1812
     2.4969   2.5763   2.6661   2.7094   3.1764   3.1971   4.3049   4.4015

          k = 0.8511-0.4914-0.2492 (  8462 PWs)   bands (ev):

   -33.6868 -33.6844 -17.1296 -17.0108 -15.1808 -15.0589 -14.8522 -14.7533
   -14.7214 -14.6287 -13.8173 -13.7280 -13.4676 -13.4088  -3.1311  -2.9332
    -1.5402  -1.3779  -1.2851  -1.2805  -0.9778  -0.8864   2.1569   2.3284
     2.5892   2.7022   2.7212   2.8679   3.0662   3.2540   4.1563   4.3292

          k = 0.7092-0.5733-0.2076 (  8454 PWs)   bands (ev):

   -33.6864 -33.6846 -17.1232 -17.0112 -15.1573 -15.1020 -14.8402 -14.7377
   -14.7142 -14.6780 -13.7755 -13.7662 -13.4415 -13.4205  -3.0830  -2.8845
    -1.5454  -1.3931  -1.2808  -1.2635  -0.9233  -0.8747   2.0750   2.2592
     2.5516   2.6594   2.6907   2.7972   3.1145   3.2085   4.2050   4.3907

          k = 0.7092-0.4095-0.1661 (  8453 PWs)   bands (ev):

   -33.6867 -33.6843 -17.1413 -16.9852 -15.1877 -15.1447 -14.7955 -14.7731
   -14.7077 -14.5934 -13.8231 -13.8066 -13.4086 -13.4036  -3.1056  -2.8280
    -1.5850  -1.3571  -1.2849  -1.2161  -0.9435  -0.8802   1.9938   2.2597
     2.4868   2.6903   2.7126   2.8483   3.0942   3.1973   4.1717   4.4384

          k =-0.0000-0.0000 0.3737 (  8456 PWs)   bands (ev):

   -33.6891 -33.6828 -17.0870 -17.0817 -15.0568 -15.0568 -14.8827 -14.8827
   -14.6344 -14.5803 -13.7408 -13.7408 -13.4836 -13.4836  -3.2826  -3.1565
    -1.4697  -1.4697  -1.3400  -1.3400  -1.3369  -0.7018   2.4657   2.4657
     2.6780   2.6780   3.1063   3.1063   3.4033   3.4033   3.8699   4.0767

          k =-0.1418-0.0819 0.4153 (  8446 PWs)   bands (ev):

   -33.6882 -33.6835 -17.0828 -17.0825 -15.0874 -14.9803 -14.9774 -14.8319
   -14.6451 -14.6018 -13.7643 -13.6286 -13.5751 -13.4612  -3.2406  -3.1514
    -1.4567  -1.4404  -1.3584  -1.3547  -1.2223  -0.7764   2.4730   2.5067
     2.6341   2.6371   3.0135   3.1338   3.2655   3.3618   3.9588   4.0888

          k = 0.9929 0.5733 0.0831 (  8458 PWs)   bands (ev):

   -33.6870 -33.6845 -17.0862 -17.0692 -15.1188 -15.0175 -14.9378 -14.7790
   -14.6970 -14.6202 -13.7774 -13.6095 -13.5849 -13.4391  -3.1698  -3.0774
    -1.4612  -1.4001  -1.3699  -1.3345  -1.0788  -0.8456   2.3913   2.4856
     2.6001   2.6250   2.8246   3.0923   3.1027   3.2509   4.0944   4.1757

          k = 0.8511 0.4914 0.1246 (  8446 PWs)   bands (ev):

   -33.6856 -33.6856 -17.1103 -17.0314 -15.1656 -15.0166 -14.9289 -14.7617
   -14.7164 -14.6203 -13.8088 -13.6712 -13.5164 -13.4097  -3.1199  -2.9448
    -1.5257  -1.3622  -1.3536  -1.2634  -0.9561  -0.8915   2.1910   2.3445
     2.5882   2.6669   2.6858   2.9471   3.0790   3.1851   4.1722   4.3139

          k =-0.1418 0.0819 0.4568 (  8464 PWs)   bands (ev):

   -33.6876 -33.6841 -17.0875 -17.0784 -15.0741 -14.9812 -14.9648 -14.8635
   -14.6296 -14.6213 -13.7257 -13.6126 -13.5863 -13.4934  -3.2228  -3.1762
    -1.4474  -1.4243  -1.3837  -1.3444  -1.1646  -0.8386   2.4929   2.5266
     2.5900   2.6318   3.0523   3.1653   3.2144   3.3483   3.9787   4.0629

          k = 0.9929 0.7370 0.1246 (  8446 PWs)   bands (ev):

   -33.6867 -33.6849 -17.0843 -17.0752 -15.0803 -15.0531 -14.8883 -14.8388
   -14.6613 -14.6451 -13.7148 -13.6747 -13.5252 -13.4901  -3.1588  -3.1393
    -1.4352  -1.4184  -1.3762  -1.3381  -1.0550  -0.8964   2.4509   2.4759
     2.5950   2.6121   2.9473   3.0366   3.1731   3.2670   4.0867   4.1160

          k = 0.8511 0.6552 0.1661 (  8448 PWs)   bands (ev):

   -33.6856 -33.6856 -17.0920 -17.0567 -15.1222 -15.0413 -14.8845 -14.7847
   -14.7117 -14.6697 -13.7528 -13.6684 -13.5175 -13.4494  -3.1035  -3.0258
    -1.4794  -1.4070  -1.3356  -1.3056  -0.9467  -0.9173   2.2910   2.3579
     2.6100   2.6347   2.7741   2.8914   3.1438   3.1920   4.1810   4.2422

          k = 0.9929-0.5733-0.2076 (  8450 PWs)   bands (ev):

   -33.6862 -33.6852 -17.0991 -17.0571 -15.1273 -14.9812 -14.9421 -14.8083
   -14.6875 -14.6281 -13.7662 -13.5992 -13.5868 -13.4537  -3.1610  -3.0915
    -1.4718  -1.3879  -1.3493  -1.3378  -0.9917  -0.9431   2.3927   2.4506
     2.6042   2.6260   2.8938   3.0080   3.1333   3.2570   4.1093   4.1553

          k =-0.0000-0.0000 0.4983 (  8462 PWs)   bands (ev):

   -33.6870 -33.6848 -17.0858 -17.0840 -15.0068 -15.0068 -14.9471 -14.9471
   -14.6159 -14.5972 -13.6494 -13.6494 -13.5609 -13.5609  -3.2524  -3.2095
    -1.4274  -1.4274  -1.3823  -1.3823  -1.1218  -0.9019   2.5359   2.5359
     2.6094   2.6094   3.1981   3.1981   3.3006   3.3006   3.9332   4.0044

          k = 1.1348 0.6552 0.1661 (  8460 PWs)   bands (ev):

   -33.6862 -33.6855 -17.0855 -17.0807 -15.0542 -15.0196 -14.9309 -14.8896
   -14.6295 -14.6131 -13.6896 -13.6379 -13.5674 -13.5203  -3.2141  -3.1919
    -1.4267  -1.3939  -1.3938  -1.3840  -1.0323  -0.9661   2.5230   2.5498
     2.5792   2.5900   3.1031   3.1613   3.2327   3.2740   4.0070   4.0315

     highest occupied level (ev):     4.4804

!    total energy              =    -367.43352922 Ry
     Harris-Foulkes estimate   =    -367.43352922 Ry
     estimated scf accuracy    <          7.0E-09 Ry

     The total energy is the sum of the following terms:

     one-electron contribution =    -148.13756960 Ry
     hartree contribution      =     103.45913731 Ry
     xc contribution           =     -75.27317802 Ry
     ewald contribution        =    -247.48191891 Ry

     convergence has been achieved in  10 iterations

     Forces acting on atoms (cartesian axes, Ry/au):

     atom    1 type  1   force =     0.00000000    0.00000000    0.00000000
     atom    2 type  1   force =     0.00000000    0.00000000    0.00000000
     atom    3 type  2   force =     0.00000000    0.00000000    0.00000000
     atom    4 type  2   force =     0.00000000    0.00000000    0.00000000
     atom    5 type  3   force =     0.00037791   -0.00065455   -0.00000000
     atom    6 type  3   force =    -0.00075581   -0.00000000    0.00000000
     atom    7 type  3   force =     0.00037791    0.00065455    0.00000000
     atom    8 type  3   force =     0.00075581    0.00000000   -0.00000000
     atom    9 type  3   force =    -0.00037791   -0.00065455   -0.00000000
     atom   10 type  3   force =    -0.00037791    0.00065455    0.00000000

     Total force =     0.001851     Total SCF correction =     0.000039


     Computing stress (Cartesian axis) and pressure

          total   stress  (Ry/bohr**3)                   (kbar)     P=    1.74
   0.00001323  -0.00000000  -0.00000000          1.95     -0.00     -0.00
   0.00000000   0.00001323   0.00000000          0.00      1.95      0.00
   0.00000000   0.00000000   0.00000898          0.00      0.00      1.32


     BFGS Geometry Optimization

     number of scf cycles    =   1
     number of bfgs steps    =   0

     enthalpy new            =    -367.4335292158 Ry

     new trust radius        =       0.0019338021 bohr
     new conv_thr            =       0.0000000100 Ry

     new unit-cell volume =    855.03424 a.u.^3 (   126.70300 Ang^3 )
     density =      2.62348 g/cm^3

CELL_PARAMETERS (alat= 12.17000000)
   0.391792688  -0.226201614   0.892089643
  -0.000000000   0.452403228   0.892089643
  -0.391792688  -0.226201614   0.892089643

ATOMIC_POSITIONS (crystal)
Ca       0.500000000   0.500000000   0.500000000
Ca       0.000000000   0.000000000   0.000000000
C        0.250000000   0.250000000   0.250000000
C        0.750000000   0.750000000   0.750000000
O        0.507096238   0.992903762   0.250000000
O        0.992903762   0.250000000   0.507096238
O        0.250000000   0.507096238   0.992903762
O        0.007096238   0.750000000   0.492903762
O        0.750000000   0.492903762   0.007096238
O        0.492903762   0.007096238   0.750000000



     Writing output data file CCO_new.save/
     NEW-OLD atomic charge density approx. for the potential

     Check: negative core charge=   -0.000003
     extrapolated charge   64.05667, renormalised to   64.00000

     total cpu time spent up to now is      487.1 secs

     Self-consistent Calculation

     iteration #  1     ecut=    70.00 Ry     beta= 0.70
     CG style diagonalization
     ethr =  1.00E-06,  avg # of iterations =  2.8

     total cpu time spent up to now is      517.7 secs

     total energy              =    -367.43332477 Ry
     Harris-Foulkes estimate   =    -367.33207558 Ry
     estimated scf accuracy    <       0.00015518 Ry

     iteration #  2     ecut=    70.00 Ry     beta= 0.70
     CG style diagonalization
     ethr =  2.42E-07,  avg # of iterations =  5.0

     total cpu time spent up to now is      576.7 secs

     total energy              =    -367.43351749 Ry
     Harris-Foulkes estimate   =    -367.43367732 Ry
     estimated scf accuracy    <       0.00043232 Ry

     iteration #  3     ecut=    70.00 Ry     beta= 0.70
     CG style diagonalization
     ethr =  2.42E-07,  avg # of iterations =  3.8

     total cpu time spent up to now is      622.7 secs

     total energy              =    -367.43353686 Ry
     Harris-Foulkes estimate   =    -367.43354989 Ry
     estimated scf accuracy    <       0.00004924 Ry

     iteration #  4     ecut=    70.00 Ry     beta= 0.70
     CG style diagonalization
     ethr =  7.69E-08,  avg # of iterations =  3.0

     total cpu time spent up to now is      660.5 secs

     total energy              =    -367.43353225 Ry
     Harris-Foulkes estimate   =    -367.43353853 Ry
     estimated scf accuracy    <       0.00002089 Ry

     iteration #  5     ecut=    70.00 Ry     beta= 0.70
     CG style diagonalization
     ethr =  3.26E-08,  avg # of iterations =  3.2

     total cpu time spent up to now is      699.9 secs

     total energy              =    -367.43353190 Ry
     Harris-Foulkes estimate   =    -367.43353361 Ry
     estimated scf accuracy    <       0.00000461 Ry

     iteration #  6     ecut=    70.00 Ry     beta= 0.70
     CG style diagonalization
     ethr =  7.21E-09,  avg # of iterations =  3.5

     total cpu time spent up to now is      741.2 secs

     total energy              =    -367.43353229 Ry
     Harris-Foulkes estimate   =    -367.43353245 Ry
     estimated scf accuracy    <       0.00000042 Ry

     iteration #  7     ecut=    70.00 Ry     beta= 0.70
     CG style diagonalization
     ethr =  6.60E-10,  avg # of iterations =  3.7

     total cpu time spent up to now is      785.0 secs

     total energy              =    -367.43353238 Ry
     Harris-Foulkes estimate   =    -367.43353239 Ry
     estimated scf accuracy    <       0.00000008 Ry

     iteration #  8     ecut=    70.00 Ry     beta= 0.70
     CG style diagonalization
     ethr =  1.23E-10,  avg # of iterations =  3.4

     total cpu time spent up to now is      824.7 secs

     total energy              =    -367.43353236 Ry
     Harris-Foulkes estimate   =    -367.43353239 Ry
     estimated scf accuracy    <       0.00000005 Ry

     iteration #  9     ecut=    70.00 Ry     beta= 0.70
     CG style diagonalization
     ethr =  8.13E-11,  avg # of iterations =  3.8

     total cpu time spent up to now is      868.9 secs

     End of self-consistent calculation

          k = 0.0000 0.0000 0.0000 (  8423 PWs)   bands (ev):

   -33.7041 -33.6915 -17.0847 -17.0732 -15.1338 -15.1338 -14.7696 -14.7696
   -14.6759 -14.5665 -13.9082 -13.9082 -13.3782 -13.3782  -3.3222  -3.0498
    -1.6940  -1.5394  -1.5394  -1.2801  -1.2801  -0.4069   2.3488   2.3488
     2.7855   2.7855   2.9545   2.9545   3.5668   3.5668   3.7657   4.1926

          k =-0.1418-0.0819 0.0415 (  8455 PWs)   bands (ev):

   -33.7036 -33.6919 -17.0831 -17.0711 -15.1331 -15.0950 -14.8088 -14.7674
   -14.6910 -14.6334 -13.8819 -13.8074 -13.4278 -13.3873  -3.2722  -3.0566
    -1.6484  -1.5200  -1.4998  -1.3024  -1.2728  -0.4600   2.3735   2.4050
     2.7293   2.7705   2.8606   2.9067   3.4867   3.5052   3.8787   4.1971

          k =-0.2836-0.1637 0.0830 (  8442 PWs)   bands (ev):

   -33.7024 -33.6928 -17.1000 -17.0425 -15.1315 -15.0248 -14.9324 -14.7774
   -14.7004 -14.6767 -13.8160 -13.6484 -13.5406 -13.4151  -3.1524  -3.0584
    -1.5629  -1.4665  -1.3884  -1.3263  -1.2673  -0.5835   2.4139   2.4930
     2.6083   2.6398   2.7712   2.7807   3.3389   3.3702   4.0830   4.2096

          k =-0.4254-0.2456 0.1246 (  8455 PWs)   bands (ev):

   -33.7006 -33.6943 -17.1012 -17.0273 -15.1218 -15.0154 -14.9988 -14.8440
   -14.6778 -14.6605 -13.7356 -13.6197 -13.5597 -13.4646  -3.0319  -3.0297
    -1.5433  -1.4205  -1.2819  -1.2764  -1.2095  -0.7137   2.2803   2.3553
     2.5655   2.5886   2.7144   2.8201   3.1909   3.2245   4.2359   4.2507

          k =-0.5672-0.3275 0.1661 (  8438 PWs)   bands (ev):

   -33.6984 -33.6963 -17.0777 -17.0437 -15.0639 -15.0265 -15.0116 -14.9509
   -14.6648 -14.6492 -13.6463 -13.6024 -13.5588 -13.5438  -2.9833  -2.9709
    -1.5304  -1.4690  -1.2457  -1.2352  -1.0110  -0.8435   2.1451   2.2033
     2.5280   2.5570   2.7986   2.8503   3.1016   3.1160   4.2837   4.3127

          k =-0.1418 0.0819 0.0830 (  8443 PWs)   bands (ev):

   -33.7035 -33.6920 -17.0841 -17.0705 -15.1134 -15.1108 -14.8057 -14.7703
   -14.6858 -14.6502 -13.8454 -13.8287 -13.4147 -13.4078  -3.2699  -3.0635
    -1.6330  -1.5139  -1.5042  -1.3068  -1.2705  -0.4710   2.3741   2.4106
     2.7333   2.7377   2.8867   2.9137   3.4589   3.5218   3.8798   4.1911

          k =-0.2836 0.0000 0.1246 (  8450 PWs)   bands (ev):

   -33.7026 -33.6927 -17.0979 -17.0490 -15.1171 -15.0643 -14.8706 -14.7737
   -14.7153 -14.6804 -13.8070 -13.7101 -13.4924 -13.4222  -3.1830  -3.0711
    -1.5600  -1.4816  -1.4273  -1.3279  -1.2600  -0.5653   2.4047   2.4831
     2.6152   2.7048   2.7588   2.8582   3.3329   3.4345   4.0318   4.1967

          k =-0.4254-0.0819 0.1661 (  8464 PWs)   bands (ev):

   -33.7010 -33.6940 -17.1026 -17.0314 -15.1152 -15.0737 -14.9130 -14.8255
   -14.6840 -14.6796 -13.7348 -13.6973 -13.5026 -13.4598  -3.0694  -3.0470
    -1.5259  -1.4231  -1.3631  -1.2556  -1.2361  -0.6834   2.3405   2.4435
     2.5281   2.6055   2.7167   2.8147   3.1872   3.3052   4.2046   4.2256

          k =-0.5672-0.1637 0.2076 (  8448 PWs)   bands (ev):

   -33.6991 -33.6957 -17.0827 -17.0418 -15.1044 -15.0600 -14.9422 -14.9100
   -14.6689 -14.6584 -13.7083 -13.6507 -13.5260 -13.4831  -2.9942  -2.9867
    -1.5158  -1.4568  -1.2974  -1.2377  -1.0537  -0.7941   2.1914   2.2709
     2.5035   2.5415   2.7482   2.8325   3.1016   3.1940   4.2818   4.3016

          k = 0.5672 0.4912-0.1246 (  8448 PWs)   bands (ev):

   -33.6976 -33.6970 -17.0756 -17.0445 -15.0971 -15.0358 -14.9981 -14.9155
   -14.6711 -14.6472 -13.7011 -13.6213 -13.5502 -13.4855  -2.9865  -2.9359
    -1.5305  -1.4663  -1.2638  -1.2182  -0.9343  -0.8918   2.1246   2.1930
     2.4749   2.5361   2.7636   2.8284   3.1086   3.1437   4.2957   4.3453

          k = 0.4254 0.4093-0.0830 (  8449 PWs)   bands (ev):

   -33.6997 -33.6951 -17.1062 -17.0150 -15.1432 -15.0412 -14.9881 -14.8378
   -14.6899 -14.6354 -13.7598 -13.6274 -13.5381 -13.4542  -3.0239  -2.9533
    -1.5582  -1.3993  -1.2839  -1.2317  -1.1218  -0.7720   2.1459   2.3300
     2.4743   2.5689   2.6921   2.8623   3.1260   3.2066   4.2472   4.3392

          k = 0.2836 0.3275-0.0415 (  8456 PWs)   bands (ev):

   -33.7015 -33.6935 -17.1135 -17.0184 -15.1260 -15.0721 -14.9175 -14.7996
   -14.7052 -14.6727 -13.7526 -13.6875 -13.5011 -13.4533  -3.0574  -3.0512
    -1.5471  -1.4113  -1.3356  -1.3032  -1.2447  -0.6615   2.3286   2.4591
     2.5397   2.6310   2.6438   2.8232   3.2178   3.3233   4.2132   4.2232

          k = 0.1418 0.2456 0.0000 (  8465 PWs)   bands (ev):

   -33.7029 -33.6924 -17.0991 -17.0470 -15.1146 -15.0748 -14.8284 -14.8112
   -14.7048 -14.6869 -13.8127 -13.7208 -13.4812 -13.4187  -3.1826  -3.0623
    -1.5841  -1.4827  -1.4402  -1.3324  -1.2536  -0.5409   2.4040   2.4849
     2.6121   2.7389   2.7456   2.8152   3.3664   3.4378   4.0294   4.2060

          k =-0.2836 0.1637 0.1661 (  8445 PWs)   bands (ev):

   -33.7021 -33.6931 -17.1110 -17.0329 -15.0979 -15.0819 -14.8284 -14.8055
   -14.7466 -14.6945 -13.7465 -13.7132 -13.4873 -13.4601  -3.1285  -3.0931
    -1.4977  -1.4705  -1.4521  -1.2896  -1.2471  -0.6210   2.4178   2.4219
     2.6168   2.6327   2.7513   2.9025   3.2305   3.4315   4.0986   4.1813

          k =-0.4254 0.0819 0.2076 (  8452 PWs)   bands (ev):

   -33.7010 -33.6940 -17.1205 -17.0138 -15.1369 -15.0781 -14.8606 -14.8042
   -14.7109 -14.6943 -13.7645 -13.6890 -13.4979 -13.4490  -3.0885  -3.0322
    -1.5070  -1.4242  -1.3973  -1.2346  -1.2017  -0.7089   2.2806   2.4119
     2.5466   2.6330   2.7051   2.8953   3.1005   3.3567   4.1892   4.2351

          k =-0.5672 0.0000 0.2491 (  8454 PWs)   bands (ev):

   -33.6995 -33.6952 -17.1065 -17.0196 -15.1623 -15.0353 -14.9362 -14.8285
   -14.6914 -14.6625 -13.8060 -13.6110 -13.5536 -13.4222  -3.0320  -2.9605
    -1.5058  -1.4318  -1.3559  -1.2247  -1.0521  -0.7809   2.1565   2.3202
     2.4981   2.5515   2.6914   2.8333   3.0775   3.2687   4.2464   4.3371

          k = 0.5672 0.6549-0.0830 (  8435 PWs)   bands (ev):

   -33.6978 -33.6968 -17.0668 -17.0551 -15.1336 -15.0354 -14.9622 -14.8692
   -14.6875 -14.6646 -13.7614 -13.6501 -13.5197 -13.4395  -2.9524  -2.9483
    -1.5075  -1.4604  -1.3238  -1.2121  -0.9103  -0.8620   2.1411   2.1811
     2.4554   2.4928   2.6974   2.7521   3.1317   3.2121   4.3390   4.3472

          k = 0.4254 0.5731-0.0415 (  8436 PWs)   bands (ev):

   -33.6985 -33.6961 -17.0961 -17.0224 -15.1530 -15.0528 -14.9931 -14.7959
   -14.7055 -14.6404 -13.8003 -13.6432 -13.5243 -13.4182  -2.9945  -2.9039
    -1.5587  -1.3880  -1.3137  -1.2146  -0.9986  -0.8149   2.0969   2.2619
     2.4124   2.4977   2.6762   2.7793   3.1731   3.1904   4.2905   4.3972

          k = 0.2836 0.4912 0.0000 (  8445 PWs)   bands (ev):

   -33.7002 -33.6946 -17.1173 -17.0035 -15.1740 -15.0490 -14.9779 -14.7597
   -14.7204 -14.6319 -13.8161 -13.6420 -13.5258 -13.4174  -3.0397  -2.9452
    -1.5618  -1.3687  -1.3004  -1.2342  -1.1693  -0.7464   2.1583   2.4303
     2.4390   2.5256   2.6408   2.8508   3.1500   3.2516   4.2372   4.3533

          k =-0.4254 0.2456 0.2491 (  8455 PWs)   bands (ev):

   -33.7006 -33.6943 -17.1406 -16.9872 -15.1603 -15.1340 -14.8061 -14.7487
   -14.7257 -14.6977 -13.8007 -13.7417 -13.4618 -13.4215  -3.1211  -2.9476
    -1.5438  -1.3960  -1.3513  -1.2199  -1.1270  -0.7720   2.1417   2.3727
     2.4926   2.7019   2.7093   2.9557   2.9841   3.3413   4.1549   4.3206

          k =-0.5672 0.1637 0.2906 (  8453 PWs)   bands (ev):

   -33.6997 -33.6951 -17.1402 -16.9814 -15.1982 -15.1282 -14.8239 -14.7633
   -14.7038 -14.6514 -13.8756 -13.7202 -13.4655 -13.3844  -3.1006  -2.8804
    -1.5522  -1.4055  -1.3151  -1.2081  -1.0275  -0.8146   2.0354   2.2984
     2.4755   2.6741   2.7024   2.8009   3.0685   3.2880   4.1734   4.4035

          k = 0.5672 0.8187-0.0415 (  8444 PWs)   bands (ev):

   -33.6985 -33.6961 -17.1095 -17.0123 -15.1765 -15.0735 -14.8799 -14.8143
   -14.7158 -14.6608 -13.8379 -13.6720 -13.4934 -13.3992  -3.0212  -2.8786
    -1.5051  -1.4621  -1.3334  -1.2027  -0.9217  -0.8315   2.0299   2.2179
     2.4762   2.5652   2.6691   2.6910   3.1429   3.2431   4.2630   4.4206

          k = 0.4254 0.7368 0.0000 (  8443 PWs)   bands (ev):

   -33.6973 -33.6973 -17.0607 -17.0605 -15.1219 -15.0869 -14.9221 -14.8327
   -14.7242 -14.6659 -13.7361 -13.7294 -13.4557 -13.4525  -2.9334  -2.9329
    -1.5263  -1.4173  -1.3587  -1.2042  -0.8920  -0.8464   2.1274   2.1391
     2.4556   2.4728   2.6549   2.6916   3.1753   3.2187   4.3636   4.3672

          k =-0.5672 0.3275 0.3321 (  8482 PWs)   bands (ev):

   -33.6995 -33.6952 -17.1594 -16.9553 -15.2133 -15.2073 -14.7553 -14.7341
   -14.7024 -14.5982 -13.9251 -13.8250 -13.4021 -13.3615  -3.1372  -2.8128
    -1.5921  -1.3824  -1.2680  -1.1960  -0.9904  -0.8570   1.9389   2.2500
     2.4921   2.7215   2.7284   2.7368   3.1016   3.2655   4.1248   4.4612

          k = 0.5672 0.9824 0.0000 (  8460 PWs)   bands (ev):

   -33.6991 -33.6955 -17.1479 -16.9682 -15.2069 -15.1802 -14.7794 -14.7274
   -14.7252 -14.6245 -13.9154 -13.7809 -13.4216 -13.3650  -3.1048  -2.8134
    -1.5731  -1.4093  -1.2819  -1.1944  -0.9525  -0.8479   1.9374   2.2268
     2.4997   2.6619   2.6953   2.7038   3.1389   3.2449   4.1632   4.4695

          k = 0.0000-0.0000 0.1246 (  8462 PWs)   bands (ev):

   -33.7037 -33.6919 -17.0847 -17.0739 -15.1261 -15.1261 -14.7868 -14.7868
   -14.6722 -14.5694 -13.8860 -13.8860 -13.3910 -13.3910  -3.3195  -3.0671
    -1.6484  -1.5315  -1.5315  -1.2880  -1.2880  -0.4418   2.3621   2.3621
     2.7693   2.7693   2.9739   2.9739   3.5452   3.5452   3.7769   4.1760

          k =-0.1418-0.0819 0.1661 (  8459 PWs)   bands (ev):

   -33.7030 -33.6925 -17.0820 -17.0731 -15.1368 -15.0682 -14.8682 -14.7606
   -14.6880 -14.6166 -13.8788 -13.7621 -13.4619 -13.3908  -3.2713  -3.0772
    -1.5926  -1.5120  -1.4722  -1.3078  -1.2903  -0.5108   2.3901   2.4189
     2.7056   2.7554   2.8671   2.9575   3.4490   3.4769   3.8892   4.1757

          k =-0.2836-0.1637 0.2076 (  8466 PWs)   bands (ev):

   -33.7016 -33.6936 -17.0900 -17.0542 -15.1334 -14.9907 -14.9888 -14.7580
   -14.7137 -14.6505 -13.8175 -13.6192 -13.5753 -13.4143  -3.1664  -3.0605
    -1.5307  -1.4642  -1.3543  -1.2982  -1.2930  -0.6308   2.4010   2.5210
     2.5991   2.6296   2.7420   2.8637   3.2907   3.3374   4.0787   4.2026

          k =-0.4254-0.2456 0.2491 (  8442 PWs)   bands (ev):

   -33.6998 -33.6951 -17.0774 -17.0541 -15.1042 -15.0535 -14.9636 -14.8547
   -14.6815 -14.6538 -13.7295 -13.6301 -13.5653 -13.4584  -3.0705  -2.9993
    -1.5011  -1.4603  -1.3166  -1.2718  -1.1244  -0.7491   2.2947   2.3380
     2.5435   2.5842   2.7546   2.8469   3.1390   3.2017   4.2185   4.2608

          k = 0.7090 0.4093-0.0830 (  8444 PWs)   bands (ev):

   -33.6977 -33.6970 -17.0796 -17.0430 -15.0989 -15.0335 -14.9827 -14.9242
   -14.6771 -14.6393 -13.6786 -13.6378 -13.5536 -13.4913  -3.0279  -2.9278
    -1.5305  -1.4628  -1.2825  -1.2135  -0.9535  -0.8805   2.1238   2.2146
     2.4935   2.5919   2.7689   2.9125   3.0382   3.1346   4.2582   4.3363

          k = 0.5672 0.3275-0.0415 (  8433 PWs)   bands (ev):

   -33.6991 -33.6956 -17.1098 -17.0091 -15.1292 -15.0843 -14.9469 -14.8713
   -14.6907 -14.6230 -13.7439 -13.6312 -13.5317 -13.4682  -3.0378  -2.9142
    -1.5739  -1.3951  -1.2828  -1.2023  -1.0589  -0.8211   2.0699   2.2730
     2.4656   2.6239   2.7156   2.9421   3.0378   3.1752   4.2310   4.3657

          k = 0.4254 0.2456 0.0000 (  8443 PWs)   bands (ev):

   -33.7010 -33.6939 -17.1209 -17.0054 -15.1437 -15.0608 -14.9457 -14.7999
   -14.7045 -14.6562 -13.7754 -13.6092 -13.5636 -13.4408  -3.0626  -2.9953
    -1.5576  -1.3985  -1.2904  -1.2623  -1.2335  -0.7081   2.2189   2.4030
     2.5387   2.6329   2.6407   2.8861   3.1418   3.2910   4.2076   4.2806

          k = 0.2836 0.1637 0.0415 (  8456 PWs)   bands (ev):

[...]
     2.5246   2.5796   2.6959   2.7919   3.0691   3.2385   4.2559   4.3158

          k = 0.5672 0.6549 0.0415 (  8455 PWs)   bands (ev):

   -33.7095 -33.7095 -17.0851 -17.0619 -15.1378 -15.0621 -14.9644 -14.8310
   -14.7274 -14.6899 -13.7771 -13.6699 -13.5246 -13.4433  -2.9810  -2.9278
    -1.5367  -1.4106  -1.3684  -1.2241  -0.8933  -0.8773   2.1102   2.1584
     2.4581   2.5338   2.6715   2.7314   3.1322   3.1980   4.3161   4.3624

          k = 0.4254 0.5730 0.0830 (  8449 PWs)   bands (ev):

   -33.7109 -33.7081 -17.1172 -17.0245 -15.1815 -15.0588 -14.9963 -14.7692
   -14.7334 -14.6534 -13.8454 -13.6341 -13.5511 -13.4096  -3.0143  -2.8911
    -1.5685  -1.3894  -1.3126  -1.2371  -1.0021  -0.8196   2.0599   2.2610
     2.4043   2.5215   2.6574   2.7678   3.1521   3.2075   4.2696   4.4103

          k = 0.2836 0.4912 0.1245 (  8465 PWs)   bands (ev):

   -33.7122 -33.7069 -17.1260 -17.0197 -15.1808 -15.0531 -14.9771 -14.8011
   -14.7132 -14.6523 -13.8248 -13.6400 -13.5473 -13.4291  -3.0412  -2.9534
    -1.5532  -1.3998  -1.3226  -1.2444  -1.1335  -0.7659   2.1518   2.3773
     2.4653   2.5235   2.6552   2.8409   3.1153   3.2572   4.2358   4.3453

          k =-0.4254 0.2456 0.3735 (  8466 PWs)   bands (ev):

   -33.7119 -33.7073 -17.1492 -17.0049 -15.1937 -15.1149 -14.7981 -14.7776
   -14.7623 -14.6749 -13.8033 -13.7859 -13.4494 -13.4411  -3.1409  -2.9447
    -1.5522  -1.3991  -1.3319  -1.2427  -1.0680  -0.8363   2.1298   2.3257
     2.5355   2.7074   2.7340   2.8569   3.0152   3.3049   4.1397   4.3213

          k = 0.7089 0.9005 0.0415 (  8468 PWs)   bands (ev):

   -33.7112 -33.7078 -17.1458 -17.0024 -15.1937 -15.1406 -14.8126 -14.7638
   -14.7335 -14.6915 -13.8468 -13.7697 -13.4489 -13.4163  -3.1071  -2.8857
    -1.5556  -1.4153  -1.3109  -1.2339  -0.9833  -0.8536   2.0344   2.2586
     2.5205   2.6807   2.6963   2.7429   3.0774   3.2538   4.1726   4.3946

          k = 0.5672 0.8186 0.0830 (  8459 PWs)   bands (ev):

   -33.7104 -33.7086 -17.1139 -17.0330 -15.1625 -15.0986 -14.8649 -14.8325
   -14.7364 -14.6984 -13.8126 -13.7077 -13.4852 -13.4288  -3.0172  -2.8911
    -1.5131  -1.4696  -1.3263  -1.2311  -0.9080  -0.8495   2.0347   2.1869
     2.4982   2.5655   2.6511   2.6755   3.1467   3.2170   4.2707   4.4059

          k = 0.4254 0.7367 0.1245 (  8438 PWs)   bands (ev):

   -33.7094 -33.7094 -17.0723 -17.0722 -15.1240 -15.1070 -14.9120 -14.8696
   -14.7161 -14.6888 -13.7444 -13.7411 -13.4660 -13.4644  -2.9369  -2.9366
    -1.5166  -1.4711  -1.3091  -1.2411  -0.8886  -0.8660   2.1249   2.1307
     2.4542   2.4627   2.6580   2.6763   3.1806   3.2022   4.3609   4.3627

          k = 0.2836 0.6549 0.1660 (  8454 PWs)   bands (ev):

   -33.7104 -33.7086 -17.0942 -17.0490 -15.1465 -15.0669 -14.9714 -14.8698
   -14.6938 -14.6651 -13.7766 -13.6703 -13.5204 -13.4505  -2.9763  -2.9305
    -1.5305  -1.4634  -1.2751  -1.2502  -0.9685  -0.8459   2.1194   2.2230
     2.4392   2.4640   2.6918   2.7559   3.1495   3.1937   4.3095   4.3702

          k = 0.7089-0.4093-0.2905 (  8471 PWs)   bands (ev):

   -33.7113 -33.7077 -17.1655 -16.9746 -15.2243 -15.1991 -14.7669 -14.7448
   -14.7371 -14.6117 -13.9052 -13.8455 -13.4069 -13.3867  -3.1391  -2.8204
    -1.5989  -1.3868  -1.2592  -1.2284  -0.9747  -0.8795   1.9438   2.2352
     2.5102   2.6662   2.7269   2.7594   3.0982   3.2341   4.1286   4.4506

          k = 0.5672-0.4912-0.2490 (  8466 PWs)   bands (ev):

   -33.7112 -33.7078 -17.1539 -16.9861 -15.2096 -15.1765 -14.8254 -14.7452
   -14.7288 -14.6387 -13.9082 -13.7689 -13.4479 -13.3827  -3.0995  -2.8267
    -1.5846  -1.4046  -1.2724  -1.2293  -0.9664  -0.8548   1.9465   2.2307
     2.4641   2.6606   2.6831   2.7353   3.1257   3.2238   4.1712   4.4561

          k = 0.4254-0.5730-0.2075 (  8453 PWs)   bands (ev):

   -33.7109 -33.7081 -17.1219 -17.0211 -15.1913 -15.0704 -14.9479 -14.7967
   -14.7155 -14.6625 -13.8605 -13.6497 -13.5343 -13.4026  -3.0235  -2.8824
    -1.5440  -1.4393  -1.2995  -1.2397  -0.9653  -0.8288   2.0348   2.2409
     2.4310   2.5448   2.6566   2.7327   3.1409   3.2298   4.2595   4.4184

          k = 0.5672-0.3274-0.2075 (  8474 PWs)   bands (ev):

   -33.7118 -33.7072 -17.1641 -16.9738 -15.2120 -15.1987 -14.8074 -14.7419
   -14.7401 -14.6083 -13.9107 -13.7872 -13.4396 -13.3846  -3.1227  -2.8341
    -1.6008  -1.3768  -1.2615  -1.2321  -1.0322  -0.8461   1.9529   2.2798
     2.4324   2.6914   2.7125   2.8258   3.0700   3.2499   4.1401   4.4424

          k = 0.4254-0.4093-0.1660 (  8456 PWs)   bands (ev):

   -33.7121 -33.7069 -17.1480 -16.9948 -15.2065 -15.1165 -14.8991 -14.7577
   -14.7275 -14.6418 -13.8810 -13.6773 -13.5174 -13.3978  -3.0877  -2.8970
    -1.5723  -1.3920  -1.3027  -1.2362  -1.0919  -0.7975   2.0499   2.3482
     2.4219   2.6366   2.6731   2.8695   3.0604   3.2742   4.1842   4.3903

          k = 0.4254-0.2456-0.1245 (  8471 PWs)   bands (ev):

   -33.7131 -33.7061 -17.1459 -17.0035 -15.1571 -15.1271 -14.8830 -14.7613
   -14.7413 -14.6874 -13.8101 -13.6857 -13.5188 -13.4344  -3.0980  -2.9704
    -1.5577  -1.4022  -1.3485  -1.2420  -1.1924  -0.7404   2.1650   2.4228
     2.4617   2.6502   2.6773   2.9356   3.0523   3.3261   4.1751   4.3013

          k =-0.0000-0.0000 0.2490 (  8465 PWs)   bands (ev):

   -33.7147 -33.7052 -17.0961 -17.0874 -15.1126 -15.1126 -14.8433 -14.8433
   -14.6733 -14.5901 -13.8355 -13.8355 -13.4398 -13.4398  -3.3143  -3.1152
    -1.5303  -1.5152  -1.5152  -1.3175  -1.3175  -0.5549   2.3954   2.3954
     2.7227   2.7227   3.0186   3.0186   3.4778   3.4778   3.8061   4.1267

          k =-0.1418-0.0819 0.2905 (  8464 PWs)   bands (ev):

   -33.7139 -33.7059 -17.0924 -17.0877 -15.1336 -15.0414 -14.9420 -14.8012
   -14.6859 -14.6216 -13.8458 -13.7108 -13.5250 -13.4292  -3.2690  -3.1203
    -1.5131  -1.4975  -1.4090  -1.3276  -1.3245  -0.6308   2.4168   2.4461
     2.6665   2.6901   2.9207   3.0262   3.3558   3.4239   3.9086   4.1291

          k =-0.2836-0.1637 0.3320 (  8460 PWs)   bands (ev):

   -33.7126 -33.7070 -17.0899 -17.0801 -15.1359 -15.0360 -14.9744 -14.7582
   -14.7434 -14.6468 -13.8097 -13.6151 -13.6079 -13.4373  -3.1809  -3.0760
    -1.4784  -1.4684  -1.3683  -1.3262  -1.2118  -0.7315   2.3840   2.5050
     2.5918   2.6158   2.7486   2.9731   3.1851   3.2945   4.0743   4.1821

          k = 0.8507 0.4912 0.0000 (  8463 PWs)   bands (ev):

   -33.7109 -33.7084 -17.0935 -17.0639 -15.1507 -15.0175 -14.9954 -14.8233
   -14.7201 -14.6490 -13.7840 -13.6260 -13.5891 -13.4429  -3.1087  -2.9779
    -1.5072  -1.4425  -1.3520  -1.2717  -1.0468  -0.8219   2.2285   2.3517
     2.5360   2.6130   2.6973   2.9743   3.0342   3.1779   4.1839   4.2796

          k = 0.7089 0.4093 0.0415 (  8463 PWs)   bands (ev):

   -33.7100 -33.7090 -17.1237 -17.0216 -15.1656 -15.1091 -14.9043 -14.8570
   -14.7139 -14.6302 -13.7610 -13.7447 -13.4854 -13.4524  -3.0815  -2.8816
    -1.5771  -1.3863  -1.3326  -1.2100  -0.9280  -0.9177   2.0425   2.2497
     2.4542   2.6486   2.7081   2.9360   3.0159   3.1470   4.2025   4.3822

          k = 0.5672 0.3274 0.0830 (  8443 PWs)   bands (ev):

   -33.7116 -33.7074 -17.1470 -16.9925 -15.1857 -15.1549 -14.8770 -14.8031
   -14.7254 -14.6161 -13.8442 -13.7184 -13.4835 -13.4208  -3.0883  -2.8693
    -1.5992  -1.3596  -1.2888  -1.2248  -1.0662  -0.8297   1.9987   2.3056
     2.4124   2.6743   2.6807   2.9374   3.0161   3.2160   4.1784   4.4086

          k =-0.1418 0.0819 0.3320 (  8478 PWs)   bands (ev):

   -33.7134 -33.7064 -17.0966 -17.0845 -15.1147 -15.0409 -14.9385 -14.8314
   -14.6706 -14.6469 -13.7948 -13.7094 -13.5248 -13.4634  -3.2566  -3.1441
    -1.4987  -1.4710  -1.3981  -1.3261  -1.3182  -0.6805   2.4263   2.4678
     2.6297   2.6740   2.9571   3.0592   3.3017   3.4251   3.9213   4.1059

          k =-0.2836-0.0000 0.3735 (  8457 PWs)   bands (ev):

   -33.7124 -33.7072 -17.1002 -17.0743 -15.1178 -15.0488 -14.9387 -14.8075
   -14.7109 -14.6660 -13.7680 -13.6732 -13.5525 -13.4715  -3.1832  -3.1264
    -1.4674  -1.4503  -1.4026  -1.3150  -1.2100  -0.7620   2.4162   2.4754
     2.5887   2.6246   2.8513   3.0206   3.1606   3.3394   4.0503   4.1355

          k = 0.8507 0.6549 0.0415 (  8458 PWs)   bands (ev):

   -33.7111 -33.7083 -17.0828 -17.0811 -15.1210 -15.0792 -14.9163 -14.8037
   -14.7427 -14.6794 -13.7591 -13.6765 -13.5435 -13.4634  -3.1085  -3.0420
    -1.4747  -1.4143  -1.4105  -1.2901  -1.0568  -0.8285   2.3018   2.3624
     2.5957   2.6010   2.7156   2.9347   3.0779   3.2215   4.1748   4.2255

          k = 0.7089 0.5730 0.0830 (  8471 PWs)   bands (ev):

   -33.7096 -33.7095 -17.1094 -17.0425 -15.1547 -15.0768 -14.9297 -14.8148
   -14.7230 -14.6783 -13.7809 -13.6976 -13.5164 -13.4414  -3.0726  -2.9228
    -1.5448  -1.3825  -1.3707  -1.2440  -0.9307  -0.8876   2.1116   2.2473
     2.5074   2.6202   2.6836   2.8472   3.0913   3.1578   4.2212   4.3478

          k = 0.5672 0.4912 0.1245 (  8448 PWs)   bands (ev):

   -33.7109 -33.7081 -17.1390 -17.0023 -15.1897 -15.1399 -14.8954 -14.7686
   -14.7312 -14.6376 -13.8619 -13.7142 -13.4887 -13.4038  -3.0749  -2.8525
    -1.5891  -1.3738  -1.3013  -1.2306  -0.9771  -0.8542   1.9873   2.2467
     2.4248   2.6398   2.6830   2.8105   3.1038   3.1923   4.2016   4.4290

          k =-0.2836 0.1637 0.4149 (  8469 PWs)   bands (ev):

   -33.7119 -33.7076 -17.1168 -17.0550 -15.1459 -14.9978 -14.9473 -14.8243
   -14.7235 -14.6680 -13.7685 -13.6517 -13.5587 -13.4773  -3.1544  -3.1161
    -1.4923  -1.4200  -1.3826  -1.3010  -1.1447  -0.8223   2.3861   2.4145
     2.5991   2.6186   2.8520   3.0345   3.0466   3.3298   4.1191   4.1228

          k = 0.8507 0.8186 0.0830 (  8467 PWs)   bands (ev):

   -33.7111 -33.7083 -17.1160 -17.0481 -15.1519 -15.0562 -14.8840 -14.8113
   -14.7418 -14.6921 -13.7657 -13.7001 -13.5095 -13.4721  -3.1163  -3.0373
    -1.4980  -1.4219  -1.3560  -1.2918  -1.0334  -0.8638   2.2647   2.3462
     2.5747   2.6467   2.7826   2.8622   3.0675   3.2566   4.1659   4.2309

          k = 0.7089 0.7367 0.1245 (  8464 PWs)   bands (ev):

   -33.7100 -33.7091 -17.0879 -17.0684 -15.1211 -15.0845 -14.8628 -14.8490
   -14.7379 -14.7326 -13.7478 -13.6971 -13.5044 -13.4709  -3.0129  -2.9971
    -1.4774  -1.4720  -1.3353  -1.2767  -0.9253  -0.8722   2.1734   2.2056
     2.5667   2.5958   2.6995   2.7365   3.1193   3.1858   4.2741   4.2951

          k = 0.5672 0.6549 0.1660 (  8451 PWs)   bands (ev):

   -33.7100 -33.7090 -17.1015 -17.0462 -15.1331 -15.1047 -14.9121 -14.8050
   -14.7339 -14.7152 -13.7842 -13.7034 -13.4954 -13.4398  -3.0022  -2.9068
    -1.5328  -1.4459  -1.2961  -1.2695  -0.8967  -0.8590   2.0651   2.1686
     2.4841   2.5631   2.6533   2.6969   3.1625   3.1832   4.2907   4.3870

          k = 0.8507-0.4912-0.2490 (  8470 PWs)   bands (ev):

   -33.7108 -33.7084 -17.1378 -17.0192 -15.1982 -15.0770 -14.8724 -14.7760
   -14.7445 -14.6515 -13.8285 -13.7418 -13.4833 -13.4251  -3.1443  -2.9477
    -1.5511  -1.3894  -1.2965  -1.2922  -0.9890  -0.8975   2.1445   2.3158
     2.5759   2.6886   2.7091   2.8548   3.0530   3.2399   4.1423   4.3147

          k = 0.7089-0.5730-0.2075 (  8471 PWs)   bands (ev):

   -33.7104 -33.7086 -17.1313 -17.0196 -15.1749 -15.1199 -14.8608 -14.7603
   -14.7374 -14.7000 -13.7879 -13.7792 -13.4575 -13.4368  -3.0964  -2.8991
    -1.5563  -1.4044  -1.2925  -1.2750  -0.9347  -0.8860   2.0627   2.2465
     2.5385   2.6468   2.6774   2.7844   3.1010   3.1945   4.1910   4.3761

          k = 0.7089-0.4093-0.1660 (  8467 PWs)   bands (ev):

   -33.7107 -33.7083 -17.1494 -16.9936 -15.2050 -15.1624 -14.8166 -14.7955
   -14.7310 -14.6164 -13.8357 -13.8180 -13.4249 -13.4200  -3.1188  -2.8429
    -1.5956  -1.3683  -1.2968  -1.2278  -0.9548  -0.8914   1.9817   2.2471
     2.4742   2.6774   2.6989   2.8355   3.0807   3.1835   4.1579   4.4238

          k = 0.0000 0.0000 0.3735 (  8456 PWs)   bands (ev):

   -33.7131 -33.7069 -17.0954 -17.0898 -15.0756 -15.0756 -14.9034 -14.9034
   -14.6576 -14.6033 -13.7536 -13.7536 -13.4990 -13.4990  -3.2959  -3.1703
    -1.4808  -1.4808  -1.3519  -1.3519  -1.3466  -0.7133   2.4533   2.4533
     2.6651   2.6651   3.0926   3.0926   3.3891   3.3891   3.8561   4.0624

          k =-0.1418-0.0819 0.4149 (  8470 PWs)   bands (ev):

   -33.7122 -33.7076 -17.0909 -17.0909 -15.1058 -14.9997 -14.9969 -14.8533
   -14.6682 -14.6247 -13.7766 -13.6429 -13.5896 -13.4768  -3.2539  -3.1651
    -1.4680  -1.4515  -1.3701  -1.3665  -1.2327  -0.7878   2.4605   2.4941
     2.6212   2.6243   3.0002   3.1200   3.2517   3.3477   3.9449   4.0745

          k = 0.9925 0.5730 0.0830 (  8474 PWs)   bands (ev):

   -33.7110 -33.7085 -17.0946 -17.0774 -15.1368 -15.0363 -14.9577 -14.8008
   -14.7197 -14.6432 -13.7895 -13.6238 -13.5998 -13.4552  -3.1832  -3.0913
    -1.4725  -1.4110  -1.3816  -1.3462  -1.0897  -0.8567   2.3787   2.4726
     2.5870   2.6120   2.8120   3.0789   3.0890   3.2370   4.0803   4.1614

          k = 0.8507 0.4912 0.1245 (  8458 PWs)   bands (ev):

   -33.7096 -33.7096 -17.1185 -17.0397 -15.1832 -15.0353 -14.9484 -14.7839
   -14.7396 -14.6432 -13.8203 -13.6855 -13.5317 -13.4260  -3.1332  -2.9591
    -1.5367  -1.3737  -1.3648  -1.2752  -0.9673  -0.9027   2.1785   2.3317
     2.5750   2.6535   2.6736   2.9340   3.0656   3.1713   4.1582   4.2995

          k =-0.1418 0.0819 0.4564 (  8475 PWs)   bands (ev):

   -33.7116 -33.7082 -17.0957 -17.0867 -15.0926 -15.0005 -14.9845 -14.8845
   -14.6527 -14.6441 -13.7386 -13.6270 -13.6007 -13.5089  -3.2363  -3.1898
    -1.4586  -1.4357  -1.3954  -1.3562  -1.1749  -0.8497   2.4803   2.5139
     2.5772   2.6189   3.0389   3.1516   3.2007   3.3341   3.9647   4.0487

          k = 0.9925 0.7367 0.1245 (  8456 PWs)   bands (ev):

   -33.7107 -33.7089 -17.0925 -17.0835 -15.0986 -15.0716 -14.9088 -14.8598
   -14.6841 -14.6680 -13.7279 -13.6882 -13.5405 -13.5057  -3.1724  -3.1530
    -1.4466  -1.4299  -1.3875  -1.3497  -1.0658  -0.9074   2.4383   2.4632
     2.5821   2.5991   2.9343   3.0234   3.1593   3.2530   4.0725   4.1018

          k = 0.8507 0.6549 0.1660 (  8461 PWs)   bands (ev):

   -33.7097 -33.7097 -17.1002 -17.0650 -15.1400 -15.0597 -14.9044 -14.8063
   -14.7347 -14.6924 -13.7654 -13.6824 -13.5329 -13.4654  -3.1170  -3.0398
    -1.4906  -1.4185  -1.3470  -1.3172  -0.9579  -0.9284   2.2784   2.3452
     2.5968   2.6215   2.7616   2.8785   3.1302   3.1782   4.1668   4.2279

          k = 0.9925-0.5730-0.2075 (  8463 PWs)   bands (ev):

   -33.7103 -33.7093 -17.1074 -17.0654 -15.1453 -15.0003 -14.9617 -14.8300
   -14.7104 -14.6511 -13.7783 -13.6140 -13.6014 -13.4696  -3.1744  -3.1053
    -1.4830  -1.3995  -1.3608  -1.3493  -1.0026  -0.9541   2.3800   2.4378
     2.5911   2.6130   2.8811   2.9947   3.1198   3.2429   4.0952   4.1411

          k =-0.0000-0.0000 0.4979 (  8465 PWs)   bands (ev):

   -33.7110 -33.7089 -17.0941 -17.0922 -15.0260 -15.0260 -14.9670 -14.9670
   -14.6390 -14.6202 -13.6632 -13.6632 -13.5756 -13.5756  -3.2658  -3.2230
    -1.4387  -1.4387  -1.3940  -1.3940  -1.1321  -0.9129   2.5233   2.5233
     2.5966   2.5966   3.1843   3.1843   3.2867   3.2867   3.9193   3.9903

          k = 1.1343 0.6549 0.1660 (  8466 PWs)   bands (ev):

   -33.7102 -33.7096 -17.0937 -17.0890 -15.0729 -15.0386 -14.9510 -14.9102
   -14.6525 -14.6361 -13.7029 -13.6517 -13.5822 -13.5356  -3.2276  -3.2055
    -1.4382  -1.4054  -1.4053  -1.3956  -1.0430  -0.9769   2.5103   2.5370
     2.5664   2.5772   3.0897   3.1477   3.2188   3.2601   3.9930   4.0175

     highest occupied level (ev):     4.4656

!    total energy              =    -367.43354123 Ry
     Harris-Foulkes estimate   =    -367.43354123 Ry
     estimated scf accuracy    <          2.5E-11 Ry

     The total energy is the sum of the following terms:

     one-electron contribution =    -148.39789752 Ry
     hartree contribution      =     103.55090862 Ry
     xc contribution           =     -75.26703703 Ry
     ewald contribution        =    -247.31951530 Ry

     convergence has been achieved in  12 iterations

     Forces acting on atoms (cartesian axes, Ry/au):

     atom    1 type  1   force =    -0.00000000   -0.00000000    0.00000000
     atom    2 type  1   force =     0.00000000    0.00000000   -0.00000000
     atom    3 type  2   force =    -0.00000000   -0.00000000   -0.00000000
     atom    4 type  2   force =     0.00000000   -0.00000000   -0.00000000
     atom    5 type  3   force =     0.00009341   -0.00016179   -0.00000000
     atom    6 type  3   force =    -0.00018682   -0.00000000   -0.00000000
     atom    7 type  3   force =     0.00009341    0.00016179    0.00000000
     atom    8 type  3   force =     0.00018682    0.00000000    0.00000000
     atom    9 type  3   force =    -0.00009341   -0.00016179   -0.00000000
     atom   10 type  3   force =    -0.00009341    0.00016179    0.00000000

     Total force =     0.000458     Total SCF correction =     0.000010


     Computing stress (Cartesian axis) and pressure

          total   stress  (Ry/bohr**3)                   (kbar)     P=    0.31
   0.00000152   0.00000000  -0.00000000          0.22      0.00     -0.00
   0.00000000   0.00000152   0.00000000          0.00      0.22      0.00
  -0.00000000   0.00000000   0.00000319         -0.00      0.00      0.47


     Writing output data file CCO_new.save/
 
     init_run     :     36.15s CPU     41.21s WALL (       2 calls)
     electrons    :   2329.33s CPU   2547.70s WALL (       5 calls)
     update_pot   :      0.72s CPU      0.75s WALL (       3 calls)
     forces       :      4.51s CPU      4.73s WALL (       5 calls)
     stress       :      6.78s CPU      6.95s WALL (       5 calls)

     Called by init_run:
     wfcinit      :     34.03s CPU     38.96s WALL (       2 calls)
     potinit      :      0.17s CPU      0.18s WALL (       2 calls)
     hinit0       :      1.15s CPU      1.23s WALL (       2 calls)

     Called by electrons:
     c_bands      :   2169.46s CPU   2381.21s WALL (      53 calls)
     sum_band     :    156.91s CPU    163.07s WALL (      53 calls)
     v_of_rho     :      1.44s CPU      1.49s WALL (      56 calls)
     newd         :      0.60s CPU      0.62s WALL (      56 calls)
     mix_rho      :      0.52s CPU      0.54s WALL (      53 calls)

     Called by c_bands:
     init_us_2    :      1.79s CPU      2.04s WALL (   10030 calls)
     ccgdiagg     :   1581.28s CPU   1692.29s WALL (    4552 calls)
     wfcrot       :    618.63s CPU    719.13s WALL (    4127 calls)

     Called by sum_band:
     sum_band:bec :      1.22s CPU      1.30s WALL (    4505 calls)
     addusdens    :      0.17s CPU      0.17s WALL (      53 calls)

     Called by *cgdiagg:
     h_psi        :   1438.72s CPU   1512.41s WALL (  458299 calls)
     s_psi        :     40.68s CPU     45.55s WALL (  912471 calls)
     cdiaghg      :    232.76s CPU    317.24s WALL (    4127 calls)

     Called by h_psi:
     h_psi:pot    :   1426.79s CPU   1498.87s WALL (  458299 calls)
     h_psi:calbec :    138.84s CPU    149.18s WALL (  458299 calls)
     vloc_psi     :   1241.35s CPU   1299.71s WALL (  458299 calls)
     add_vuspsi   :     31.20s CPU     34.36s WALL (  458299 calls)
     hs_1psi      :   1205.22s CPU   1273.35s WALL (  454172 calls)
     s_1psi       :    112.03s CPU    123.05s WALL (  454172 calls)

     General routines
     calbec       :    212.46s CPU    232.26s WALL (  919101 calls)
     fft          :      2.46s CPU      2.51s WALL (     746 calls)
     ffts         :      0.11s CPU      0.11s WALL (      53 calls)
     fftw         :   1336.62s CPU   1397.54s WALL ( 1323432 calls)
 
     Parallel routines
     fft_scatt_xy :     47.36s CPU     48.81s WALL ( 1324231 calls)
     fft_scatt_yz :   1082.93s CPU   1137.92s WALL ( 1324231 calls)
 
     PWSCF        :  40m19.77s CPU  44m18.95s WALL

 
   This run was terminated on:  14:33:43  28Apr2022            

=------------------------------------------------------------------------------=
   JOB DONE.
=------------------------------------------------------------------------------=
