
     Program PWSCF v.7.0 starts on 14Mar2022 at 17:58:37 

     This program is part of the open-source Quantum ESPRESSO suite
     for quantum simulation of materials; please cite
         "P. Giannozzi et al., J. Phys.:Condens. Matter 21 395502 (2009);
         "P. Giannozzi et al., J. Phys.:Condens. Matter 29 465901 (2017);
         "P. Giannozzi et al., J. Chem. Phys. 152 154105 (2020);
          URL http://www.quantum-espresso.org", 
     in publications or presentations arising from this work. More details at
     http://www.quantum-espresso.org/quote

     Parallel version (MPI), running on     1 processors

     MPI processes distributed on     1 nodes
     90726 MiB available memory on the printing compute node when the environment starts
 
     Waiting for input...
     Reading input from standard input
     Message from routine read_cards :
     DEPRECATED: no units specified in ATOMIC_POSITIONS card
     Message from routine read_cards :
     ATOMIC_POSITIONS: units set to alat

     Current dimensions of program PWSCF are:
     Max number of different atomic species (ntypx) = 10
     Max number of k-points (npk) =  40000
     Max angular momentum in pseudopotentials (lmaxx) =  4

     Subspace diagonalization in iterative solution of the eigenvalue problem:
     a serial algorithm will be used

 
     G-vector sticks info
     --------------------
     sticks:   dense  smooth     PW     G-vecs:    dense   smooth      PW
     Sum         253     253     85                 2685     2685     537
 
     Using Slab Decomposition
 


     bravais-lattice index     =            2
     lattice parameter (alat)  =       6.7400  a.u.
     unit-cell volume          =      76.5455 (a.u.)^3
     number of atoms/cell      =            2
     number of atomic types    =            1
     number of electrons       =         8.00
     number of Kohn-Sham states=            4
     kinetic-energy cutoff     =      40.0000  Ry
     charge density cutoff     =     160.0000  Ry
     scf convergence threshold =      1.0E-08
     mixing beta               =       0.7000
     number of iterations used =            8  plain     mixing
     energy convergence thresh.=      1.0E-04
     force convergence thresh. =      1.0E-03
     press convergence thresh. =      5.0E-01
     Exchange-correlation= SLA  PZ   NOGX NOGC
                           (   1   1   0   0   0   0   0)
     nstep                     =           50


     celldm(1)=   6.740000  celldm(2)=   0.000000  celldm(3)=   0.000000
     celldm(4)=   0.000000  celldm(5)=   0.000000  celldm(6)=   0.000000

     crystal axes: (cart. coord. in units of alat)
               a(1) = (  -0.500000   0.000000   0.500000 )  
               a(2) = (   0.000000   0.500000   0.500000 )  
               a(3) = (  -0.500000   0.500000   0.000000 )  

     reciprocal axes: (cart. coord. in units 2 pi/alat)
               b(1) = ( -1.000000 -1.000000  1.000000 )  
               b(2) = (  1.000000  1.000000  1.000000 )  
               b(3) = ( -1.000000  1.000000 -1.000000 )  


     PseudoPot. # 1 for C  read from file:
     ../../C_LDA.UPF
     MD5 check sum: 407c1fe918d93b14b177d5600f28733c
     Pseudo is Ultrasoft + core correction, Zval =  4.0
     Generated by new atomic code, or converted to UPF format
     Using radial grid of  721 points,  4 beta functions with: 
                l(1) =   0
                l(2) =   0
                l(3) =   1
                l(4) =   1
     Q(r) pseudized with  8 coefficients,  rinner =    1.100   1.100   1.100


     atomic species   valence    mass     pseudopotential
        C              4.00    12.01100     C ( 1.00)

     48 Sym. Ops., with inversion, found (24 have fractional translation)



   Cartesian axes

     site n.     atom                  positions (alat units)
         1           C   tau(   1) = (   0.0000000   0.0000000   0.0000000  )
         2           C   tau(   2) = (   0.2500000   0.2500000   0.2500000  )

     number of k points=    16
                       cart. coord. in units 2pi/alat
        k(    1) = (   0.0000000   0.0000000   0.0000000), wk =   0.0092593
        k(    2) = (  -0.1666667   0.1666667  -0.1666667), wk =   0.0740741
        k(    3) = (  -0.3333333   0.3333333  -0.3333333), wk =   0.0740741
        k(    4) = (   0.5000000  -0.5000000   0.5000000), wk =   0.0370370
        k(    5) = (   0.0000000   0.3333333   0.0000000), wk =   0.0555556
        k(    6) = (  -0.1666667   0.5000000  -0.1666667), wk =   0.2222222
        k(    7) = (   0.6666667  -0.3333333   0.6666667), wk =   0.2222222
        k(    8) = (   0.5000000  -0.1666667   0.5000000), wk =   0.2222222
        k(    9) = (   0.3333333  -0.0000000   0.3333333), wk =   0.1111111
        k(   10) = (   0.0000000   0.6666667   0.0000000), wk =   0.0555556
        k(   11) = (   0.8333333  -0.1666667   0.8333333), wk =   0.2222222
        k(   12) = (   0.6666667  -0.0000000   0.6666667), wk =   0.1111111
        k(   13) = (   0.0000000  -1.0000000   0.0000000), wk =   0.0277778
        k(   14) = (   0.6666667  -0.3333333   1.0000000), wk =   0.2222222
        k(   15) = (   0.5000000  -0.1666667   0.8333333), wk =   0.2222222
        k(   16) = (  -0.3333333  -1.0000000   0.0000000), wk =   0.1111111

     Dense  grid:     2685 G-vectors     FFT dimensions: (  20,  20,  20)

     Estimated max dynamical RAM per process >       4.71 MB

     Initial potential from superposition of free atoms

     starting charge       7.9999, renormalised to       8.0000
     Starting wfcs are    8 randomized atomic wfcs

     total cpu time spent up to now is        2.4 secs

     Self-consistent Calculation

     iteration #  1     ecut=    40.00 Ry     beta= 0.70
     CG style diagonalization
     ethr =  1.00E-02,  avg # of iterations =  3.0

     total cpu time spent up to now is        2.7 secs

     total energy              =     -23.03952427 Ry
     estimated scf accuracy    <       0.13212324 Ry

     iteration #  2     ecut=    40.00 Ry     beta= 0.70
     CG style diagonalization
     ethr =  1.65E-03,  avg # of iterations =  3.5

     total cpu time spent up to now is        3.0 secs

     total energy              =     -23.05492856 Ry
     estimated scf accuracy    <       0.00144613 Ry

     iteration #  3     ecut=    40.00 Ry     beta= 0.70
     CG style diagonalization
     ethr =  1.81E-05,  avg # of iterations =  4.0

     total cpu time spent up to now is        3.3 secs

     total energy              =     -23.05535649 Ry
     estimated scf accuracy    <       0.00005144 Ry

     iteration #  4     ecut=    40.00 Ry     beta= 0.70
     CG style diagonalization
     ethr =  6.43E-07,  avg # of iterations =  4.0

     total cpu time spent up to now is        3.6 secs

     total energy              =     -23.05537342 Ry
     estimated scf accuracy    <       0.00000221 Ry

     iteration #  5     ecut=    40.00 Ry     beta= 0.70
     CG style diagonalization
     ethr =  2.77E-08,  avg # of iterations =  3.9

     total cpu time spent up to now is        3.8 secs

     End of self-consistent calculation

          k = 0.0000 0.0000 0.0000 (   331 PWs)   bands (ev):

    -8.2151  13.0968  13.0968  13.0968

          k =-0.1667 0.1667-0.1667 (   320 PWs)   bands (ev):

    -7.4495   9.3782  12.0764  12.0764

          k =-0.3333 0.3333-0.3333 (   332 PWs)   bands (ev):

    -5.1996   3.7946  10.7842  10.7842

          k = 0.5000-0.5000 0.5000 (   332 PWs)   bands (ev):

    -2.3777  -0.2614  10.3058  10.3058

          k = 0.0000 0.3333 0.0000 (   327 PWs)   bands (ev):

    -7.1951  10.5263  10.5263  10.9289

          k =-0.1667 0.5000-0.1667 (   326 PWs)   bands (ev):

    -5.4394   5.9449   9.2664   9.7152

          k = 0.6667-0.3333 0.6667 (   329 PWs)   bands (ev):

    -2.4389   1.1425   8.1523   9.1373

          k = 0.5000-0.1667 0.5000 (   329 PWs)   bands (ev):

    -3.5228   2.6329   7.4608  10.1436

          k = 0.3333-0.0000 0.3333 (   325 PWs)   bands (ev):

    -6.1880   7.4777   8.2960  11.7271

          k = 0.0000 0.6667 0.0000 (   323 PWs)   bands (ev):

    -4.1998   6.0602   7.7902   7.7902

          k = 0.8333-0.1667 0.8333 (   326 PWs)   bands (ev):

    -1.6114   3.0363   5.4352   7.4642

          k = 0.6667-0.0000 0.6667 (   323 PWs)   bands (ev):

    -0.7612   2.2984   3.6967   8.4175

          k = 0.0000-1.0000 0.0000 (   342 PWs)   bands (ev):

     0.4894   0.4894   6.8029   6.8029

          k = 0.6667-0.3333 1.0000 (   332 PWs)   bands (ev):

    -3.2590   4.5376   5.7909   8.2974

          k = 0.5000-0.1667 0.8333 (   324 PWs)   bands (ev):

    -0.6146   1.4506   5.3226   7.1595

          k =-0.3333-1.0000 0.0000 (   330 PWs)   bands (ev):

     1.0577   1.0577   5.2675   5.2675

     highest occupied level (ev):    13.0968

!    total energy              =     -23.05537416 Ry
     estimated scf accuracy    <          7.8E-09 Ry

     The total energy is the sum of the following terms:
     one-electron contribution =       7.94540312 Ry
     hartree contribution      =       1.91856027 Ry
     xc contribution           =      -7.34403514 Ry
     ewald contribution        =     -25.57530241 Ry

     convergence has been achieved in   5 iterations

     Forces acting on atoms (cartesian axes, Ry/au):

     atom    1 type  1   force =     0.00000000    0.00000000    0.00000000
     atom    2 type  1   force =     0.00000000    0.00000000   -0.00000000

     Total force =     0.000000     Total SCF correction =     0.000000


     Computing stress (Cartesian axis) and pressure

          total   stress  (Ry/bohr**3)                   (kbar)     P=     -129.45
  -0.00088002  -0.00000000  -0.00000000         -129.45       -0.00       -0.00
  -0.00000000  -0.00088002   0.00000000           -0.00     -129.45        0.00
  -0.00000000   0.00000000  -0.00088002           -0.00        0.00     -129.45


     BFGS Geometry Optimization
     Energy error            =      0.0E+00 Ry
     Gradient error          =      8.2E-33 Ry/Bohr
     Cell gradient error     =      1.3E+02 kbar

     number of scf cycles    =   1
     number of bfgs steps    =   0

     enthalpy           new  =     -23.0553221260 Ry

     new trust radius        =       0.0385261854 bohr
     new conv_thr            =       0.0000000100 Ry

     new unit-cell volume =     71.60001 a.u.^3 (    10.61003 Ang^3 )
     density =      3.75960 g/cm^3

CELL_PARAMETERS (alat=  6.74000000)
  -0.488991297   0.000000000   0.488991297
  -0.000000000   0.488991297   0.488991297
  -0.488991297   0.488991297   0.000000000

ATOMIC_POSITIONS (alat)
C             0.0000000000        0.0000000000        0.0000000000
C             0.2444956483        0.2444956483        0.2444956483



     Writing config-only to output data dir ./Diamond.save/
     NEW-OLD atomic charge density approx. for the potential
     extrapolated charge    7.44744, renormalised to    8.00000

     total cpu time spent up to now is        4.6 secs

     Self-consistent Calculation

     iteration #  1     ecut=    40.00 Ry     beta= 0.70
     CG style diagonalization
     ethr =  1.00E-06,  avg # of iterations =  5.7

     total cpu time spent up to now is        5.1 secs

     total energy              =     -23.04986538 Ry
     estimated scf accuracy    <       0.00247322 Ry

     iteration #  2     ecut=    40.00 Ry     beta= 0.70
     CG style diagonalization
     ethr =  3.09E-05,  avg # of iterations =  4.3

     total cpu time spent up to now is        5.4 secs

     total energy              =     -23.05472774 Ry
     estimated scf accuracy    <       0.00162628 Ry

     iteration #  3     ecut=    40.00 Ry     beta= 0.70
     CG style diagonalization
     ethr =  2.03E-05,  avg # of iterations =  3.3

     total cpu time spent up to now is        5.7 secs

     total energy              =     -23.05464287 Ry
     estimated scf accuracy    <       0.00033088 Ry

     iteration #  4     ecut=    40.00 Ry     beta= 0.70
     CG style diagonalization
     ethr =  4.14E-06,  avg # of iterations =  3.9

     total cpu time spent up to now is        6.0 secs

     total energy              =     -23.05469012 Ry
     estimated scf accuracy    <       0.00001788 Ry

     iteration #  5     ecut=    40.00 Ry     beta= 0.70
     CG style diagonalization
     ethr =  2.24E-07,  avg # of iterations =  3.6

     total cpu time spent up to now is        6.3 secs

     total energy              =     -23.05469258 Ry
     estimated scf accuracy    <       0.00000136 Ry

     iteration #  6     ecut=    40.00 Ry     beta= 0.70
     CG style diagonalization
     ethr =  1.70E-08,  avg # of iterations =  3.0

     total cpu time spent up to now is        6.6 secs

     total energy              =     -23.05469195 Ry
     estimated scf accuracy    <       0.00000137 Ry

     iteration #  7     ecut=    40.00 Ry     beta= 0.70
     CG style diagonalization
     ethr =  1.70E-08,  avg # of iterations =  3.0

     total cpu time spent up to now is        6.8 secs

     total energy              =     -23.05469198 Ry
     estimated scf accuracy    <       0.00000010 Ry

     iteration #  8     ecut=    40.00 Ry     beta= 0.70
     CG style diagonalization
     ethr =  1.31E-09,  avg # of iterations =  4.1

     total cpu time spent up to now is        7.1 secs

     total energy              =     -23.05469201 Ry
     estimated scf accuracy    <       0.00000001 Ry

     iteration #  9     ecut=    40.00 Ry     beta= 0.70
     CG style diagonalization
     ethr =  1.45E-10,  avg # of iterations =  3.1

     total cpu time spent up to now is        7.4 secs

     End of self-consistent calculation

          k = 0.0000 0.0000 0.0000 (   331 PWs)   bands (ev):

    -7.8947  14.3260  14.3260  14.3260

          k =-0.1704 0.1704-0.1704 (   320 PWs)   bands (ev):

    -7.0941  10.4159  13.2329  13.2329

          k =-0.3408 0.3408-0.3408 (   332 PWs)   bands (ev):

    -4.7340   4.5696  11.8639  11.8639

          k = 0.5113-0.5113 0.5113 (   332 PWs)   bands (ev):

    -1.6634   0.2098  11.3596  11.3596

          k = 0.0000 0.3408 0.0000 (   327 PWs)   bands (ev):

    -6.8281  11.5688  11.5688  12.1409

          k =-0.1704 0.5113-0.1704 (   326 PWs)   bands (ev):

    -4.9887   6.8363  10.2342  10.7988

          k = 0.6817-0.3408 0.6817 (   329 PWs)   bands (ev):

    -1.7989   1.7621   9.1351  10.1051

          k = 0.5113-0.1704 0.5113 (   329 PWs)   bands (ev):

    -2.9658   3.3537   8.3890  11.1812

          k = 0.3408-0.0000 0.3408 (   325 PWs)   bands (ev):

    -5.7733   8.4707   9.2180  12.8717

          k = 0.0000 0.6817 0.0000 (   323 PWs)   bands (ev):

    -3.6911   7.0921   8.6655   8.6655

          k = 0.8521-0.1704 0.8521 (   326 PWs)   bands (ev):

    -0.9637   3.9226   6.1634   8.3227

          k = 0.6817-0.0000 0.6817 (   323 PWs)   bands (ev):

    -0.0207   3.1070   4.3142   9.3382

          k = 0.0000-1.0225 0.0000 (   342 PWs)   bands (ev):

     1.2344   1.2344   7.6209   7.6209

          k = 0.6817-0.3408 1.0225 (   332 PWs)   bands (ev):

    -2.6967   5.4577   6.5686   9.2162

          k = 0.5113-0.1704 0.8521 (   324 PWs)   bands (ev):

     0.1660   2.0872   6.1578   7.9776

          k =-0.3408-1.0225 0.0000 (   330 PWs)   bands (ev):

     1.8728   1.8728   5.9684   5.9684

     highest occupied level (ev):    14.3260

!    total energy              =     -23.05469201 Ry
     estimated scf accuracy    <          3.9E-09 Ry

     The total energy is the sum of the following terms:
     one-electron contribution =       8.70098909 Ry
     hartree contribution      =       1.85330668 Ry
     xc contribution           =      -7.45790627 Ry
     ewald contribution        =     -26.15108151 Ry

     convergence has been achieved in   9 iterations

     Forces acting on atoms (cartesian axes, Ry/au):

     atom    1 type  1   force =     0.00000000    0.00000000    0.00000000
     atom    2 type  1   force =     0.00000000    0.00000000    0.00000000

     Total force =     0.000000     Total SCF correction =     0.000000


     Computing stress (Cartesian axis) and pressure

          total   stress  (Ry/bohr**3)                   (kbar)     P=      185.14
   0.00125857  -0.00000000   0.00000000          185.14       -0.00        0.00
  -0.00000000   0.00125857   0.00000000           -0.00      185.14        0.00
   0.00000000   0.00000000   0.00125857            0.00        0.00      185.14

     Energy error            =      6.8E-04 Ry
     Gradient error          =      0.0E+00 Ry/Bohr
     Cell gradient error     =      1.9E+02 kbar

     number of scf cycles    =   2
     number of bfgs steps    =   1

     enthalpy           old  =     -23.0553221260 Ry
     enthalpy           new  =     -23.0546433328 Ry

     CASE: enthalpy          _new > enthalpy          _old

     new trust radius        =       0.0165299890 bohr
     new conv_thr            =       0.0000000100 Ry

     new unit-cell volume =     74.37279 a.u.^3 (    11.02091 Ang^3 )
     density =      3.61944 g/cm^3

CELL_PARAMETERS (alat=  6.74000000)
  -0.495223749   0.000000000   0.495223749
  -0.000000000   0.495223749   0.495223749
  -0.495223749   0.495223749   0.000000000

ATOMIC_POSITIONS (alat)
C             0.0000000000        0.0000000000        0.0000000000
C             0.2476118744        0.2476118744        0.2476118744



     Writing config-only to output data dir ./Diamond.save/
     NEW-OLD atomic charge density approx. for the potential
     extrapolated charge    8.29826, renormalised to    8.00000

     total cpu time spent up to now is        7.8 secs

     Self-consistent Calculation

     iteration #  1     ecut=    40.00 Ry     beta= 0.70
     CG style diagonalization
     ethr =  1.00E-06,  avg # of iterations =  5.0

     total cpu time spent up to now is        8.2 secs

     total energy              =     -23.05494807 Ry
     estimated scf accuracy    <       0.00057811 Ry

     iteration #  2     ecut=    40.00 Ry     beta= 0.70
     CG style diagonalization
     ethr =  7.23E-06,  avg # of iterations =  4.6

     total cpu time spent up to now is        8.6 secs

     total energy              =     -23.05640339 Ry
     estimated scf accuracy    <       0.00050590 Ry

     iteration #  3     ecut=    40.00 Ry     beta= 0.70
     CG style diagonalization
     ethr =  6.32E-06,  avg # of iterations =  3.0

     total cpu time spent up to now is        8.8 secs

     total energy              =     -23.05634016 Ry
     estimated scf accuracy    <       0.00013493 Ry

     iteration #  4     ecut=    40.00 Ry     beta= 0.70
     CG style diagonalization
     ethr =  1.69E-06,  avg # of iterations =  4.0

     total cpu time spent up to now is        9.1 secs

     total energy              =     -23.05635986 Ry
     estimated scf accuracy    <       0.00000878 Ry

     iteration #  5     ecut=    40.00 Ry     beta= 0.70
     CG style diagonalization
     ethr =  1.10E-07,  avg # of iterations =  4.0

     total cpu time spent up to now is        9.5 secs

     total energy              =     -23.05636200 Ry
     estimated scf accuracy    <       0.00000023 Ry

     iteration #  6     ecut=    40.00 Ry     beta= 0.70
     CG style diagonalization
     ethr =  2.89E-09,  avg # of iterations =  3.9

     total cpu time spent up to now is        9.8 secs

     End of self-consistent calculation

          k = 0.0000 0.0000 0.0000 (   331 PWs)   bands (ev):

    -8.0798  13.6185  13.6185  13.6185

          k =-0.1683 0.1683-0.1683 (   320 PWs)   bands (ev):

    -7.2993   9.8192  12.5674  12.5674

          k =-0.3365 0.3365-0.3365 (   332 PWs)   bands (ev):

    -5.0020   4.1235  11.2425  11.2425

          k = 0.5048-0.5048 0.5048 (   332 PWs)   bands (ev):

    -2.0754  -0.0607  10.7531  10.7531

          k = 0.0000 0.3365 0.0000 (   327 PWs)   bands (ev):

    -7.0399  10.9690  10.9690  11.4440

          k =-0.1683 0.5048-0.1683 (   326 PWs)   bands (ev):

    -5.2483   6.3240   9.6773  10.1749

          k = 0.6731-0.3365 0.6731 (   329 PWs)   bands (ev):

    -2.1667   1.4052   8.5694   9.5482

          k = 0.5048-0.1683 0.5048 (   329 PWs)   bands (ev):

    -3.2861   2.9389   7.8546  10.5841

          k = 0.3365-0.0000 0.3365 (   325 PWs)   bands (ev):

    -6.0123   7.9000   8.6872  12.2129

          k = 0.0000 0.6731 0.0000 (   323 PWs)   bands (ev):

    -3.9839   6.4989   8.1618   8.1618

          k = 0.8414-0.1683 0.8414 (   326 PWs)   bands (ev):

    -1.3360   3.4129   5.7441   7.8287

          k = 0.6731 0.0000 0.6731 (   323 PWs)   bands (ev):

    -0.4464   2.6423   3.9580   8.8083

          k = 0.0000-1.0096 0.0000 (   342 PWs)   bands (ev):

     0.8062   0.8062   7.1502   7.1502

          k = 0.6731-0.3365 1.0096 (   332 PWs)   bands (ev):

    -3.0201   4.9291   6.1204   8.6872

          k = 0.5048-0.1683 0.8414 (   324 PWs)   bands (ev):

    -0.2837   1.7230   5.6755   7.5070

          k =-0.3365-1.0096-0.0000 (   330 PWs)   bands (ev):

     1.4041   1.4041   5.5648   5.5648

     highest occupied level (ev):    13.6185

!    total energy              =     -23.05636206 Ry
     estimated scf accuracy    <          5.4E-09 Ry

     The total energy is the sum of the following terms:
     one-electron contribution =       8.26812818 Ry
     hartree contribution      =       1.89011523 Ry
     xc contribution           =      -7.39263863 Ry
     ewald contribution        =     -25.82196684 Ry

     convergence has been achieved in   6 iterations

     Forces acting on atoms (cartesian axes, Ry/au):

     atom    1 type  1   force =     0.00000000    0.00000000   -0.00000000
     atom    2 type  1   force =    -0.00000000    0.00000000   -0.00000000

     Total force =     0.000000     Total SCF correction =     0.000000


     Computing stress (Cartesian axis) and pressure

          total   stress  (Ry/bohr**3)                   (kbar)     P=       -3.21
  -0.00002183   0.00000000  -0.00000000           -3.21        0.00       -0.00
  -0.00000000  -0.00002183  -0.00000000           -0.00       -3.21       -0.00
  -0.00000000  -0.00000000  -0.00002183           -0.00       -0.00       -3.21

     Energy error            =      9.9E-04 Ry
     Gradient error          =      1.5E-31 Ry/Bohr
     Cell gradient error     =      3.3E+00 kbar

     number of scf cycles    =   3
     number of bfgs steps    =   1

     enthalpy           old  =     -23.0553221260 Ry
     enthalpy           new  =     -23.0563114984 Ry

     CASE: enthalpy          _new < enthalpy          _old

     new trust radius        =       0.0004278550 bohr
     new conv_thr            =            1.0E-10 Ry

     new unit-cell volume =     74.31746 a.u.^3 (    11.01271 Ang^3 )
     density =      3.62213 g/cm^3

CELL_PARAMETERS (alat=  6.74000000)
  -0.495100903   0.000000000   0.495100903
  -0.000000000   0.495100903   0.495100903
  -0.495100903   0.495100903   0.000000000

ATOMIC_POSITIONS (alat)
C             0.0000000000        0.0000000000       -0.0000000000
C             0.2475504514        0.2475504514        0.2475504514



     Writing config-only to output data dir ./Diamond.save/
     NEW-OLD atomic charge density approx. for the potential
     extrapolated charge    7.99404, renormalised to    8.00000

     total cpu time spent up to now is       10.2 secs

     Self-consistent Calculation

     iteration #  1     ecut=    40.00 Ry     beta= 0.70
     CG style diagonalization
     ethr =  1.00E-06,  avg # of iterations =  2.0

     Threshold (ethr) on eigenvalues was too large:
     Diagonalizing with lowered threshold

     CG style diagonalization
     ethr =  2.82E-09,  avg # of iterations =  2.6

     total cpu time spent up to now is       10.6 secs

     total energy              =     -23.05636210 Ry
     estimated scf accuracy    <       0.00000024 Ry

     iteration #  2     ecut=    40.00 Ry     beta= 0.70
     CG style diagonalization
     ethr =  2.97E-09,  avg # of iterations =  4.5

     total cpu time spent up to now is       11.0 secs

     total energy              =     -23.05636268 Ry
     estimated scf accuracy    <       0.00000020 Ry

     iteration #  3     ecut=    40.00 Ry     beta= 0.70
     CG style diagonalization
     ethr =  2.50E-09,  avg # of iterations =  3.1

     total cpu time spent up to now is       11.3 secs

     total energy              =     -23.05636266 Ry
     estimated scf accuracy    <       0.00000005 Ry

     iteration #  4     ecut=    40.00 Ry     beta= 0.70
     CG style diagonalization
     ethr =  6.40E-10,  avg # of iterations =  4.0

     total cpu time spent up to now is       11.6 secs

     total energy              =     -23.05636266 Ry
     estimated scf accuracy    <          2.9E-09 Ry

     iteration #  5     ecut=    40.00 Ry     beta= 0.70
     CG style diagonalization
     ethr =  3.57E-11,  avg # of iterations =  3.6

     total cpu time spent up to now is       11.9 secs

     total energy              =     -23.05636266 Ry
     estimated scf accuracy    <          1.4E-10 Ry

     iteration #  6     ecut=    40.00 Ry     beta= 0.70
     CG style diagonalization
     ethr =  1.70E-12,  avg # of iterations =  4.1

     total cpu time spent up to now is       12.2 secs

     total energy              =     -23.05636266 Ry
     estimated scf accuracy    <          1.4E-10 Ry

     iteration #  7     ecut=    40.00 Ry     beta= 0.70
     CG style diagonalization
     ethr =  1.70E-12,  avg # of iterations =  3.8

     total cpu time spent up to now is       12.5 secs

     End of self-consistent calculation

          k = 0.0000 0.0000 0.0000 (   331 PWs)   bands (ev):

    -8.0761  13.6325  13.6325  13.6325

          k =-0.1683 0.1683-0.1683 (   320 PWs)   bands (ev):

    -7.2951   9.8310  12.5805  12.5805

          k =-0.3366 0.3366-0.3366 (   332 PWs)   bands (ev):

    -4.9967   4.1324  11.2548  11.2548

          k = 0.5049-0.5049 0.5049 (   332 PWs)   bands (ev):

    -2.0672  -0.0553  10.7651  10.7651

          k = 0.0000 0.3366 0.0000 (   327 PWs)   bands (ev):

    -7.0356  10.9808  10.9808  11.4577

          k =-0.1683 0.5049-0.1683 (   326 PWs)   bands (ev):

    -5.2431   6.3342   9.6883  10.1872

          k = 0.6733-0.3366 0.6733 (   329 PWs)   bands (ev):

    -2.1594   1.4123   8.5805   9.5592

          k = 0.5049-0.1683 0.5049 (   329 PWs)   bands (ev):

    -3.2797   2.9471   7.8651  10.5959

          k = 0.3366-0.0000 0.3366 (   325 PWs)   bands (ev):

    -6.0075   7.9113   8.6976  12.2260

          k = 0.0000 0.6733 0.0000 (   323 PWs)   bands (ev):

    -3.9781   6.5107   8.1718   8.1718

          k = 0.8416-0.1683 0.8416 (   326 PWs)   bands (ev):

    -1.3286   3.4230   5.7523   7.8385

          k = 0.6733 0.0000 0.6733 (   323 PWs)   bands (ev):

    -0.4379   2.6515   3.9650   8.8188

          k = 0.0000-1.0099 0.0000 (   342 PWs)   bands (ev):

     0.8147   0.8147   7.1595   7.1595

          k = 0.6733-0.3366 1.0099 (   332 PWs)   bands (ev):

    -3.0136   4.9395   6.1293   8.6977

          k = 0.5049-0.1683 0.8416 (   324 PWs)   bands (ev):

    -0.2748   1.7303   5.6850   7.5163

          k =-0.3366-1.0099-0.0000 (   330 PWs)   bands (ev):

     1.4134   1.4134   5.5728   5.5728

     highest occupied level (ev):    13.6325

!    total energy              =     -23.05636266 Ry
     estimated scf accuracy    <          3.8E-13 Ry

     The total energy is the sum of the following terms:
     one-electron contribution =       8.27655488 Ry
     hartree contribution      =       1.88934776 Ry
     xc contribution           =      -7.39389143 Ry
     ewald contribution        =     -25.82837387 Ry

     convergence has been achieved in   7 iterations

     Forces acting on atoms (cartesian axes, Ry/au):

     atom    1 type  1   force =     0.00000000   -0.00000000   -0.00000000
     atom    2 type  1   force =    -0.00000000    0.00000000    0.00000000

     Total force =     0.000000     Total SCF correction =     0.000000


     Computing stress (Cartesian axis) and pressure

          total   stress  (Ry/bohr**3)                   (kbar)     P=        0.12
   0.00000080  -0.00000000   0.00000000            0.12       -0.00        0.00
  -0.00000000   0.00000080   0.00000000           -0.00        0.12        0.00
   0.00000000  -0.00000000   0.00000080            0.00       -0.00        0.12

     Energy error            =      6.5E-07 Ry
     Gradient error          =      5.0E-32 Ry/Bohr
     Cell gradient error     =      1.8E-02 kbar

     bfgs converged in   4 scf cycles and   2 bfgs steps
     (criteria: energy <  1.0E-04 Ry, force <  1.0E-03Ry/Bohr, cell <  5.0E-01kbar)

     End of BFGS Geometry Optimization

     Final enthalpy           =     -23.0563121441 Ry

     File ./Diamond.bfgs deleted, as requested
Begin final coordinates
     new unit-cell volume =     74.31746 a.u.^3 (    11.01271 Ang^3 )
     density =      3.62213 g/cm^3

CELL_PARAMETERS (alat=  6.74000000)
  -0.495100903   0.000000000   0.495100903
  -0.000000000   0.495100903   0.495100903
  -0.495100903   0.495100903   0.000000000

ATOMIC_POSITIONS (alat)
C             0.0000000000        0.0000000000       -0.0000000000
C             0.2475504514        0.2475504514        0.2475504514
End final coordinates



     Writing config-only to output data dir ./Diamond.save/

     Final scf calculation at the relaxed structure.
     The G-vectors are recalculated for the final unit cell
     Results may differ from those at the preceding step.
 
     G-vector sticks info
     --------------------
     sticks:   dense  smooth     PW     G-vecs:    dense   smooth      PW
     Sum         253     253     85                 2637     2637     531
 
     Using Slab Decomposition
 


     bravais-lattice index     =            2
     lattice parameter (alat)  =       6.7400  a.u.
     unit-cell volume          =      74.3175 (a.u.)^3
     number of atoms/cell      =            2
     number of atomic types    =            1
     number of electrons       =         8.00
     number of Kohn-Sham states=            4
     kinetic-energy cutoff     =      40.0000  Ry
     charge density cutoff     =     160.0000  Ry
     scf convergence threshold =      1.0E-10
     mixing beta               =       0.7000
     number of iterations used =            8  plain     mixing
     press convergence thresh. =      5.0E-01
     Exchange-correlation= SLA  PZ   NOGX NOGC
                           (   1   1   0   0   0   0   0)

     celldm(1)=   6.740000  celldm(2)=   0.000000  celldm(3)=   0.000000
     celldm(4)=   0.000000  celldm(5)=   0.000000  celldm(6)=   0.000000

     crystal axes: (cart. coord. in units of alat)
               a(1) = (  -0.495101   0.000000   0.495101 )  
               a(2) = (  -0.000000   0.495101   0.495101 )  
               a(3) = (  -0.495101   0.495101   0.000000 )  

     reciprocal axes: (cart. coord. in units 2 pi/alat)
               b(1) = ( -1.009895 -1.009895  1.009895 )  
               b(2) = (  1.009895  1.009895  1.009895 )  
               b(3) = ( -1.009895  1.009895 -1.009895 )  


     PseudoPot. # 1 for C  read from file:
     ../../C_LDA.UPF
     MD5 check sum: 407c1fe918d93b14b177d5600f28733c
     Pseudo is Ultrasoft + core correction, Zval =  4.0
     Generated by new atomic code, or converted to UPF format
     Using radial grid of  721 points,  4 beta functions with: 
                l(1) =   0
                l(2) =   0
                l(3) =   1
                l(4) =   1
     Q(r) pseudized with  8 coefficients,  rinner =    1.100   1.100   1.100


     atomic species   valence    mass     pseudopotential
        C              4.00    12.01100     C ( 1.00)

     48 Sym. Ops., with inversion, found (24 have fractional translation)



   Cartesian axes

     site n.     atom                  positions (alat units)
         1           C   tau(   1) = (   0.0000000   0.0000000  -0.0000000  )
         2           C   tau(   2) = (   0.2475505   0.2475505   0.2475505  )

     number of k points=    16
                       cart. coord. in units 2pi/alat
        k(    1) = (   0.0000000   0.0000000   0.0000000), wk =   0.0092593
        k(    2) = (  -0.1683159   0.1683159  -0.1683159), wk =   0.0740741
        k(    3) = (  -0.3366317   0.3366317  -0.3366317), wk =   0.0740741
        k(    4) = (   0.5049476  -0.5049476   0.5049476), wk =   0.0370370
        k(    5) = (   0.0000000   0.3366317   0.0000000), wk =   0.0555556
        k(    6) = (  -0.1683159   0.5049476  -0.1683159), wk =   0.2222222
        k(    7) = (   0.6732634  -0.3366317   0.6732634), wk =   0.2222222
        k(    8) = (   0.5049476  -0.1683159   0.5049476), wk =   0.2222222
        k(    9) = (   0.3366317  -0.0000000   0.3366317), wk =   0.1111111
        k(   10) = (   0.0000000   0.6732634   0.0000000), wk =   0.0555556
        k(   11) = (   0.8415793  -0.1683159   0.8415793), wk =   0.2222222
        k(   12) = (   0.6732634   0.0000000   0.6732634), wk =   0.1111111
        k(   13) = (   0.0000000  -1.0098951   0.0000000), wk =   0.0277778
        k(   14) = (   0.6732634  -0.3366317   1.0098951), wk =   0.2222222
        k(   15) = (   0.5049476  -0.1683159   0.8415793), wk =   0.2222222
        k(   16) = (  -0.3366317  -1.0098951  -0.0000000), wk =   0.1111111

     Dense  grid:     2637 G-vectors     FFT dimensions: (  20,  20,  20)

     Estimated max dynamical RAM per process >       4.67 MB

     Initial potential from superposition of free atoms

     starting charge       7.9999, renormalised to       8.0000
     Starting wfcs are    8 randomized atomic wfcs

     total cpu time spent up to now is       13.5 secs

     Self-consistent Calculation

     iteration #  1     ecut=    40.00 Ry     beta= 0.70
     CG style diagonalization
     ethr =  1.00E-06,  avg # of iterations =  6.9

     total cpu time spent up to now is       14.0 secs

     total energy              =     -23.04395443 Ry
     estimated scf accuracy    <       0.13480802 Ry

     iteration #  2     ecut=    40.00 Ry     beta= 0.70
     CG style diagonalization
     ethr =  1.69E-03,  avg # of iterations =  3.2

     total cpu time spent up to now is       14.3 secs

     total energy              =     -23.05552780 Ry
     estimated scf accuracy    <       0.00197597 Ry

     iteration #  3     ecut=    40.00 Ry     beta= 0.70
     CG style diagonalization
     ethr =  2.47E-05,  avg # of iterations =  4.1

     total cpu time spent up to now is       14.6 secs

     total energy              =     -23.05624869 Ry
     estimated scf accuracy    <       0.00002874 Ry

     iteration #  4     ecut=    40.00 Ry     beta= 0.70
     CG style diagonalization
     ethr =  3.59E-07,  avg # of iterations =  4.4

     total cpu time spent up to now is       14.9 secs

     total energy              =     -23.05627764 Ry
     estimated scf accuracy    <       0.00000170 Ry

     iteration #  5     ecut=    40.00 Ry     beta= 0.70
     CG style diagonalization
     ethr =  2.13E-08,  avg # of iterations =  3.7

     total cpu time spent up to now is       15.2 secs

     total energy              =     -23.05627821 Ry
     estimated scf accuracy    <          6.6E-09 Ry

     iteration #  6     ecut=    40.00 Ry     beta= 0.70
     CG style diagonalization
     ethr =  8.24E-11,  avg # of iterations =  5.0

     total cpu time spent up to now is       15.6 secs

     total energy              =     -23.05627823 Ry
     estimated scf accuracy    <          1.1E-09 Ry

     iteration #  7     ecut=    40.00 Ry     beta= 0.70
     CG style diagonalization
     ethr =  1.32E-11,  avg # of iterations =  3.5

     total cpu time spent up to now is       15.9 secs

     End of self-consistent calculation

          k = 0.0000 0.0000 0.0000 (   331 PWs)   bands (ev):

    -8.0762  13.6325  13.6325  13.6325

          k =-0.1683 0.1683-0.1683 (   320 PWs)   bands (ev):

    -7.2952   9.8310  12.5805  12.5805

          k =-0.3366 0.3366-0.3366 (   308 PWs)   bands (ev):

    -4.9967   4.1327  11.2556  11.2556

          k = 0.5049-0.5049 0.5049 (   332 PWs)   bands (ev):

    -2.0673  -0.0553  10.7651  10.7651

          k = 0.0000 0.3366 0.0000 (   315 PWs)   bands (ev):

    -7.0356  10.9814  10.9814  11.4580

          k =-0.1683 0.5049-0.1683 (   322 PWs)   bands (ev):

    -5.2431   6.3341   9.6883  10.1872

          k = 0.6733-0.3366 0.6733 (   321 PWs)   bands (ev):

    -2.1594   1.4125   8.5807   9.5592

          k = 0.5049-0.1683 0.5049 (   314 PWs)   bands (ev):

    -3.2796   2.9473   7.8653  10.5963

          k = 0.3366-0.0000 0.3366 (   317 PWs)   bands (ev):

    -6.0075   7.9115   8.6978  12.2260

          k = 0.0000 0.6733 0.0000 (   323 PWs)   bands (ev):

    -3.9781   6.5106   8.1718   8.1718

          k = 0.8416-0.1683 0.8416 (   318 PWs)   bands (ev):

    -1.3286   3.4232   5.7526   7.8385

          k = 0.6733 0.0000 0.6733 (   323 PWs)   bands (ev):

    -0.4379   2.6515   3.9650   8.8188

          k = 0.0000-1.0099 0.0000 (   326 PWs)   bands (ev):

     0.8149   0.8149   7.1598   7.1598

          k = 0.6733-0.3366 1.0099 (   318 PWs)   bands (ev):

    -3.0136   4.9396   6.1296   8.6980

          k = 0.5049-0.1683 0.8416 (   318 PWs)   bands (ev):

    -0.2748   1.7303   5.6852   7.5163

          k =-0.3366-1.0099-0.0000 (   320 PWs)   bands (ev):

     1.4135   1.4135   5.5730   5.5730

     highest occupied level (ev):    13.6325

!    total energy              =     -23.05627823 Ry
     estimated scf accuracy    <          3.9E-11 Ry

     The total energy is the sum of the following terms:
     one-electron contribution =       8.27666226 Ry
     hartree contribution      =       1.88930853 Ry
     xc contribution           =      -7.39387514 Ry
     ewald contribution        =     -25.82837388 Ry

     convergence has been achieved in   7 iterations

     Forces acting on atoms (cartesian axes, Ry/au):

     atom    1 type  1   force =     0.00000000    0.00000000    0.00000000
     atom    2 type  1   force =    -0.00000000   -0.00000000   -0.00000000

     Total force =     0.000000     Total SCF correction =     0.000000


     Computing stress (Cartesian axis) and pressure

          total   stress  (Ry/bohr**3)                   (kbar)     P=        0.05
   0.00000035   0.00000000  -0.00000000            0.05        0.00       -0.00
   0.00000000   0.00000035   0.00000000            0.00        0.05        0.00
  -0.00000000   0.00000000   0.00000035           -0.00        0.00        0.05


     Writing all to output data dir ./Diamond.save/
 
     init_run     :      1.33s CPU      1.98s WALL (       2 calls)
     electrons    :      8.97s CPU     10.93s WALL (       5 calls)
     update_pot   :      0.26s CPU      0.27s WALL (       3 calls)
     forces       :      0.36s CPU      0.47s WALL (       5 calls)
     stress       :      0.80s CPU      0.84s WALL (       5 calls)

     Called by init_run:
     wfcinit      :      0.21s CPU      0.42s WALL (       2 calls)
     potinit      :      0.04s CPU      0.12s WALL (       2 calls)
     hinit0       :      1.06s CPU      1.23s WALL (       2 calls)

     Called by electrons:
     c_bands      :      7.62s CPU      9.32s WALL (      35 calls)
     sum_band     :      1.10s CPU      1.18s WALL (      35 calls)
     v_of_rho     :      0.08s CPU      0.13s WALL (      39 calls)
     newd         :      0.13s CPU      0.15s WALL (      39 calls)
     mix_rho      :      0.03s CPU      0.03s WALL (      35 calls)

     Called by c_bands:
     init_us_2    :      0.26s CPU      0.32s WALL (    1312 calls)
     init_us_2:cp :      0.24s CPU      0.30s WALL (    1312 calls)
     ccgdiagg     :      5.87s CPU      6.59s WALL (     560 calls)
     wfcrot       :      1.63s CPU      1.91s WALL (     496 calls)

     Called by *cgdiagg:
     h_psi        :      6.17s CPU      6.86s WALL (    7308 calls)
     s_psi        :      0.27s CPU      0.34s WALL (   14120 calls)

     Called by h_psi:
     h_psi:calbec :      0.27s CPU      0.34s WALL (    7308 calls)
     vloc_psi     :      5.46s CPU      6.03s WALL (    7308 calls)
     add_vuspsi   :      0.15s CPU      0.18s WALL (    7308 calls)
     hs_1psi      :      5.17s CPU      5.76s WALL (    6812 calls)
     s_1psi       :      0.46s CPU      0.52s WALL (    6812 calls)

     General routines
     calbec       :      0.34s CPU      0.42s WALL (   15080 calls)
     fft          :      0.07s CPU      0.11s WALL (     200 calls)
     ffts         :      0.01s CPU      0.01s WALL (      35 calls)
     fftw         :      5.59s CPU      6.14s WALL (   20088 calls)
 
     Parallel routines
 
     PWSCF        :     12.23s CPU     16.47s WALL

 
   This run was terminated on:  17:58:54  14Mar2022            

=------------------------------------------------------------------------------=
   JOB DONE.
=------------------------------------------------------------------------------=
