
     Program PWSCF v.6.4.1 starts on 16Apr2022 at 13:19:49 

     This program is part of the open-source Quantum ESPRESSO suite
     for quantum simulation of materials; please cite
         "P. Giannozzi et al., J. Phys.:Condens. Matter 21 395502 (2009);
         "P. Giannozzi et al., J. Phys.:Condens. Matter 29 465901 (2017);
          URL http://www.quantum-espresso.org", 
     in publications or presentations arising from this work. More details at
     http://www.quantum-espresso.org/quote

     Parallel version (MPI & OpenMP), running on       1 processor cores
     Number of MPI processes:                 1
     Threads/MPI process:                     1

     MPI processes distributed on     1 nodes
     Waiting for input...
     Reading input from standard input

     Current dimensions of program PWSCF are:
     Max number of different atomic species (ntypx) = 10
     Max number of k-points (npk) =  40000
     Max angular momentum in pseudopotentials (lmaxx) =  3

     Subspace diagonalization in iterative solution of the eigenvalue problem:
     a serial algorithm will be used

 
     G-vector sticks info
     --------------------
     sticks:   dense  smooth     PW     G-vecs:    dense   smooth      PW
     Sum        1045     349    121                22419     4285     869
 


     bravais-lattice index     =            5
     lattice parameter (alat)  =       5.0500  a.u.
     unit-cell volume          =      91.0666 (a.u.)^3
     number of atoms/cell      =           10
     number of atomic types    =            3
     number of electrons       =        64.00
     number of Kohn-Sham states=           32
     kinetic-energy cutoff     =      50.0000  Ry
     charge density cutoff     =     600.0000  Ry
     convergence threshold     =      1.0E-08
     mixing beta               =       0.7000
     number of iterations used =            8  plain     mixing
     Exchange-correlation      = SLA  PW   PBE  PBE ( 1  4  3  4 0 0)
     nstep                     =           50


     celldm(1)=   5.050000  celldm(2)=   0.000000  celldm(3)=   0.000000
     celldm(4)=   0.500000  celldm(5)=   0.000000  celldm(6)=   0.000000

     crystal axes: (cart. coord. in units of alat)
               a(1) = (   0.500000  -0.288675   0.816497 )  
               a(2) = (   0.000000   0.577350   0.816497 )  
               a(3) = (  -0.500000  -0.288675   0.816497 )  

     reciprocal axes: (cart. coord. in units 2 pi/alat)
               b(1) = (  1.000000 -0.577350  0.408248 )  
               b(2) = (  0.000000  1.154701  0.408248 )  
               b(3) = ( -1.000000 -0.577350  0.408248 )  


     PseudoPot. # 1 for Ca read from file:
     ./Ca_PBE.UPF
     MD5 check sum: 403a4c14b9e4d4dfdc3024c9a3812218
     Pseudo is Ultrasoft + core correction, Zval = 10.0
     Generated by new atomic code, or converted to UPF format
     Using radial grid of  845 points,  6 beta functions with: 
                l(1) =   0
                l(2) =   0
                l(3) =   1
                l(4) =   1
                l(5) =   2
                l(6) =   2
     Q(r) pseudized with  8 coefficients,  rinner =    1.500   1.500   1.500
                                                       1.500   1.500

     PseudoPot. # 2 for C  read from file:
     ./C_PBE.UPF
     MD5 check sum: d1aef80898a10debaa0f26306b886e00
     Pseudo is Ultrasoft + core correction, Zval =  4.0
     Generated by new atomic code, or converted to UPF format
     Using radial grid of  721 points,  4 beta functions with: 
                l(1) =   0
                l(2) =   0
                l(3) =   1
                l(4) =   1
     Q(r) pseudized with  8 coefficients,  rinner =    1.100   1.100   1.100


     PseudoPot. # 3 for O  read from file:
     ./O_PBE.UPF
     MD5 check sum: 734c27235a0248c51dbae37a1fbe46ec
     Pseudo is Ultrasoft + core correction, Zval =  6.0
     Generated by new atomic code, or converted to UPF format
     Using radial grid of  737 points,  5 beta functions with: 
                l(1) =   0
                l(2) =   0
                l(3) =   1
                l(4) =   1
                l(5) =   2
     Q(r) pseudized with  8 coefficients,  rinner =    0.900   0.900   0.900
                                                       0.900   0.900

     atomic species   valence    mass     pseudopotential
        Ca            10.00    40.07800     Ca( 1.00)
        C              4.00    12.01070     C ( 1.00)
        O              6.00    16.00000     O ( 1.00)

     12 Sym. Ops., with inversion, found ( 6 have fractional translation)



   Cartesian axes

     site n.     atom                  positions (alat units)
         1           Ca  tau(   1) = (   0.0000000  -0.0000000   1.2247449  )
         2           Ca  tau(   2) = (   0.0000000   0.0000000   0.0000000  )
         3           C   tau(   3) = (   0.0000000  -0.0000000   0.6123724  )
         4           C   tau(   4) = (  -0.0000000  -0.0000000   1.8371173  )
         5           O   tau(   5) = (   0.1293055   0.3533865   1.4288690  )
         6           O   tau(   6) = (   0.2413889  -0.2886751   1.4288690  )
         7           O   tau(   7) = (  -0.3706945  -0.0647114   1.4288690  )
         8           O   tau(   8) = (  -0.2413889   0.2886751   1.0206207  )
         9           O   tau(   9) = (   0.3706945   0.0647114   1.0206207  )
        10           O   tau(  10) = (  -0.1293055  -0.3533865   1.0206207  )

     number of k points=    13
                       cart. coord. in units 2pi/alat
        k(    1) = (   0.0000000   0.0000000   0.0000000), wk =   0.0312500
        k(    2) = (  -0.2500000  -0.1443376   0.1020621), wk =   0.1875000
        k(    3) = (   0.5000000   0.2886751  -0.2041241), wk =   0.0937500
        k(    4) = (  -0.2500000   0.1443376   0.2041241), wk =   0.1875000
        k(    5) = (   0.5000000   0.5773503  -0.1020621), wk =   0.3750000
        k(    6) = (   0.2500000   0.4330127   0.0000000), wk =   0.1875000
        k(    7) = (   0.5000000  -0.2886751  -0.4082483), wk =   0.0937500
        k(    8) = (   0.0000000   0.0000000   0.3061862), wk =   0.0625000
        k(    9) = (   0.7500000   0.4330127   0.0000000), wk =   0.1875000
        k(   10) = (   0.5000000   0.2886751   0.1020621), wk =   0.1875000
        k(   11) = (   0.7500000  -0.4330127  -0.3061862), wk =   0.1875000
        k(   12) = (   0.5000000  -0.5773503  -0.2041241), wk =   0.1875000
        k(   13) = (   0.0000000   0.0000000  -0.6123724), wk =   0.0312500

     Dense  grid:    22419 G-vectors     FFT dimensions: (  40,  40,  40)

     Smooth grid:     4285 G-vectors     FFT dimensions: (  24,  24,  24)

     Estimated max dynamical RAM per process >     102.64 MB

     Check: negative core charge=   -0.000002

     Initial potential from superposition of free atoms

     starting charge   63.98899, renormalised to   64.00000
     Starting wfcs are   52 randomized atomic wfcs

     total cpu time spent up to now is        9.4 secs

     Self-consistent Calculation

     iteration #  1     ecut=    50.00 Ry     beta= 0.70
     CG style diagonalization
     ethr =  1.00E-02,  avg # of iterations =  3.3

     total cpu time spent up to now is       14.1 secs

     total energy              =    -302.43752425 Ry
     Harris-Foulkes estimate   =    -308.75267983 Ry
     estimated scf accuracy    <       8.67098836 Ry

     iteration #  2     ecut=    50.00 Ry     beta= 0.70
     CG style diagonalization
     ethr =  1.00E-02,  avg # of iterations =  4.2

     total cpu time spent up to now is       19.2 secs

     total energy              =    -304.18435913 Ry
     Harris-Foulkes estimate   =    -305.33178781 Ry
     estimated scf accuracy    <       1.67470233 Ry

     iteration #  3     ecut=    50.00 Ry     beta= 0.70
     CG style diagonalization
     ethr =  2.62E-03,  avg # of iterations =  4.1

     total cpu time spent up to now is       24.1 secs

     total energy              =    -304.82962757 Ry
     Harris-Foulkes estimate   =    -304.92099895 Ry
     estimated scf accuracy    <       0.16325662 Ry

     iteration #  4     ecut=    50.00 Ry     beta= 0.70
     CG style diagonalization
     ethr =  2.55E-04,  avg # of iterations =  4.2

     total cpu time spent up to now is       29.1 secs

     total energy              =    -304.95756183 Ry
     Harris-Foulkes estimate   =    -304.95812113 Ry
     estimated scf accuracy    <       0.00142564 Ry

     iteration #  5     ecut=    50.00 Ry     beta= 0.70
     CG style diagonalization
     ethr =  2.23E-06,  avg # of iterations =  4.7

     total cpu time spent up to now is       35.2 secs

     total energy              =    -304.96031332 Ry
     Harris-Foulkes estimate   =    -304.96041019 Ry
     estimated scf accuracy    <       0.00018448 Ry

     iteration #  6     ecut=    50.00 Ry     beta= 0.70
     CG style diagonalization
     ethr =  2.88E-07,  avg # of iterations =  4.2

     total cpu time spent up to now is       40.4 secs

     total energy              =    -304.96038818 Ry
     Harris-Foulkes estimate   =    -304.96039541 Ry
     estimated scf accuracy    <       0.00001139 Ry

     iteration #  7     ecut=    50.00 Ry     beta= 0.70
     CG style diagonalization
     ethr =  1.78E-08,  avg # of iterations =  4.4

     total cpu time spent up to now is       45.6 secs

     total energy              =    -304.96039569 Ry
     Harris-Foulkes estimate   =    -304.96039615 Ry
     estimated scf accuracy    <       0.00000100 Ry

     iteration #  8     ecut=    50.00 Ry     beta= 0.70
     CG style diagonalization
     ethr =  1.56E-09,  avg # of iterations =  4.2

     total cpu time spent up to now is       50.7 secs

     total energy              =    -304.96039616 Ry
     Harris-Foulkes estimate   =    -304.96039617 Ry
     estimated scf accuracy    <       0.00000002 Ry

     iteration #  9     ecut=    50.00 Ry     beta= 0.70
     CG style diagonalization
     ethr =  2.99E-11,  avg # of iterations =  5.2

     total cpu time spent up to now is       56.9 secs

     End of self-consistent calculation

          k = 0.0000 0.0000 0.0000 (   537 PWs)   bands (ev):

     5.8800  25.1470  26.1776  26.1776  26.2016  26.2016  31.3402  31.7307
    31.7307  31.8613  34.6414  38.0338  38.3711  40.6713  40.6713  52.6617
    52.6617  58.3515  58.3515  60.3699  61.6432  61.6432  72.3595  72.3595
    80.6549  80.6549  82.3804  82.8665  84.0672  84.6991  85.5556  85.5556

          k =-0.2500-0.1443 0.1021 (   543 PWs)   bands (ev):

     7.2128  18.0081  23.9907  25.7958  26.1865  28.8196  29.4592  32.0263
    32.9368  33.9817  36.9464  40.2195  40.8315  45.0912  46.7571  49.1268
    49.6565  53.7627  59.0947  59.8192  62.0812  64.3960  67.2057  70.5500
    77.0118  77.5574  80.0067  80.1030  83.5929  83.7588  85.8068  87.2747

          k = 0.5000 0.2887-0.2041 (   544 PWs)   bands (ev):

    11.2594  11.2594  24.2068  24.2068  27.1250  27.1250  29.7426  29.7426
    35.8091  35.8091  41.9247  41.9247  44.7083  44.7083  46.2631  46.2631
    55.3283  55.3283  58.2395  58.2395  61.1703  61.1703  68.2645  68.2645
    71.7982  71.7982  76.3198  76.3198  81.0983  81.0983  87.0929  87.0929

          k =-0.2500 0.1443 0.2041 (   560 PWs)   bands (ev):

     7.6480  20.7681  21.5464  22.2276  23.0067  26.2935  32.8069  35.1243
    35.9839  37.0970  38.6817  39.9364  40.9340  42.4165  46.7881  48.3423
    52.0676  52.4347  56.3892  60.9443  61.7183  64.3114  64.4958  70.3736
    74.7114  76.1033  78.8759  82.7282  82.9721  84.6782  85.3968  86.5167

          k = 0.5000 0.5774-0.1021 (   542 PWs)   bands (ev):

    10.6436  14.1714  19.2196  21.8201  23.7858  29.2993  32.5430  34.7290
    36.3266  37.0260  40.9548  42.9411  43.4492  45.8236  47.4367  49.3414
    51.4686  54.1565  56.2410  58.0853  59.9247  61.2879  66.1370  68.7044
    70.6743  71.8260  74.9808  76.6935  81.8518  82.8192  84.2937  86.6720

          k = 0.2500 0.4330 0.0000 (   548 PWs)   bands (ev):

     9.3796  15.4540  18.6572  24.3032  25.6677  29.6670  32.0884  32.7720
    34.5585  37.0493  38.0797  41.1546  44.0776  44.9195  46.8497  49.2106
    52.1011  56.1549  56.2155  58.7416  61.6241  63.9869  64.4044  69.4399
    72.9395  72.9770  75.4039  75.5262  80.9829  83.2275  84.9628  85.9625

          k = 0.5000-0.2887-0.4082 (   524 PWs)   bands (ev):

    11.2455  16.1540  18.8470  19.6628  20.3074  25.9401  36.5386  37.0170
    39.9184  41.0544  41.3515  43.7007  45.4094  46.2241  46.9417  48.1876
    49.3590  51.2397  51.5656  55.8032  57.7717  63.0911  66.2730  67.8981
    69.6348  73.5941  76.1596  79.7895  80.3928  84.9683  86.2213  86.5871

          k = 0.0000 0.0000 0.3062 (   543 PWs)   bands (ev):

     7.3020  18.5203  24.0058  24.0058  26.9939  26.9939  29.8125  32.9311
    32.9311  32.9822  36.4602  42.7074  44.8265  45.9638  45.9638  48.9964
    48.9964  54.6674  57.7444  57.7444  61.7896  61.7896  68.7424  68.7424
    76.2733  78.0640  79.3640  79.3640  82.7728  82.7728  85.4295  86.8337

          k = 0.7500 0.4330 0.0000 (   548 PWs)   bands (ev):

     9.5715  15.4096  19.0596  22.6038  26.1257  29.4646  31.3882  32.5407
    34.5679  36.1532  39.5153  42.5777  45.0853  47.1569  47.9991  50.5542
    53.7831  53.8625  54.7939  58.1538  60.1470  60.2571  61.6296  68.0425
    73.7334  76.3392  77.3741  77.7471  79.6142  82.5867  84.0883  85.1040

          k = 0.5000 0.2887 0.1021 (   542 PWs)   bands (ev):

    10.5419  14.5257  19.6733  20.2833  24.2076  30.3548  32.0376  35.6030
    35.9748  37.5895  39.2555  43.4684  43.7564  45.2917  46.0575  50.7709
    50.8114  54.8606  55.6940  59.6135  59.8858  62.0803  65.3607  67.3420
    69.4018  74.1175  74.3322  78.8690  79.6886  81.3186  86.0046  87.4245

          k = 0.7500-0.4330-0.3062 (   542 PWs)   bands (ev):

    10.7933  14.6773  19.0039  20.2861  24.2498  28.9509  32.5198  33.9882
    34.9486  39.6549  42.4172  42.5404  44.9218  47.8470  48.7920  49.6877
    49.7120  53.9941  55.6301  57.7659  58.0321  59.5793  64.0091  66.8948
    72.1324  73.9699  76.1190  76.4747  80.4836  82.9397  84.6204  84.8332

          k = 0.5000-0.5774-0.2041 (   524 PWs)   bands (ev):

    13.3536  13.3536  17.4204  17.4204  28.6511  28.6511  32.0427  32.0427
    38.6424  38.6424  43.1814  43.1814  44.8034  44.8034  48.1241  48.1241
    54.8945  54.8945  56.3262  56.3262  58.5344  58.5344  66.1457  66.1457
    70.5679  70.5679  75.0672  75.0672  80.9672  80.9672  86.0764  86.0764

          k = 0.0000 0.0000-0.6124 (   544 PWs)   bands (ev):

    11.5721  11.5721  24.4037  24.4037  24.4037  24.4037  30.1041  30.1041
    40.2434  40.2434  40.2434  40.2434  43.7853  43.7853  50.7893  50.7893
    54.9102  54.9102  54.9102  54.9102  63.0995  63.0995  63.0995  63.0995
    71.0968  71.0968  78.4432  78.4432  78.4432  78.4432  87.0669  87.0669

     highest occupied level (ev):    87.4245

!    total energy              =    -304.96039618 Ry
     Harris-Foulkes estimate   =    -304.96039619 Ry
     estimated scf accuracy    <          1.4E-09 Ry

     The total energy is the sum of the following terms:

     one-electron contribution =     333.15696323 Ry
     hartree contribution      =      18.89724132 Ry
     xc contribution           =    -103.69950654 Ry
     ewald contribution        =    -553.31509420 Ry

     convergence has been achieved in   9 iterations

     Forces acting on atoms (cartesian axes, Ry/au):

     atom    1 type  1   force =     0.00000000    0.00000000    0.00000000
     atom    2 type  1   force =     0.00000000    0.00000000    0.00000000
     atom    3 type  2   force =    -0.00000000   -0.00000000    0.00000000
     atom    4 type  2   force =     0.00000000   -0.00000000    0.00000000
     atom    5 type  3   force =     4.55201480   -7.88432091   -0.00000000
     atom    6 type  3   force =    -9.10402960    0.00000000   -0.00000000
     atom    7 type  3   force =     4.55201480    7.88432091    0.00000000
     atom    8 type  3   force =     9.10402960    0.00000000   -0.00000000
     atom    9 type  3   force =    -4.55201480   -7.88432091   -0.00000000
     atom   10 type  3   force =    -4.55201480    7.88432091    0.00000000

     Total force =    22.300227     Total SCF correction =     0.000077


     Computing stress (Cartesian axis) and pressure

          total   stress  (Ry/bohr**3)                   (kbar)     P=********
   1.18363254  -0.00000000   0.00000000     174118.33     -0.00      0.00
  -0.00000000   1.18363254   0.00000000         -0.00 174118.33      0.00
  -0.00000000   0.00000000   0.60326412         -0.00      0.00  88743.20


     BFGS Geometry Optimization

     number of scf cycles    =   1
     number of bfgs steps    =   0

     enthalpy new            =    -304.9603342784 Ry

     new trust radius        =       0.5000000000 bohr
     new conv_thr            =       0.0000000100 Ry

     new unit-cell volume =    164.39576 a.u.^3 (    24.36094 Ang^3 )
     density =     13.64489 g/cm^3

CELL_PARAMETERS (alat=  5.05000000)
   0.630987680  -0.364300907   0.925516329
  -0.000000000   0.728601814   0.925516329
  -0.630987680  -0.364300907   0.925516329

ATOMIC_POSITIONS (crystal)
Ca       0.500000000   0.500000000   0.500000000
Ca       0.000000000   0.000000000   0.000000000
C        0.250000000   0.250000000   0.250000000
C        0.750000000   0.750000000   0.750000000
O        0.524571553   0.975428447   0.250000000
O        0.975428447   0.250000000   0.524571553
O        0.250000000   0.524571553   0.975428447
O        0.024571553   0.750000000   0.475428447
O        0.750000000   0.475428447   0.024571553
O        0.475428447   0.024571553   0.750000000



     Writing output data file CCO.save/
     NEW-OLD atomic charge density approx. for the potential

     Check: negative core charge=   -0.000002
     extrapolated charge   92.54246, renormalised to   64.00000

     total cpu time spent up to now is       64.6 secs

     Self-consistent Calculation

     iteration #  1     ecut=    50.00 Ry     beta= 0.70
     CG style diagonalization
     c_bands:  2 eigenvalues not converged
     c_bands:  5 eigenvalues not converged
     c_bands:  1 eigenvalues not converged
     ethr =  1.00E-06,  avg # of iterations = 22.5

     total cpu time spent up to now is       90.4 secs

     total energy              =    -343.72687571 Ry
     Harris-Foulkes estimate   =    -376.13811710 Ry
     estimated scf accuracy    <       1.47379730 Ry

     iteration #  2     ecut=    50.00 Ry     beta= 0.70
     CG style diagonalization
     ethr =  2.30E-03,  avg # of iterations =  5.5

     total cpu time spent up to now is       97.0 secs

     total energy              =    -346.63734905 Ry
     Harris-Foulkes estimate   =    -347.81280491 Ry
     estimated scf accuracy    <       3.27647354 Ry

     iteration #  3     ecut=    50.00 Ry     beta= 0.70
     CG style diagonalization
     ethr =  2.30E-03,  avg # of iterations =  3.7

     total cpu time spent up to now is      101.6 secs

     total energy              =    -346.43596814 Ry
     Harris-Foulkes estimate   =    -346.85174672 Ry
     estimated scf accuracy    <       0.80650667 Ry

     iteration #  4     ecut=    50.00 Ry     beta= 0.70
     CG style diagonalization
     ethr =  1.26E-03,  avg # of iterations =  3.3

     total cpu time spent up to now is      105.8 secs

     total energy              =    -346.48123920 Ry
     Harris-Foulkes estimate   =    -346.52182952 Ry
     estimated scf accuracy    <       0.07810726 Ry

     iteration #  5     ecut=    50.00 Ry     beta= 0.70
     CG style diagonalization
     ethr =  1.22E-04,  avg # of iterations =  4.5

     total cpu time spent up to now is      111.2 secs

     total energy              =    -346.52705694 Ry
     Harris-Foulkes estimate   =    -346.52999424 Ry
     estimated scf accuracy    <       0.00677308 Ry

     iteration #  6     ecut=    50.00 Ry     beta= 0.70
     CG style diagonalization
     ethr =  1.06E-05,  avg # of iterations =  4.3

     total cpu time spent up to now is      116.4 secs

     total energy              =    -346.53052715 Ry
     Harris-Foulkes estimate   =    -346.53100909 Ry
     estimated scf accuracy    <       0.00088843 Ry

     iteration #  7     ecut=    50.00 Ry     beta= 0.70
     CG style diagonalization
     ethr =  1.39E-06,  avg # of iterations =  4.6

     total cpu time spent up to now is      121.8 secs

     total energy              =    -346.53065717 Ry
     Harris-Foulkes estimate   =    -346.53131272 Ry
     estimated scf accuracy    <       0.00111946 Ry

     iteration #  8     ecut=    50.00 Ry     beta= 0.70
     CG style diagonalization
     ethr =  1.39E-06,  avg # of iterations =  4.0

     total cpu time spent up to now is      126.7 secs

     total energy              =    -346.53088372 Ry
     Harris-Foulkes estimate   =    -346.53090310 Ry
     estimated scf accuracy    <       0.00003458 Ry

     iteration #  9     ecut=    50.00 Ry     beta= 0.70
     CG style diagonalization
     c_bands:  1 eigenvalues not converged
     c_bands:  1 eigenvalues not converged
     ethr =  5.40E-08,  avg # of iterations =  4.6

     total cpu time spent up to now is      132.3 secs

     total energy              =    -346.56935876 Ry
     Harris-Foulkes estimate   =    -346.56936746 Ry
     estimated scf accuracy    <       0.00023755 Ry

     iteration # 10     ecut=    50.00 Ry     beta= 0.70
     CG style diagonalization
     ethr =  5.40E-08,  avg # of iterations =  3.0

     total cpu time spent up to now is      136.0 secs

     total energy              =    -346.56938767 Ry
     Harris-Foulkes estimate   =    -346.56936013 Ry
     estimated scf accuracy    <       0.00021355 Ry

     iteration # 11     ecut=    50.00 Ry     beta= 0.70
     CG style diagonalization
     ethr =  5.40E-08,  avg # of iterations =  3.0

     total cpu time spent up to now is      139.7 secs

     total energy              =    -346.56928393 Ry
     Harris-Foulkes estimate   =    -346.56938892 Ry
     estimated scf accuracy    <       0.00028943 Ry

     iteration # 12     ecut=    50.00 Ry     beta= 0.70
     CG style diagonalization
     ethr =  5.40E-08,  avg # of iterations =  4.3

     total cpu time spent up to now is      144.9 secs

     total energy              =    -346.56929697 Ry
     Harris-Foulkes estimate   =    -346.56930361 Ry
     estimated scf accuracy    <       0.00003999 Ry

     iteration # 13     ecut=    50.00 Ry     beta= 0.70
     CG style diagonalization
     ethr =  5.40E-08,  avg # of iterations =  3.0

     total cpu time spent up to now is      148.6 secs

     total energy              =    -346.56928174 Ry
     Harris-Foulkes estimate   =    -346.56929826 Ry
     estimated scf accuracy    <       0.00002447 Ry

     iteration # 14     ecut=    50.00 Ry     beta= 0.70
     CG style diagonalization
     ethr =  3.82E-08,  avg # of iterations =  4.7

     total cpu time spent up to now is      154.3 secs

     total energy              =    -346.56929701 Ry
     Harris-Foulkes estimate   =    -346.56930245 Ry
     estimated scf accuracy    <       0.00002601 Ry

     iteration # 15     ecut=    50.00 Ry     beta= 0.70
     CG style diagonalization
     ethr =  3.82E-08,  avg # of iterations =  3.0

     total cpu time spent up to now is      158.1 secs

     total energy              =    -346.56929592 Ry
     Harris-Foulkes estimate   =    -346.56929809 Ry
     estimated scf accuracy    <       0.00001378 Ry

     iteration # 16     ecut=    50.00 Ry     beta= 0.70
     CG style diagonalization
     ethr =  2.15E-08,  avg # of iterations =  3.0

     total cpu time spent up to now is      162.0 secs

     total energy              =    -346.56929454 Ry
     Harris-Foulkes estimate   =    -346.56929652 Ry
     estimated scf accuracy    <       0.00000810 Ry

     iteration # 17     ecut=    50.00 Ry     beta= 0.70
     CG style diagonalization
     ethr =  1.26E-08,  avg # of iterations =  3.1

     total cpu time spent up to now is      166.0 secs

     total energy              =    -346.56929342 Ry
     Harris-Foulkes estimate   =    -346.56929495 Ry
     estimated scf accuracy    <       0.00000323 Ry

     iteration # 18     ecut=    50.00 Ry     beta= 0.70
     CG style diagonalization
     c_bands:  1 eigenvalues not converged
     ethr =  5.04E-09,  avg # of iterations =  4.0

     total cpu time spent up to now is      170.8 secs

     total energy              =    -346.57527970 Ry
     Harris-Foulkes estimate   =    -346.57527908 Ry
     estimated scf accuracy    <       0.00006981 Ry

     iteration # 19     ecut=    50.00 Ry     beta= 0.70
     CG style diagonalization
     c_bands:  1 eigenvalues not converged
     ethr =  5.04E-09,  avg # of iterations =  3.1

     total cpu time spent up to now is      174.6 secs

     total energy              =    -346.57528192 Ry
     Harris-Foulkes estimate   =    -346.57528145 Ry
     estimated scf accuracy    <       0.00007037 Ry

     iteration # 20     ecut=    50.00 Ry     beta= 0.70
     CG style diagonalization
     ethr =  5.04E-09,  avg # of iterations =  3.0

     total cpu time spent up to now is      178.2 secs

     total energy              =    -346.57528447 Ry
     Harris-Foulkes estimate   =    -346.57528194 Ry
     estimated scf accuracy    <       0.00007184 Ry

     iteration # 21     ecut=    50.00 Ry     beta= 0.70
     CG style diagonalization
     ethr =  5.04E-09,  avg # of iterations =  3.0

     total cpu time spent up to now is      181.9 secs

     total energy              =    -346.57527978 Ry
     Harris-Foulkes estimate   =    -346.57528454 Ry
     estimated scf accuracy    <       0.00007868 Ry

     iteration # 22     ecut=    50.00 Ry     beta= 0.70
     CG style diagonalization
     ethr =  5.04E-09,  avg # of iterations =  3.0

     total cpu time spent up to now is      185.6 secs

     total energy              =    -346.57529340 Ry
     Harris-Foulkes estimate   =    -346.57527995 Ry
     estimated scf accuracy    <       0.00006837 Ry

     iteration # 23     ecut=    50.00 Ry     beta= 0.70
     CG style diagonalization
     ethr =  5.04E-09,  avg # of iterations =  4.3

     total cpu time spent up to now is      190.8 secs

     total energy              =    -346.57531823 Ry
     Harris-Foulkes estimate   =    -346.57529499 Ry
     estimated scf accuracy    <       0.00011020 Ry

     iteration # 24     ecut=    50.00 Ry     beta= 0.70
     CG style diagonalization
     ethr =  5.04E-09,  avg # of iterations =  4.8

     total cpu time spent up to now is      196.5 secs

     total energy              =    -346.57531186 Ry
     Harris-Foulkes estimate   =    -346.57532154 Ry
     estimated scf accuracy    <       0.00018778 Ry

     iteration # 25     ecut=    50.00 Ry     beta= 0.70
     CG style diagonalization
     ethr =  5.04E-09,  avg # of iterations =  3.6

     total cpu time spent up to now is      200.9 secs

     total energy              =    -346.57531503 Ry
     Harris-Foulkes estimate   =    -346.57531233 Ry
     estimated scf accuracy    <       0.00016101 Ry

     iteration # 26     ecut=    50.00 Ry     beta= 0.70
     CG style diagonalization
     ethr =  5.04E-09,  avg # of iterations =  3.0

     total cpu time spent up to now is      204.6 secs

     total energy              =    -346.57527782 Ry
     Harris-Foulkes estimate   =    -346.57531509 Ry
     estimated scf accuracy    <       0.00016936 Ry

     iteration # 27     ecut=    50.00 Ry     beta= 0.70
     CG style diagonalization
     ethr =  5.04E-09,  avg # of iterations =  5.3

     total cpu time spent up to now is      210.9 secs

     total energy              =    -346.57525535 Ry
     Harris-Foulkes estimate   =    -346.57528513 Ry
     estimated scf accuracy    <       0.00007733 Ry

     iteration # 28     ecut=    50.00 Ry     beta= 0.70
     CG style diagonalization
     c_bands:  1 eigenvalues not converged
     ethr =  5.04E-09,  avg # of iterations =  5.4

     total cpu time spent up to now is      217.4 secs

     total energy              =    -346.58672625 Ry
     Harris-Foulkes estimate   =    -346.58672530 Ry
     estimated scf accuracy    <       0.00027821 Ry

     iteration # 29     ecut=    50.00 Ry     beta= 0.70
     CG style diagonalization
     c_bands:  1 eigenvalues not converged
     ethr =  5.04E-09,  avg # of iterations =  3.1

     total cpu time spent up to now is      221.1 secs

     total energy              =    -346.58746552 Ry
     Harris-Foulkes estimate   =    -346.58746179 Ry
     estimated scf accuracy    <       0.00028128 Ry

     iteration # 30     ecut=    50.00 Ry     beta= 0.70
     CG style diagonalization
     ethr =  5.04E-09,  avg # of iterations =  3.5

     total cpu time spent up to now is      225.4 secs

     total energy              =    -346.58747110 Ry
     Harris-Foulkes estimate   =    -346.58746597 Ry
     estimated scf accuracy    <       0.00028966 Ry

     iteration # 31     ecut=    50.00 Ry     beta= 0.70
     CG style diagonalization
     ethr =  5.04E-09,  avg # of iterations =  4.5

     total cpu time spent up to now is      230.9 secs

     total energy              =    -346.58750418 Ry
     Harris-Foulkes estimate   =    -346.58747325 Ry
     estimated scf accuracy    <       0.00030756 Ry

     iteration # 32     ecut=    50.00 Ry     beta= 0.70
     CG style diagonalization
     ethr =  5.04E-09,  avg # of iterations =  3.8

     total cpu time spent up to now is      235.6 secs

     total energy              =    -346.58749125 Ry
     Harris-Foulkes estimate   =    -346.58750474 Ry
     estimated scf accuracy    <       0.00038508 Ry

     iteration # 33     ecut=    50.00 Ry     beta= 0.70
     CG style diagonalization
     ethr =  5.04E-09,  avg # of iterations =  3.0

     total cpu time spent up to now is      239.3 secs

     total energy              =    -346.58743780 Ry
     Harris-Foulkes estimate   =    -346.58749137 Ry
     estimated scf accuracy    <       0.00035447 Ry

     iteration # 34     ecut=    50.00 Ry     beta= 0.70
     CG style diagonalization
     ethr =  5.04E-09,  avg # of iterations =  4.3

     total cpu time spent up to now is      244.4 secs

     total energy              =    -346.58733561 Ry
     Harris-Foulkes estimate   =    -346.58743957 Ry
     estimated scf accuracy    <       0.00022657 Ry

     iteration # 35     ecut=    50.00 Ry     beta= 0.70
     CG style diagonalization
     ethr =  5.04E-09,  avg # of iterations =  6.1

     total cpu time spent up to now is      251.7 secs

     total energy              =    -346.58735205 Ry
     Harris-Foulkes estimate   =    -346.58735227 Ry
     estimated scf accuracy    <       0.00001138 Ry

     iteration # 36     ecut=    50.00 Ry     beta= 0.70
     CG style diagonalization
     ethr =  5.04E-09,  avg # of iterations =  3.0

     total cpu time spent up to now is      255.4 secs

     total energy              =    -346.58734657 Ry
     Harris-Foulkes estimate   =    -346.58735214 Ry
     estimated scf accuracy    <       0.00001078 Ry

     iteration # 37     ecut=    50.00 Ry     beta= 0.70
     CG style diagonalization
     ethr =  5.04E-09,  avg # of iterations =  4.3

     total cpu time spent up to now is      260.7 secs

     total energy              =    -346.58734790 Ry
     Harris-Foulkes estimate   =    -346.58734814 Ry
     estimated scf accuracy    <       0.00000062 Ry

     iteration # 38     ecut=    50.00 Ry     beta= 0.70
     CG style diagonalization
     ethr =  9.61E-10,  avg # of iterations =  4.1

     total cpu time spent up to now is      265.6 secs

     total energy              =    -346.58734805 Ry
     Harris-Foulkes estimate   =    -346.58734809 Ry
     estimated scf accuracy    <       0.00000012 Ry

     iteration # 39     ecut=    50.00 Ry     beta= 0.70
     CG style diagonalization
     ethr =  1.89E-10,  avg # of iterations =  3.4

     total cpu time spent up to now is      269.8 secs

     total energy              =    -346.58734805 Ry
     Harris-Foulkes estimate   =    -346.58734806 Ry
     estimated scf accuracy    <       0.00000003 Ry

     iteration # 40     ecut=    50.00 Ry     beta= 0.70
     CG style diagonalization
     c_bands:  1 eigenvalues not converged
     c_bands:  1 eigenvalues not converged
     ethr =  4.02E-11,  avg # of iterations =  4.4

     total cpu time spent up to now is      275.0 secs

     total energy              =    -346.59122435 Ry
     Harris-Foulkes estimate   =    -346.59122436 Ry
     estimated scf accuracy    <       0.00002233 Ry

     iteration # 41     ecut=    50.00 Ry     beta= 0.70
     CG style diagonalization
     ethr =  4.02E-11,  avg # of iterations =  3.0

     total cpu time spent up to now is      278.7 secs

     total energy              =    -346.59122438 Ry
     Harris-Foulkes estimate   =    -346.59122436 Ry
     estimated scf accuracy    <       0.00002236 Ry

     iteration # 42     ecut=    50.00 Ry     beta= 0.70
     CG style diagonalization
     ethr =  4.02E-11,  avg # of iterations =  3.0

     total cpu time spent up to now is      282.4 secs

     total energy              =    -346.59122436 Ry
     Harris-Foulkes estimate   =    -346.59122438 Ry
     estimated scf accuracy    <       0.00002242 Ry

     iteration # 43     ecut=    50.00 Ry     beta= 0.70
     CG style diagonalization
     ethr =  4.02E-11,  avg # of iterations =  3.0

     total cpu time spent up to now is      286.1 secs

     total energy              =    -346.59122417 Ry
     Harris-Foulkes estimate   =    -346.59122436 Ry
     estimated scf accuracy    <       0.00002239 Ry

     iteration # 44     ecut=    50.00 Ry     beta= 0.70
     CG style diagonalization
     ethr =  4.02E-11,  avg # of iterations =  3.3

     total cpu time spent up to now is      290.1 secs

     total energy              =    -346.59122406 Ry
     Harris-Foulkes estimate   =    -346.59122417 Ry
     estimated scf accuracy    <       0.00002202 Ry

     iteration # 45     ecut=    50.00 Ry     beta= 0.70
     CG style diagonalization
     ethr =  4.02E-11,  avg # of iterations =  3.1

     total cpu time spent up to now is      294.0 secs

     total energy              =    -346.59122394 Ry
     Harris-Foulkes estimate   =    -346.59122406 Ry
     estimated scf accuracy    <       0.00002184 Ry

     iteration # 46     ecut=    50.00 Ry     beta= 0.70
     CG style diagonalization
     ethr =  4.02E-11,  avg # of iterations =  3.8

     total cpu time spent up to now is      298.5 secs

     total energy              =    -346.59122392 Ry
     Harris-Foulkes estimate   =    -346.59122395 Ry
     estimated scf accuracy    <       0.00002166 Ry

     iteration # 47     ecut=    50.00 Ry     beta= 0.70
     CG style diagonalization
     ethr =  4.02E-11,  avg # of iterations =  3.0

     total cpu time spent up to now is      302.2 secs

     total energy              =    -346.59122393 Ry
     Harris-Foulkes estimate   =    -346.59122392 Ry
     estimated scf accuracy    <       0.00002154 Ry

     iteration # 48     ecut=    50.00 Ry     beta= 0.70
     CG style diagonalization
     ethr =  4.02E-11,  avg # of iterations =  3.0

     total cpu time spent up to now is      306.0 secs

     total energy              =    -346.59121367 Ry
     Harris-Foulkes estimate   =    -346.59122393 Ry
     estimated scf accuracy    <       0.00002160 Ry

     iteration # 49     ecut=    50.00 Ry     beta= 0.70
     CG style diagonalization
     c_bands:  2 eigenvalues not converged
     c_bands:  1 eigenvalues not converged
     ethr =  4.02E-11,  avg # of iterations =  8.7

     total cpu time spent up to now is      316.4 secs

     total energy              =    -346.59121672 Ry
     Harris-Foulkes estimate   =    -346.59121699 Ry
     estimated scf accuracy    <       0.00000108 Ry

     iteration # 50     ecut=    50.00 Ry     beta= 0.70
     CG style diagonalization
     ethr =  4.02E-11,  avg # of iterations =  5.1

     total cpu time spent up to now is      322.5 secs

     total energy              =    -346.59121668 Ry
     Harris-Foulkes estimate   =    -346.59121676 Ry
     estimated scf accuracy    <       0.00000042 Ry

     iteration # 51     ecut=    50.00 Ry     beta= 0.70
     CG style diagonalization
     c_bands:  1 eigenvalues not converged
     ethr =  4.02E-11,  avg # of iterations =  4.7

     total cpu time spent up to now is      328.1 secs

     total energy              =    -346.59509872 Ry
     Harris-Foulkes estimate   =    -346.59507607 Ry
     estimated scf accuracy    <       0.00002412 Ry

     iteration # 52     ecut=    50.00 Ry     beta= 0.70
     CG style diagonalization
     c_bands:  1 eigenvalues not converged
     ethr =  4.02E-11,  avg # of iterations =  8.5

     total cpu time spent up to now is      338.2 secs

     total energy              =    -346.59510211 Ry
     Harris-Foulkes estimate   =    -346.59510330 Ry
     estimated scf accuracy    <       0.00009718 Ry

     iteration # 53     ecut=    50.00 Ry     beta= 0.70
     CG style diagonalization
     ethr =  4.02E-11,  avg # of iterations =  3.7

     total cpu time spent up to now is      342.8 secs

     total energy              =    -346.59510366 Ry
     Harris-Foulkes estimate   =    -346.59510211 Ry
     estimated scf accuracy    <       0.00009397 Ry

     iteration # 54     ecut=    50.00 Ry     beta= 0.70
     CG style diagonalization
     ethr =  4.02E-11,  avg # of iterations =  3.8

     total cpu time spent up to now is      347.3 secs

     total energy              =    -346.59508597 Ry
     Harris-Foulkes estimate   =    -346.59510366 Ry
     estimated scf accuracy    <       0.00009847 Ry

     iteration # 55     ecut=    50.00 Ry     beta= 0.70
     CG style diagonalization
     ethr =  4.02E-11,  avg # of iterations =  7.4

     total cpu time spent up to now is      356.0 secs

     total energy              =    -346.59509052 Ry
     Harris-Foulkes estimate   =    -346.59508691 Ry
     estimated scf accuracy    <       0.00005070 Ry

     iteration # 56     ecut=    50.00 Ry     beta= 0.70
     CG style diagonalization
     ethr =  4.02E-11,  avg # of iterations =  5.2

     total cpu time spent up to now is      362.2 secs

     total energy              =    -346.59506746 Ry
     Harris-Foulkes estimate   =    -346.59509057 Ry
     estimated scf accuracy    <       0.00006106 Ry

     iteration # 57     ecut=    50.00 Ry     beta= 0.70
     CG style diagonalization
     c_bands:  1 eigenvalues not converged
     ethr =  4.02E-11,  avg # of iterations =  8.5

     total cpu time spent up to now is      372.3 secs

     total energy              =    -346.59506879 Ry
     Harris-Foulkes estimate   =    -346.59507111 Ry
     estimated scf accuracy    <       0.00000505 Ry

     iteration # 58     ecut=    50.00 Ry     beta= 0.70
     CG style diagonalization
     c_bands:  1 eigenvalues not converged
     ethr =  4.02E-11,  avg # of iterations =  7.1

     total cpu time spent up to now is      380.6 secs

     End of self-consistent calculation

          k = 0.0000 0.0000 0.0000 (   537 PWs)   bands (ev):

    -6.2384   3.6060  10.1427  10.1427  10.1895  10.1895  12.1936  13.1332
    13.1332  13.2059  14.9660  17.5599  18.4818  22.4887  22.4887  24.6051
    24.6051  31.3192  31.3192  34.6013  34.6013  36.6991  40.8234  43.4907
    43.4907  43.8784  45.6831  47.1519  47.1519  49.0442  49.2468  49.2468

          k =-0.1981-0.1144 0.0900 (   543 PWs)   bands (ev):

    -5.3079   1.3761   7.4172   8.8813   9.8940  11.1035  12.8735  13.1289
    13.1617  15.1691  18.1195  18.2259  20.6205  21.4217  22.5094  25.3681
    26.3438  30.5503  31.1786  32.6562  34.2451  38.0663  39.9355  41.7125
    41.9419  43.0891  44.4146  44.5357  45.7690  46.5067  47.7563  48.9618

          k = 0.3962 0.2287-0.1801 (   544 PWs)   bands (ev):

    -2.5902  -2.5902   7.8322   7.8322   9.4137   9.4137  13.1644  13.1644
    16.3312  16.3312  17.7772  17.7772  21.8426  21.8426  25.6348  25.6348
    30.3179  30.3179  30.5929  30.5929  34.5939  34.5939  39.0744  39.0744
    41.5423  41.5423  42.1324  42.1324  45.3207  45.3207  48.0868  48.0868

          k =-0.1981 0.1144 0.1801 (   560 PWs)   bands (ev):

    -4.9619   1.9545   6.2634   6.8425   8.3876   9.8712  13.7174  14.8533
    15.0014  16.8254  17.2464  19.0321  21.5933  22.0247  23.0936  23.8015
    28.5249  30.2587  30.9910  31.8960  33.1819  37.9405  38.9252  40.5660
    40.9895  42.7685  44.6652  44.9557  45.9112  46.3649  48.2084  48.7212

          k = 0.3962 0.4575-0.0900 (   542 PWs)   bands (ev):

    -2.9452  -0.8561   4.2458   5.9525   8.9986  10.9678  12.3133  16.2534
    16.9982  17.0841  17.9992  20.3660  21.0144  22.1634  25.2513  27.1484
    27.6632  29.1068  30.8789  32.2696  33.4300  34.8415  37.4864  38.3846
    38.9760  42.0626  43.0328  43.6262  44.8801  46.4305  47.6081  49.0647

          k = 0.1981 0.3431 0.0000 (   548 PWs)   bands (ev):

    -3.8688  -0.2129   4.3390   7.3873  10.1463  10.6547  13.2103  15.3238
    16.4506  17.0266  17.6133  18.8547  20.6946  20.7418  22.9425  26.6076
    28.9497  29.9054  30.3841  32.9207  33.1760  37.8913  38.3389  39.2029
    39.3429  41.8127  42.4707  43.5612  45.7568  46.1343  47.5842  48.5328

          k = 0.3962-0.2287-0.3602 (   524 PWs)   bands (ev):

    -2.5869   0.8790   2.1208   4.9112   7.9510   8.1294  16.5697  16.8541
    17.3171  18.5065  18.9158  21.3100  21.8534  22.3012  25.4074  26.6938
    27.1822  27.9618  29.9734  30.4482  32.7033  34.8934  36.2401  38.7588
    40.7995  42.9844  43.2858  44.9285  45.1427  45.5728  46.3063  47.4782

          k =-0.0000-0.0000 0.2701 (   543 PWs)   bands (ev):

    -5.1095   2.0030   8.2841   8.2841   9.1581  10.4996  10.6576  10.6576
    14.5594  14.5594  15.7180  22.0885  23.6043  23.6043  24.8236  26.4186
    26.4186  31.6322  31.6322  32.0080  32.8895  32.8895  40.7953  40.7953
    41.9609  43.7330  45.4788  45.4788  45.6618  46.7496  46.7496  47.2983

          k = 0.5943 0.3431 0.0000 (   548 PWs)   bands (ev):

    -3.5061  -0.0826   4.8312   7.4566   7.6535  11.1577  11.9554  13.4872
    15.2206  15.6377  19.2384  21.6850  21.6910  23.1559  26.1018  27.9265
    29.6406  29.8841  29.9232  31.9551  33.9459  33.9908  36.1326  40.0457
    40.5887  42.7024  43.5398  44.1257  44.4487  45.0513  46.3444  48.1807

          k = 0.3962 0.2287 0.0900 (   542 PWs)   bands (ev):

    -3.0940  -0.5229   4.7163   6.0654   6.2530  13.5290  14.1853  14.8202
    16.8786  17.3571  18.2105  19.7965  20.4956  21.1978  23.9236  26.9664
    29.5586  29.6014  30.3096  32.0348  32.7974  36.7049  38.3790  38.9148
    39.7849  41.0425  42.4412  43.5917  45.6737  45.8486  46.4525  47.5119

          k = 0.5943-0.3431-0.2701 (   542 PWs)   bands (ev):

    -2.6450  -0.2006   3.9757   5.8399   6.4752  12.2774  12.2842  13.2744
    14.8409  19.0047  20.6304  21.0563  21.1749  23.1103  28.0527  28.3119
    28.8284  29.4525  30.9772  31.5522  31.7804  33.8613  36.9085  38.9778
    39.9131  42.2704  43.8033  44.6039  44.8860  45.1232  45.8776  46.4033

          k = 0.3962-0.4575-0.1801 (   524 PWs)   bands (ev):

    -1.3528  -1.3528   3.3648   3.3648  10.4340  10.4340  13.7130  13.7130
    18.0370  18.0370  20.4693  20.4693  21.3080  21.3080  26.4989  26.4989
    29.1815  29.1815  31.7238  31.7238  33.0801  33.0801  37.3715  37.3715
    39.8505  39.8505  42.9723  42.9723  46.2670  46.2670  48.0279  48.0279

          k = 0.0000 0.0000-0.5402 (   544 PWs)   bands (ev):

    -1.9263  -1.9263   8.2778   8.2778   8.5458   8.5458   8.5458   8.5458
    19.7408  19.7408  19.7408  19.7408  20.7715  20.7715  30.6091  30.6091
    30.8524  30.8524  30.8524  30.8524  34.9489  34.9489  34.9489  34.9489
    42.5051  42.5051  44.2290  44.2290  44.4054  44.4054  44.4054  44.4054

     highest occupied level (ev):    49.2468

!    total energy              =    -346.59506938 Ry
     Harris-Foulkes estimate   =    -346.59506938 Ry
     estimated scf accuracy    <          3.3E-09 Ry

     The total energy is the sum of the following terms:

     one-electron contribution =     182.47656702 Ry
     hartree contribution      =      27.08017918 Ry
     xc contribution           =     -90.37976547 Ry
     ewald contribution        =    -465.77205012 Ry

     convergence has been achieved in  58 iterations

     Forces acting on atoms (cartesian axes, Ry/au):

     atom    1 type  1   force =     0.00000000    0.00000000    0.00000000
     atom    2 type  1   force =     0.00000000    0.00000000    0.00000000
     atom    3 type  2   force =     0.00000000    0.00000000    0.00000000
     atom    4 type  2   force =     0.00000000    0.00000000    0.00000000
     atom    5 type  3   force =     0.72682745   -1.25890208   -0.00000000
     atom    6 type  3   force =    -1.45365491   -0.00000000   -0.00000000
     atom    7 type  3   force =     0.72682745    1.25890208    0.00000000
     atom    8 type  3   force =     1.45365491    0.00000000   -0.00000000
     atom    9 type  3   force =    -0.72682745   -1.25890208   -0.00000000
     atom   10 type  3   force =    -0.72682745    1.25890208    0.00000000

     Total force =     3.560713     Total SCF correction =     0.000147


     Computing stress (Cartesian axis) and pressure

          total   stress  (Ry/bohr**3)                   (kbar)     P=35475.84
   0.28181255   0.00000000  -0.00000000      41456.05      0.00     -0.00
   0.00000000   0.28181255   0.00000000          0.00  41456.05      0.00
   0.00000000   0.00000000   0.15985466          0.00      0.00  23515.43


     number of scf cycles    =   2
     number of bfgs steps    =   1

     enthalpy old            =    -304.9603342784 Ry
     enthalpy new            =    -346.5949576250 Ry

     CASE: enthalpy_new < enthalpy_old

     new trust radius        =       0.8000000000 bohr
     new conv_thr            =       0.0000000100 Ry

     new unit-cell volume =    232.81057 a.u.^3 (    34.49897 Ang^3 )
     density =      9.63514 g/cm^3

CELL_PARAMETERS (alat=  5.05000000)
   0.655563477  -0.378489750   1.214250896
  -0.000000000   0.756979500   1.214250896
  -0.655563477  -0.378489750   1.214250896

ATOMIC_POSITIONS (crystal)
Ca       0.500000000   0.500000000   0.500000000
Ca       0.000000000   0.000000000   0.000000000
C        0.250000000   0.250000000   0.250000000
C        0.750000000   0.750000000   0.750000000
O        0.460476377   1.039523623   0.250000000
O        1.039523623   0.250000000   0.460476377
O        0.250000000   0.460476377   1.039523623
O       -0.039523623   0.750000000   0.539523623
O        0.750000000   0.539523623  -0.039523623
O        0.539523623  -0.039523623   0.750000000



     Writing output data file CCO.save/
     NEW-OLD atomic charge density approx. for the potential

     Check: negative core charge=   -0.000003
     extrapolated charge   82.80411, renormalised to   64.00000

     total cpu time spent up to now is      388.4 secs

     Self-consistent Calculation

     iteration #  1     ecut=    50.00 Ry     beta= 0.70
     CG style diagonalization
     c_bands:  3 eigenvalues not converged
     c_bands:  1 eigenvalues not converged
     c_bands:  2 eigenvalues not converged
     c_bands:  1 eigenvalues not converged
     ethr =  1.00E-06,  avg # of iterations = 24.7

     total cpu time spent up to now is      416.1 secs

     total energy              =    -341.11155066 Ry
     Harris-Foulkes estimate   =    -342.57703979 Ry
     estimated scf accuracy    <       3.53383073 Ry

     iteration #  2     ecut=    50.00 Ry     beta= 0.70
     CG style diagonalization
     ethr =  5.52E-03,  avg # of iterations =  4.2

     total cpu time spent up to now is      421.1 secs

     total energy              =    -341.98368808 Ry
     Harris-Foulkes estimate   =    -343.26685568 Ry
     estimated scf accuracy    <       2.39138926 Ry

     iteration #  3     ecut=    50.00 Ry     beta= 0.70
     CG style diagonalization
     ethr =  3.74E-03,  avg # of iterations =  3.6

     total cpu time spent up to now is      425.4 secs

     total energy              =    -342.34807474 Ry
     Harris-Foulkes estimate   =    -342.38859719 Ry
     estimated scf accuracy    <       0.08849932 Ry

     iteration #  4     ecut=    50.00 Ry     beta= 0.70
     CG style diagonalization
     ethr =  1.38E-04,  avg # of iterations =  4.0

     total cpu time spent up to now is      430.2 secs

     total energy              =    -342.36127447 Ry
     Harris-Foulkes estimate   =    -342.37444380 Ry
     estimated scf accuracy    <       0.02280390 Ry

     iteration #  5     ecut=    50.00 Ry     beta= 0.70
     CG style diagonalization
     ethr =  3.56E-05,  avg # of iterations =  4.1

     total cpu time spent up to now is      435.0 secs

     total energy              =    -342.36926631 Ry
     Harris-Foulkes estimate   =    -342.37065777 Ry
     estimated scf accuracy    <       0.00321758 Ry

     iteration #  6     ecut=    50.00 Ry     beta= 0.70
     CG style diagonalization
     ethr =  5.03E-06,  avg # of iterations =  3.7

     total cpu time spent up to now is      439.5 secs

     total energy              =    -342.37000820 Ry
     Harris-Foulkes estimate   =    -342.37008564 Ry
     estimated scf accuracy    <       0.00016451 Ry

     iteration #  7     ecut=    50.00 Ry     beta= 0.70
     CG style diagonalization
     ethr =  2.57E-07,  avg # of iterations =  4.2

     total cpu time spent up to now is      444.7 secs

     total energy              =    -342.37009367 Ry
     Harris-Foulkes estimate   =    -342.37009487 Ry
     estimated scf accuracy    <       0.00000271 Ry

     iteration #  8     ecut=    50.00 Ry     beta= 0.70
     CG style diagonalization
     c_bands:  1 eigenvalues not converged
     ethr =  4.23E-09,  avg # of iterations =  4.9

     total cpu time spent up to now is      450.9 secs

     total energy              =    -342.41586208 Ry
     Harris-Foulkes estimate   =    -342.41583139 Ry
     estimated scf accuracy    <       0.00134282 Ry

     iteration #  9     ecut=    50.00 Ry     beta= 0.70
     CG style diagonalization
     ethr =  4.23E-09,  avg # of iterations =  3.6

     total cpu time spent up to now is      455.4 secs

     total energy              =    -342.41610238 Ry
     Harris-Foulkes estimate   =    -342.41586327 Ry
     estimated scf accuracy    <       0.00145095 Ry

     iteration # 10     ecut=    50.00 Ry     beta= 0.70
     CG style diagonalization
     ethr =  4.23E-09,  avg # of iterations =  5.4

     total cpu time spent up to now is      461.8 secs

     total energy              =    -342.41553887 Ry
     Harris-Foulkes estimate   =    -342.41612134 Ry
     estimated scf accuracy    <       0.00233022 Ry

     iteration # 11     ecut=    50.00 Ry     beta= 0.70
     CG style diagonalization
     ethr =  4.23E-09,  avg # of iterations =  6.8

     total cpu time spent up to now is      469.7 secs

     total energy              =    -342.41531850 Ry
     Harris-Foulkes estimate   =    -342.41562905 Ry
     estimated scf accuracy    <       0.00065203 Ry

     iteration # 12     ecut=    50.00 Ry     beta= 0.70
     CG style diagonalization
     ethr =  4.23E-09,  avg # of iterations =  7.1

     total cpu time spent up to now is      478.0 secs

     total energy              =    -342.41544214 Ry
     Harris-Foulkes estimate   =    -342.41544230 Ry
     estimated scf accuracy    <       0.00000084 Ry

     iteration # 13     ecut=    50.00 Ry     beta= 0.70
     CG style diagonalization
     ethr =  1.32E-09,  avg # of iterations =  5.1

     total cpu time spent up to now is      484.0 secs

     total energy              =    -342.41544063 Ry
     Harris-Foulkes estimate   =    -342.41544515 Ry
     estimated scf accuracy    <       0.00001061 Ry

     iteration # 14     ecut=    50.00 Ry     beta= 0.70
     CG style diagonalization
     ethr =  1.32E-09,  avg # of iterations =  4.9

     total cpu time spent up to now is      489.8 secs

     total energy              =    -342.41544227 Ry
     Harris-Foulkes estimate   =    -342.41544208 Ry
     estimated scf accuracy    <       0.00000015 Ry

     iteration # 15     ecut=    50.00 Ry     beta= 0.70
     CG style diagonalization
     ethr =  2.33E-10,  avg # of iterations =  4.1

     total cpu time spent up to now is      494.7 secs

     total energy              =    -342.41544193 Ry
     Harris-Foulkes estimate   =    -342.41544235 Ry
     estimated scf accuracy    <       0.00000100 Ry

     iteration # 16     ecut=    50.00 Ry     beta= 0.70
     CG style diagonalization
     ethr =  2.33E-10,  avg # of iterations =  4.5

     total cpu time spent up to now is      500.0 secs

     total energy              =    -342.41544206 Ry
     Harris-Foulkes estimate   =    -342.41544206 Ry
     estimated scf accuracy    <       0.00000002 Ry

     iteration # 17     ecut=    50.00 Ry     beta= 0.70
     CG style diagonalization
     ethr =  2.72E-11,  avg # of iterations =  4.0

     total cpu time spent up to now is      504.8 secs

     End of self-consistent calculation

          k = 0.0000 0.0000 0.0000 (   537 PWs)   bands (ev):

   -12.2008  -7.2494  -6.4625  -4.5377  -3.1339  -3.1339  -2.3268  -2.3268
     4.9585   6.3271   6.3271   7.2649   7.7964  11.8160  11.8160  13.2996
    15.3556  15.3556  19.6744  21.0287  21.0287  24.1615  24.1615  26.3246
    26.9409  26.9409  28.4323  28.4323  29.8201  29.8201  31.3887  34.3800

          k =-0.1907-0.1101 0.0686 (   543 PWs)   bands (ev):

   -11.5377  -7.6075  -7.0043  -5.7591  -3.1452  -2.9785  -2.5542  -1.2542
     3.9662   6.7814   7.1975   8.2356   9.4523  10.1161  11.0816  12.1771
    16.4522  17.5987  20.8154  20.8310  21.6913  22.0518  25.3322  25.3404
    26.2609  26.6538  26.9895  28.3668  28.6951  29.3893  32.7198  33.0351

          k = 0.3814 0.2202-0.1373 (   544 PWs)   bands (ev):

    -9.6780  -9.6780  -6.9340  -6.9340  -2.9792  -2.9792  -1.4964  -1.4964
     4.6964   4.6964   9.1445   9.1445   9.7088   9.7088  11.0971  11.0971
    19.2337  19.2337  20.8444  20.8444  22.3281  22.3281  23.0117  23.0117
    25.0859  25.0859  28.2973  28.2973  28.8022  28.8022  32.5707  32.5707

          k =-0.1907 0.1101 0.1373 (   560 PWs)   bands (ev):

   -11.3752  -7.9096  -6.5083  -6.2329  -3.6537  -3.0338  -2.0708  -1.4161
     4.0568   7.2314   7.6517   8.6293   9.4543   9.5538  11.0624  12.1028
    15.8347  17.7389  19.9025  21.9739  22.0653  22.7856  23.5613  25.0669
    25.3909  27.0486  27.9082  28.3122  29.1179  29.4152  32.2926  32.3943

          k = 0.3814 0.4403-0.0686 (   542 PWs)   bands (ev):

    -9.9800  -8.2734  -7.8643  -7.4687  -2.9199  -2.5741  -2.3202  -1.1722
     4.5206   6.0241   8.1830   8.3513   9.8458  10.4161  11.8598  12.0074
    17.2745  18.8612  19.8736  20.0415  22.3809  22.9690  23.9903  24.4812
    25.3321  25.6378  26.7370  28.1597  28.5905  29.4348  32.1237  33.1812

          k = 0.1907 0.3303 0.0000 (   548 PWs)   bands (ev):

   -10.4180  -8.0516  -7.7753  -7.0307  -2.9855  -2.6913  -2.4523  -0.9341
     4.4256   5.7720   8.0184   8.5569   9.3106  10.3821  11.6366  12.4853
    16.7676  18.9048  19.6715  21.2852  22.3195  22.9647  23.8356  24.6594
    25.5085  26.4332  27.0711  27.1969  27.4711  29.8115  32.2240  33.5117

          k = 0.3814-0.2202-0.2745 (   524 PWs)   bands (ev):

    -9.2858  -8.9149  -8.3492  -6.6849  -4.0846  -3.0660  -1.7740  -0.6634
     4.4456   7.2069   7.4329   8.9774   9.3045  10.9225  11.6833  13.5077
    15.8878  18.1482  18.9578  19.1785  22.0084  24.5980  24.9331  24.9797
    25.0343  26.3339  26.7204  27.2698  29.7651  29.9132  30.6354  32.8465

          k =-0.0000 0.0000 0.2059 (   543 PWs)   bands (ev):

   -11.6902  -8.4342  -5.9917  -4.8567  -3.0751  -3.0751  -2.5074  -2.5074
     5.4188   6.9935   6.9935   8.1066   8.5485  10.6248  10.6248  11.5116
    16.9129  16.9129  20.6495  20.6495  21.3886  23.7831  23.7831  25.6675
    25.9874  25.9874  28.6045  28.6045  29.6871  29.6871  30.3156  33.1743

          k = 0.5720 0.3303 0.0000 (   548 PWs)   bands (ev):

   -10.7384  -8.6446  -7.3639  -5.9402  -3.2669  -2.5125  -2.4321  -1.5246
     4.6921   6.5274   7.7866   9.1059   9.1865  10.1300  10.4178  12.4206
    17.6511  18.5929  19.3457  20.0810  21.5168  22.5181  24.5571  24.8673
    26.3775  26.4421  27.2297  28.1692  28.2650  30.0080  31.6942  32.4381

          k = 0.3814 0.2202 0.0686 (   542 PWs)   bands (ev):

    -9.8052  -8.9065  -7.8924  -6.6892  -3.7671  -2.4444  -2.1046  -0.8913
     4.5897   5.4028   8.9416   9.0344   9.5113  10.0006  11.1327  12.4850
    17.5914  18.7522  19.1817  20.4307  22.4138  23.0843  23.8109  24.5743
    25.2175  25.9893  26.7505  27.3902  29.6861  29.9374  31.1699  32.8364

          k = 0.5720-0.3303-0.2059 (   542 PWs)   bands (ev):

   -10.2834  -9.2493  -6.9599  -6.3097  -3.7117  -2.2890  -2.0451  -1.8772
     4.9081   6.7237   8.6853   8.8890   9.0073   9.9373  11.0157  11.7805
    17.4111  18.4861  18.9690  20.9885  21.0614  23.7482  24.0457  24.0666
    25.9679  26.2174  27.3619  28.7485  29.1063  29.8333  31.3890  31.4795

          k = 0.3814-0.4403-0.1373 (   524 PWs)   bands (ev):

    -8.8682  -8.8682  -8.1072  -8.1072  -2.5685  -2.5685  -1.8440  -1.8440
     5.2769   5.2769   8.5202   8.5202  10.2890  10.2890  11.9183  11.9183
    17.9834  17.9834  20.1116  20.1116  22.2157  22.2157  24.1836  24.1836
    25.2278  25.2278  27.9895  27.9895  29.1571  29.1571  32.3572  32.3572

          k = 0.0000-0.0000-0.4118 (   544 PWs)   bands (ev):

   -10.2736 -10.2736  -5.4448  -5.4448  -2.8444  -2.8444  -2.8444  -2.8444
     7.1086   7.1086   8.6639   8.6639   8.6639   8.6639  10.0162  10.0162
    19.3624  19.3624  19.3624  19.3624  23.9023  23.9023  24.1213  24.1213
    24.1213  24.1213  29.1893  29.1893  29.1893  29.1893  30.4450  30.4450

     highest occupied level (ev):    34.3800

!    total energy              =    -342.41544206 Ry
     Harris-Foulkes estimate   =    -342.41544206 Ry
     estimated scf accuracy    <          1.4E-10 Ry

     The total energy is the sum of the following terms:

     one-electron contribution =      39.05706333 Ry
     hartree contribution      =      67.13922926 Ry
     xc contribution           =     -89.02888662 Ry
     ewald contribution        =    -359.58284804 Ry

     convergence has been achieved in  17 iterations

     Forces acting on atoms (cartesian axes, Ry/au):

     atom    1 type  1   force =     0.00000000   -0.00000000   -0.00000000
     atom    2 type  1   force =     0.00000000    0.00000000   -0.00000000
     atom    3 type  2   force =    -0.00000000    0.00000000    0.00000000
     atom    4 type  2   force =    -0.00000000    0.00000000    0.00000000
     atom    5 type  3   force =     5.14096578   -8.90441394   -0.00000000
     atom    6 type  3   force =   -10.28193157    0.00000000   -0.00000000
     atom    7 type  3   force =     5.14096578    8.90441394    0.00000000
     atom    8 type  3   force =    10.28193157   -0.00000000    0.00000000
     atom    9 type  3   force =    -5.14096578   -8.90441394   -0.00000000
     atom   10 type  3   force =    -5.14096578    8.90441394    0.00000000

     Total force =    25.185486     Total SCF correction =     0.000026


     Computing stress (Cartesian axis) and pressure

          total   stress  (Ry/bohr**3)                   (kbar)     P=26754.45
   0.25122884  -0.00000000   0.00000000      36957.03     -0.00      0.00
  -0.00000000   0.25122884   0.00000000         -0.00  36957.03      0.00
   0.00000000   0.00000000   0.04316166          0.00      0.00   6349.30


     number of scf cycles    =   3
     number of bfgs steps    =   2

     enthalpy old            =    -346.5949576250 Ry
     enthalpy new            =    -342.4152838003 Ry

     CASE: enthalpy_new > enthalpy_old

     new trust radius        =       0.2407624735 bohr
     new conv_thr            =       0.0000000100 Ry

     new unit-cell volume =    186.13132 a.u.^3 (    27.58182 Ang^3 )
     density =     12.05150 g/cm^3

CELL_PARAMETERS (alat=  5.05000000)
   0.639141755  -0.369008665   1.021316413
  -0.000000000   0.738017329   1.021316413
  -0.639141755  -0.369008665   1.021316413

ATOMIC_POSITIONS (crystal)
Ca       0.500000000   0.500000000   0.500000000
Ca       0.000000000   0.000000000   0.000000000
C        0.250000000   0.250000000   0.250000000
C        0.750000000   0.750000000   0.750000000
O        0.503305228   0.996694772   0.250000000
O        0.996694772   0.250000000   0.503305228
O        0.250000000   0.503305228   0.996694772
O        0.003305228   0.750000000   0.496694772
O        0.750000000   0.496694772   0.003305228
O        0.496694772   0.003305228   0.750000000



     Writing output data file CCO.save/
     NEW-OLD atomic charge density approx. for the potential

     Check: negative core charge=   -0.000003
     extrapolated charge   47.95241, renormalised to   64.00000

     total cpu time spent up to now is      512.4 secs

     Self-consistent Calculation

     iteration #  1     ecut=    50.00 Ry     beta= 0.70
     CG style diagonalization
     c_bands:  5 eigenvalues not converged
     c_bands:  4 eigenvalues not converged
     ethr =  1.00E-06,  avg # of iterations = 19.6

     total cpu time spent up to now is      534.9 secs

     total energy              =    -346.03080887 Ry
     Harris-Foulkes estimate   =    -339.17535700 Ry
     estimated scf accuracy    <       1.29858821 Ry

     iteration #  2     ecut=    50.00 Ry     beta= 0.70
     CG style diagonalization
     ethr =  2.03E-03,  avg # of iterations =  5.0

     total cpu time spent up to now is      540.8 secs

     total energy              =    -348.04019188 Ry
     Harris-Foulkes estimate   =    -349.01246042 Ry
     estimated scf accuracy    <       2.64793188 Ry

     iteration #  3     ecut=    50.00 Ry     beta= 0.70
     CG style diagonalization
     ethr =  2.03E-03,  avg # of iterations =  3.8

     total cpu time spent up to now is      545.3 secs

     total energy              =    -348.11341236 Ry
     Harris-Foulkes estimate   =    -348.27955622 Ry
     estimated scf accuracy    <       0.44566067 Ry

     iteration #  4     ecut=    50.00 Ry     beta= 0.70
     CG style diagonalization
     ethr =  6.96E-04,  avg # of iterations =  3.2

     total cpu time spent up to now is      549.1 secs

     total energy              =    -348.06265328 Ry
     Harris-Foulkes estimate   =    -348.15104855 Ry
     estimated scf accuracy    <       0.15333882 Ry

     iteration #  5     ecut=    50.00 Ry     beta= 0.70
     CG style diagonalization
     ethr =  2.40E-04,  avg # of iterations =  4.2

     total cpu time spent up to now is      554.1 secs

     total energy              =    -348.11719579 Ry
     Harris-Foulkes estimate   =    -348.12390388 Ry
     estimated scf accuracy    <       0.01027487 Ry

     iteration #  6     ecut=    50.00 Ry     beta= 0.70
     CG style diagonalization
     ethr =  1.61E-05,  avg # of iterations =  4.2

     total cpu time spent up to now is      559.0 secs

     total energy              =    -348.12342878 Ry
     Harris-Foulkes estimate   =    -348.12425307 Ry
     estimated scf accuracy    <       0.00137692 Ry

     iteration #  7     ecut=    50.00 Ry     beta= 0.70
     CG style diagonalization
     ethr =  2.15E-06,  avg # of iterations =  4.2

     total cpu time spent up to now is      563.9 secs

     total energy              =    -348.12397922 Ry
     Harris-Foulkes estimate   =    -348.12401327 Ry
     estimated scf accuracy    <       0.00005846 Ry

     iteration #  8     ecut=    50.00 Ry     beta= 0.70
     CG style diagonalization
     ethr =  9.13E-08,  avg # of iterations =  4.4

     total cpu time spent up to now is      569.1 secs

     total energy              =    -348.12401321 Ry
     Harris-Foulkes estimate   =    -348.12403370 Ry
     estimated scf accuracy    <       0.00004092 Ry

     iteration #  9     ecut=    50.00 Ry     beta= 0.70
     CG style diagonalization
     ethr =  6.39E-08,  avg # of iterations =  3.6

     total cpu time spent up to now is      573.4 secs

     total energy              =    -348.12401832 Ry
     Harris-Foulkes estimate   =    -348.12401896 Ry
     estimated scf accuracy    <       0.00000185 Ry

     iteration # 10     ecut=    50.00 Ry     beta= 0.70
     CG style diagonalization
     ethr =  2.89E-09,  avg # of iterations =  4.1

     total cpu time spent up to now is      578.2 secs

     total energy              =    -348.12401891 Ry
     Harris-Foulkes estimate   =    -348.12401910 Ry
     estimated scf accuracy    <       0.00000032 Ry

     iteration # 11     ecut=    50.00 Ry     beta= 0.70
     CG style diagonalization
     ethr =  4.98E-10,  avg # of iterations =  4.3

     total cpu time spent up to now is      583.4 secs

     total energy              =    -348.12401908 Ry
     Harris-Foulkes estimate   =    -348.12401909 Ry
     estimated scf accuracy    <       0.00000002 Ry

     iteration # 12     ecut=    50.00 Ry     beta= 0.70
     CG style diagonalization
     ethr =  3.53E-11,  avg # of iterations =  4.3

     total cpu time spent up to now is      588.4 secs

     End of self-consistent calculation

          k = 0.0000 0.0000 0.0000 (   537 PWs)   bands (ev):

    -7.9491   0.3625   4.9236   6.0420   6.0420   6.6500   7.7712   7.7712
     9.4688   9.4688  12.1195  13.5427  15.6905  19.6601  19.6601  19.8649
    19.8649  27.1482  28.5473  28.5473  29.0787  29.0787  32.9270  37.3853
    37.3853  38.1206  40.2180  40.2180  40.2271  41.2385  41.2385  43.0865

          k =-0.1956-0.1129 0.0816 (   543 PWs)   bands (ev):

    -7.0863  -1.1433   2.9383   4.4165   5.6284   6.9790   7.0795  10.0005
    10.2239  11.2191  14.1151  14.5469  16.6058  17.0901  18.2482  22.0337
    23.2210  24.6796  26.8504  28.5761  29.2362  31.2742  34.1826  35.2989
    35.9228  36.7601  38.1462  38.6868  39.3145  39.7643  41.6588  42.0283

          k = 0.3911 0.2258-0.1632 (   544 PWs)   bands (ev):

    -4.5859  -4.5859   2.8413   2.8413   5.8691   5.8691   9.1903   9.1903
    11.8242  11.8242  14.7143  14.7143  17.1055  17.1055  20.5513  20.5513
    25.9311  25.9311  27.2269  27.2269  30.1180  30.1180  33.1682  33.1682
    34.4866  34.4866  37.1335  37.1335  39.0415  39.0415  41.0936  41.0936

          k =-0.1956 0.1129 0.1632 (   560 PWs)   bands (ev):

    -6.8071  -0.8269   2.7860   3.3899   3.7629   5.8266   8.8791   9.5244
    11.2539  13.2469  14.2113  15.1711  17.1492  17.6185  18.0129  20.9511
    23.3000  24.8859  26.3384  28.4176  28.9796  31.6340  33.2854  34.6324
    35.0510  36.4545  38.7194  39.1172  39.6918  40.2497  40.8282  41.8977

          k = 0.3911 0.4517-0.0816 (   542 PWs)   bands (ev):

    -4.9622  -2.9711   0.7329   1.5821   5.6478   6.7468   7.7054  10.2885
    12.9585  14.0346  14.5469  15.8702  16.4080  17.6811  20.4334  21.4926
    23.7577  25.5024  26.6873  27.3921  29.5476  30.1614  32.3773  33.0659
    33.4696  35.5329  36.9397  37.9551  38.5292  39.7363  41.0484  42.1252

          k = 0.1956 0.3387 0.0000 (   548 PWs)   bands (ev):

    -5.7122  -2.4689   0.8900   2.4872   6.4149   6.7998   7.5392  10.5164
    12.8118  12.9497  13.7626  14.7837  16.4418  16.9481  19.6336  23.0150
    23.3215  24.8740  26.5317  28.6246  29.3638  31.8747  32.9916  33.3392
    34.2267  35.3882  36.6659  37.1875  38.5828  40.3173  40.4449  42.1486

          k = 0.3911-0.2258-0.3264 (   524 PWs)   bands (ev):

    -4.6090  -1.6879  -1.1027   2.6236   2.6267   4.9798  10.3695  10.8940
    13.8645  14.8219  14.8288  16.3961  17.9361  18.2727  20.3299  22.0847
    22.4263  24.3244  24.7213  26.4435  27.7885  31.1061  31.5539  33.4506
    35.9956  36.0090  37.0633  38.6077  38.8637  40.0843  40.0872  40.9046

          k =-0.0000 0.0000 0.2448 (   543 PWs)   bands (ev):

    -7.0414  -1.1481   3.9103   5.4091   5.5037   5.5037   6.9849   6.9849
    11.2966  11.2966  12.2995  17.5553  18.1246  18.1246  18.3847  22.8392
    22.8392  23.6641  27.9948  27.9948  28.7592  28.7592  34.6689  35.1695
    35.1695  37.5305  39.3058  39.3058  39.5280  40.2385  40.2385  41.9274

          k = 0.5867 0.3387 0.0000 (   548 PWs)   bands (ev):

    -5.6340  -2.4923   1.0064   3.2982   4.7165   7.0502   7.7945   9.9259
    11.3497  11.4473  14.5736  17.1927  17.3932  18.1040  20.9230  21.1029
    25.3303  25.5172  26.1811  27.5189  28.5291  29.4275  31.4668  33.8939
    35.1267  37.4637  37.8048  38.0053  38.8427  38.9972  40.2512  41.5216

          k = 0.3911 0.2258 0.0816 (   542 PWs)   bands (ev):

    -4.9993  -2.9142   0.7171   2.2734   3.4827   7.8809   8.9019  10.1245
    12.8459  13.6749  14.2539  15.8749  16.5537  17.2034  19.8609  22.6586
    24.0629  25.3357  25.4318  28.0747  29.3334  30.6664  32.8876  32.9690
    33.9684  35.1323  36.8543  37.8010  39.5080  40.0131  40.4526  40.5259

          k = 0.5867-0.3387-0.2448 (   542 PWs)   bands (ev):

    -4.9084  -2.8902   0.7988   2.4893   3.4360   7.8985   8.0119   8.7764
    11.7286  14.5558  15.1772  16.2319  17.1119  18.7831  21.4500  21.5963
    24.0689  25.4142  26.1507  27.6458  27.8628  29.6889  31.4428  33.3322
    34.6241  36.5557  38.5314  38.6935  39.1150  39.2731  39.6482  40.7473

          k = 0.3911-0.4517-0.1632 (   524 PWs)   bands (ev):

    -3.5183  -3.5183  -0.0634  -0.0634   6.9397   6.9397   8.2788   8.2788
    13.9226  13.9226  16.1985  16.1985  17.2296  17.2296  20.7305  20.7305
    25.2944  25.2944  27.4772  27.4772  28.4061  28.4061  32.5919  32.5919
    33.6674  33.6674  37.5216  37.5216  39.6603  39.6603  41.3432  41.3432

          k = 0.0000-0.0000-0.4896 (   544 PWs)   bands (ev):

    -4.4735  -4.4735   3.9203   3.9203   5.7066   5.7066   5.7066   5.7066
    15.0149  15.0149  15.0149  15.0149  15.9840  15.9840  22.3287  22.3287
    26.5365  26.5365  26.5365  26.5365  30.5427  30.5427  30.5427  30.5427
    35.9350  35.9350  38.6909  38.6909  39.0347  39.0347  39.0347  39.0347

     highest occupied level (ev):    43.0865

!    total energy              =    -348.12401909 Ry
     Harris-Foulkes estimate   =    -348.12401909 Ry
     estimated scf accuracy    <          7.0E-10 Ry

     The total energy is the sum of the following terms:

     one-electron contribution =     139.70067509 Ry
     hartree contribution      =      36.74017159 Ry
     xc contribution           =     -89.49510284 Ry
     ewald contribution        =    -435.06976293 Ry

     convergence has been achieved in  12 iterations

     Forces acting on atoms (cartesian axes, Ry/au):

     atom    1 type  1   force =     0.00000000    0.00000000    0.00000000
     atom    2 type  1   force =    -0.00000000    0.00000000    0.00000000
     atom    3 type  2   force =     0.00000000   -0.00000000    0.00000000
     atom    4 type  2   force =    -0.00000000    0.00000000   -0.00000000
     atom    5 type  3   force =     1.75277411   -3.03589382   -0.00000000
     atom    6 type  3   force =    -3.50554823    0.00000000   -0.00000000
     atom    7 type  3   force =     1.75277411    3.03589382    0.00000000
     atom    8 type  3   force =     3.50554823   -0.00000000    0.00000000
     atom    9 type  3   force =    -1.75277411   -3.03589382   -0.00000000
     atom   10 type  3   force =    -1.75277411    3.03589382    0.00000000

     Total force =     8.586804     Total SCF correction =     0.000034


     Computing stress (Cartesian axis) and pressure

          total   stress  (Ry/bohr**3)                   (kbar)     P=30861.12
   0.25945160  -0.00000000   0.00000000      38166.64     -0.00      0.00
  -0.00000000   0.25945160   0.00000000         -0.00  38166.64      0.00
   0.00000000   0.00000000   0.11046576          0.00      0.00  16250.07


     number of scf cycles    =   4
     number of bfgs steps    =   2

     enthalpy old            =    -346.5949576250 Ry
     enthalpy new            =    -348.1238925606 Ry

     CASE: enthalpy_new < enthalpy_old

     new trust radius        =       0.7678326098 bohr
     new conv_thr            =       0.0000000100 Ry

     new unit-cell volume =    264.69011 a.u.^3 (    39.22303 Ang^3 )
     density =      8.47467 g/cm^3

CELL_PARAMETERS (alat=  5.05000000)
   0.673307821  -0.388734451   1.308716667
   0.000000000   0.777468903   1.308716667
  -0.673307821  -0.388734451   1.308716667

ATOMIC_POSITIONS (crystal)
Ca       0.500000000   0.500000000   0.500000000
Ca      -0.000000000   0.000000000   0.000000000
C        0.250000000   0.250000000   0.250000000
C        0.750000000   0.750000000   0.750000000
O        0.528402949   0.971597051   0.250000000
O        0.971597051   0.250000000   0.528402949
O        0.250000000   0.528402949   0.971597051
O        0.028402949   0.750000000   0.471597051
O        0.750000000   0.471597051   0.028402949
O        0.471597051   0.028402949   0.750000000



     Writing output data file CCO.save/
     NEW-OLD atomic charge density approx. for the potential

     Check: negative core charge=   -0.000004
     extrapolated charge   82.99163, renormalised to   64.00000

     total cpu time spent up to now is      596.3 secs

     Self-consistent Calculation

     iteration #  1     ecut=    50.00 Ry     beta= 0.70
     CG style diagonalization
     c_bands:  5 eigenvalues not converged
     ethr =  1.00E-06,  avg # of iterations = 21.7

     total cpu time spent up to now is      620.7 secs

     total energy              =    -353.42967693 Ry
     Harris-Foulkes estimate   =    -361.61138377 Ry
     estimated scf accuracy    <       2.80458112 Ry

     iteration #  2     ecut=    50.00 Ry     beta= 0.70
     CG style diagonalization
     ethr =  4.38E-03,  avg # of iterations =  5.1

     total cpu time spent up to now is      626.8 secs

     total energy              =    -358.21888460 Ry
     Harris-Foulkes estimate   =    -360.13973373 Ry
     estimated scf accuracy    <       4.88164691 Ry

     iteration #  3     ecut=    50.00 Ry     beta= 0.70
     CG style diagonalization
     ethr =  4.38E-03,  avg # of iterations =  3.6

     total cpu time spent up to now is      631.1 secs

     total energy              =    -358.07258335 Ry
     Harris-Foulkes estimate   =    -358.55541997 Ry
     estimated scf accuracy    <       1.00790976 Ry

     iteration #  4     ecut=    50.00 Ry     beta= 0.70
     CG style diagonalization
     ethr =  1.57E-03,  avg # of iterations =  3.2

     total cpu time spent up to now is      634.9 secs

     total energy              =    -358.09591904 Ry
     Harris-Foulkes estimate   =    -358.15929870 Ry
     estimated scf accuracy    <       0.11222551 Ry

     iteration #  5     ecut=    50.00 Ry     beta= 0.70
     CG style diagonalization
     ethr =  1.75E-04,  avg # of iterations =  4.1

     total cpu time spent up to now is      639.7 secs

     total energy              =    -358.13230745 Ry
     Harris-Foulkes estimate   =    -358.13427096 Ry
     estimated scf accuracy    <       0.00451051 Ry

     iteration #  6     ecut=    50.00 Ry     beta= 0.70
     CG style diagonalization
     ethr =  7.05E-06,  avg # of iterations =  4.3

     total cpu time spent up to now is      644.7 secs

     total energy              =    -358.13566675 Ry
     Harris-Foulkes estimate   =    -358.13576643 Ry
     estimated scf accuracy    <       0.00034168 Ry

     iteration #  7     ecut=    50.00 Ry     beta= 0.70
     CG style diagonalization
     ethr =  5.34E-07,  avg # of iterations =  4.5

     total cpu time spent up to now is      650.0 secs

     total energy              =    -358.13552777 Ry
     Harris-Foulkes estimate   =    -358.13602391 Ry
     estimated scf accuracy    <       0.00080941 Ry

     iteration #  8     ecut=    50.00 Ry     beta= 0.70
     CG style diagonalization
     ethr =  5.34E-07,  avg # of iterations =  4.1

     total cpu time spent up to now is      654.9 secs

     total energy              =    -358.13569474 Ry
     Harris-Foulkes estimate   =    -358.13571273 Ry
     estimated scf accuracy    <       0.00003347 Ry

     iteration #  9     ecut=    50.00 Ry     beta= 0.70
     CG style diagonalization
     c_bands:  1 eigenvalues not converged
     ethr =  5.23E-08,  avg # of iterations =  3.9

     total cpu time spent up to now is      659.5 secs

     total energy              =    -358.15844978 Ry
     Harris-Foulkes estimate   =    -358.15844923 Ry
     estimated scf accuracy    <       0.00027560 Ry

     iteration # 10     ecut=    50.00 Ry     beta= 0.70
     CG style diagonalization
     ethr =  5.23E-08,  avg # of iterations =  3.0

     total cpu time spent up to now is      663.1 secs

     total energy              =    -358.15839209 Ry
     Harris-Foulkes estimate   =    -358.15845034 Ry
     estimated scf accuracy    <       0.00027406 Ry

     iteration # 11     ecut=    50.00 Ry     beta= 0.70
     CG style diagonalization
     ethr =  5.23E-08,  avg # of iterations =  3.6

     total cpu time spent up to now is      667.4 secs

     total energy              =    -358.15836450 Ry
     Harris-Foulkes estimate   =    -358.15839753 Ry
     estimated scf accuracy    <       0.00012819 Ry

     iteration # 12     ecut=    50.00 Ry     beta= 0.70
     CG style diagonalization
     ethr =  5.23E-08,  avg # of iterations =  3.6

     total cpu time spent up to now is      671.7 secs

     total energy              =    -358.15835838 Ry
     Harris-Foulkes estimate   =    -358.15836914 Ry
     estimated scf accuracy    <       0.00003885 Ry

     iteration # 13     ecut=    50.00 Ry     beta= 0.70
     CG style diagonalization
     ethr =  5.23E-08,  avg # of iterations =  3.3

     total cpu time spent up to now is      675.6 secs

     total energy              =    -358.15836014 Ry
     Harris-Foulkes estimate   =    -358.15836132 Ry
     estimated scf accuracy    <       0.00000819 Ry

     iteration # 14     ecut=    50.00 Ry     beta= 0.70
     CG style diagonalization
     ethr =  1.28E-08,  avg # of iterations =  3.2

     total cpu time spent up to now is      679.4 secs

     total energy              =    -358.15836062 Ry
     Harris-Foulkes estimate   =    -358.15836070 Ry
     estimated scf accuracy    <       0.00000108 Ry

     iteration # 15     ecut=    50.00 Ry     beta= 0.70
     CG style diagonalization
     ethr =  1.68E-09,  avg # of iterations =  3.6

     total cpu time spent up to now is      683.6 secs

     total energy              =    -358.15836072 Ry
     Harris-Foulkes estimate   =    -358.15836079 Ry
     estimated scf accuracy    <       0.00000166 Ry

     iteration # 16     ecut=    50.00 Ry     beta= 0.70
     CG style diagonalization
     ethr =  1.68E-09,  avg # of iterations =  3.1

     total cpu time spent up to now is      687.4 secs

     total energy              =    -358.15836058 Ry
     Harris-Foulkes estimate   =    -358.15836080 Ry
     estimated scf accuracy    <       0.00000091 Ry

     iteration # 17     ecut=    50.00 Ry     beta= 0.70
     CG style diagonalization
     ethr =  1.41E-09,  avg # of iterations =  3.0

     total cpu time spent up to now is      691.0 secs

     total energy              =    -358.15836047 Ry
     Harris-Foulkes estimate   =    -358.15836061 Ry
     estimated scf accuracy    <       0.00000029 Ry

     iteration # 18     ecut=    50.00 Ry     beta= 0.70
     CG style diagonalization
     ethr =  4.51E-10,  avg # of iterations =  3.9

     total cpu time spent up to now is      695.6 secs

     total energy              =    -358.15836054 Ry
     Harris-Foulkes estimate   =    -358.15836055 Ry
     estimated scf accuracy    <       0.00000001 Ry

     iteration # 19     ecut=    50.00 Ry     beta= 0.70
     CG style diagonalization
     ethr =  2.31E-11,  avg # of iterations =  4.0

[...]

     Final enthalpy =    -363.2874201869 Ry
Begin final coordinates
     new unit-cell volume =    402.72096 a.u.^3 (    59.67709 Ang^3 )
     density =      5.57002 g/cm^3

CELL_PARAMETERS (alat=  5.05000000)
   0.850202345  -0.490864553   1.248805721
   0.000000000   0.981729106   1.248805721
  -0.850202345  -0.490864553   1.248805721

ATOMIC_POSITIONS (crystal)
Ca       0.500000000   0.500000000   0.500000000
Ca      -0.000000000   0.000000000   0.000000000
C        0.250000000   0.250000000   0.250000000
C        0.750000000   0.750000000   0.750000000
O        0.509906836   0.990093164   0.250000000
O        0.990093164   0.250000000   0.509906836
O        0.250000000   0.509906836   0.990093164
O        0.009906836   0.750000000   0.490093164
O        0.750000000   0.490093164   0.009906836
O        0.490093164   0.009906836   0.750000000
End final coordinates



     Writing output data file CCO.save/

     A final scf calculation at the relaxed structure.
     The G-vectors are recalculated for the final unit cell
     Results may differ from those at the preceding step.
 
     G-vector sticks info
     --------------------
     sticks:   dense  smooth     PW     G-vecs:    dense   smooth      PW
     Sum        2777     925    271                99985    19247    3183
 


     bravais-lattice index     =            5
     lattice parameter (alat)  =       5.0500  a.u.
     unit-cell volume          =     402.7210 (a.u.)^3
     number of atoms/cell      =           10
     number of atomic types    =            3
     number of electrons       =        64.00
     number of Kohn-Sham states=           32
     kinetic-energy cutoff     =      50.0000  Ry
     charge density cutoff     =     600.0000  Ry
     convergence threshold     =      1.0E-10
     mixing beta               =       0.7000
     number of iterations used =            8  plain     mixing
     Exchange-correlation      = SLA  PW   PBE  PBE ( 1  4  3  4 0 0)

     celldm(1)=   5.050000  celldm(2)=   0.000000  celldm(3)=   0.000000
     celldm(4)=   0.500000  celldm(5)=   0.000000  celldm(6)=   0.000000

     crystal axes: (cart. coord. in units of alat)
               a(1) = (   0.850202  -0.490865   1.248806 )  
               a(2) = (   0.000000   0.981729   1.248806 )  
               a(3) = (  -0.850202  -0.490865   1.248806 )  

     reciprocal axes: (cart. coord. in units 2 pi/alat)
               b(1) = (  0.588095 -0.339537  0.266922 )  
               b(2) = ( -0.000000  0.679074  0.266922 )  
               b(3) = ( -0.588095 -0.339537  0.266922 )  


     PseudoPot. # 1 for Ca read from file:
     ./Ca_PBE.UPF
     MD5 check sum: 403a4c14b9e4d4dfdc3024c9a3812218
     Pseudo is Ultrasoft + core correction, Zval = 10.0
     Generated by new atomic code, or converted to UPF format
     Using radial grid of  845 points,  6 beta functions with: 
                l(1) =   0
                l(2) =   0
                l(3) =   1
                l(4) =   1
                l(5) =   2
                l(6) =   2
     Q(r) pseudized with  8 coefficients,  rinner =    1.500   1.500   1.500
                                                       1.500   1.500

     PseudoPot. # 2 for C  read from file:
     ./C_PBE.UPF
     MD5 check sum: d1aef80898a10debaa0f26306b886e00
     Pseudo is Ultrasoft + core correction, Zval =  4.0
     Generated by new atomic code, or converted to UPF format
     Using radial grid of  721 points,  4 beta functions with: 
                l(1) =   0
                l(2) =   0
                l(3) =   1
                l(4) =   1
     Q(r) pseudized with  8 coefficients,  rinner =    1.100   1.100   1.100


     PseudoPot. # 3 for O  read from file:
     ./O_PBE.UPF
     MD5 check sum: 734c27235a0248c51dbae37a1fbe46ec
     Pseudo is Ultrasoft + core correction, Zval =  6.0
     Generated by new atomic code, or converted to UPF format
     Using radial grid of  737 points,  5 beta functions with: 
                l(1) =   0
                l(2) =   0
                l(3) =   1
                l(4) =   1
                l(5) =   2
     Q(r) pseudized with  8 coefficients,  rinner =    0.900   0.900   0.900
                                                       0.900   0.900

     atomic species   valence    mass     pseudopotential
        Ca            10.00    40.07800     Ca( 1.00)
        C              4.00    12.01070     C ( 1.00)
        O              6.00    16.00000     O ( 1.00)

     12 Sym. Ops., with inversion, found ( 6 have fractional translation)



   Cartesian axes

     site n.     atom                  positions (alat units)
         1           Ca  tau(   1) = (   0.0000000  -0.0000000   1.8732086  )
         2           Ca  tau(   2) = (  -0.0000000   0.0000000  -0.0000000  )
         3           C   tau(   3) = (   0.0000000  -0.0000000   0.9366043  )
         4           C   tau(   4) = (   0.0000000  -0.0000000   2.8098129  )
         5           O   tau(   5) = (   0.2209734   0.5989919   2.1854100  )
         6           O   tau(   6) = (   0.4082555  -0.4908646   2.1854100  )
         7           O   tau(   7) = (  -0.6292289  -0.1081274   2.1854100  )
         8           O   tau(   8) = (  -0.4082555   0.4908646   1.5610072  )
         9           O   tau(   9) = (   0.6292289   0.1081274   1.5610072  )
        10           O   tau(  10) = (  -0.2209734  -0.5989919   1.5610072  )

     number of k points=    13
                       cart. coord. in units 2pi/alat
        k(    1) = (   0.0000000   0.0000000   0.0000000), wk =   0.0312500
        k(    2) = (  -0.1470238  -0.0848842   0.0667304), wk =   0.1875000
        k(    3) = (   0.2940476   0.1697685  -0.1334608), wk =   0.0937500
        k(    4) = (  -0.1470238   0.0848842   0.1334608), wk =   0.1875000
        k(    5) = (   0.2940476   0.3395370  -0.0667304), wk =   0.3750000
        k(    6) = (   0.1470238   0.2546527   0.0000000), wk =   0.1875000
        k(    7) = (   0.2940476  -0.1697685  -0.2669217), wk =   0.0937500
        k(    8) = (   0.0000000  -0.0000000   0.2001913), wk =   0.0625000
        k(    9) = (   0.4410715   0.2546527   0.0000000), wk =   0.1875000
        k(   10) = (   0.2940476   0.1697685   0.0667304), wk =   0.1875000
        k(   11) = (   0.4410715  -0.2546527  -0.2001913), wk =   0.1875000
        k(   12) = (   0.2940476  -0.3395370  -0.1334608), wk =   0.1875000
        k(   13) = (  -0.0000000   0.0000000  -0.4003825), wk =   0.0312500

     Dense  grid:    99985 G-vectors     FFT dimensions: (  64,  64,  64)

     Smooth grid:    19247 G-vectors     FFT dimensions: (  40,  40,  40)

     Estimated max dynamical RAM per process >     423.55 MB

     Check: negative core charge=   -0.000004

     Initial potential from superposition of free atoms

     starting charge   63.98899, renormalised to   64.00000
     Starting wfcs are   52 randomized atomic wfcs

     total cpu time spent up to now is     1220.7 secs

     Self-consistent Calculation

     iteration #  1     ecut=    50.00 Ry     beta= 0.70
     CG style diagonalization
     c_bands:  3 eigenvalues not converged
     c_bands:  3 eigenvalues not converged
     c_bands:  5 eigenvalues not converged
     c_bands:  3 eigenvalues not converged
     c_bands:  3 eigenvalues not converged
     c_bands:  4 eigenvalues not converged
     c_bands:  2 eigenvalues not converged
     c_bands:  3 eigenvalues not converged
     ethr =  1.00E-06,  avg # of iterations = 14.6

     total cpu time spent up to now is     1277.5 secs

     total energy              =    -364.84798512 Ry
     Harris-Foulkes estimate   =    -366.12122443 Ry
     estimated scf accuracy    <       1.88400929 Ry

     iteration #  2     ecut=    50.00 Ry     beta= 0.70
     CG style diagonalization
     ethr =  2.94E-03,  avg # of iterations =  4.1

     total cpu time spent up to now is     1294.5 secs

     total energy              =    -365.28399938 Ry
     Harris-Foulkes estimate   =    -365.73757632 Ry
     estimated scf accuracy    <       0.81841267 Ry

     iteration #  3     ecut=    50.00 Ry     beta= 0.70
     CG style diagonalization
     ethr =  1.28E-03,  avg # of iterations =  3.8

     total cpu time spent up to now is     1310.1 secs

     total energy              =    -365.47548511 Ry
     Harris-Foulkes estimate   =    -365.48111431 Ry
     estimated scf accuracy    <       0.01457606 Ry

     iteration #  4     ecut=    50.00 Ry     beta= 0.70
     CG style diagonalization
     ethr =  2.28E-05,  avg # of iterations =  4.1

     total cpu time spent up to now is     1326.8 secs

     total energy              =    -365.48546920 Ry
     Harris-Foulkes estimate   =    -365.48627989 Ry
     estimated scf accuracy    <       0.00191603 Ry

     iteration #  5     ecut=    50.00 Ry     beta= 0.70
     CG style diagonalization
     ethr =  2.99E-06,  avg # of iterations =  3.8

     total cpu time spent up to now is     1342.4 secs

     total energy              =    -365.48595928 Ry
     Harris-Foulkes estimate   =    -365.48597221 Ry
     estimated scf accuracy    <       0.00011119 Ry

     iteration #  6     ecut=    50.00 Ry     beta= 0.70
     CG style diagonalization
     ethr =  1.74E-07,  avg # of iterations =  4.1

     total cpu time spent up to now is     1359.2 secs

     total energy              =    -365.48599436 Ry
     Harris-Foulkes estimate   =    -365.48599713 Ry
     estimated scf accuracy    <       0.00000644 Ry

     iteration #  7     ecut=    50.00 Ry     beta= 0.70
     CG style diagonalization
     ethr =  1.01E-08,  avg # of iterations =  4.2

     total cpu time spent up to now is     1376.4 secs

     total energy              =    -365.48599737 Ry
     Harris-Foulkes estimate   =    -365.48599740 Ry
     estimated scf accuracy    <       0.00000016 Ry

     iteration #  8     ecut=    50.00 Ry     beta= 0.70
     CG style diagonalization
     ethr =  2.50E-10,  avg # of iterations =  4.6

     total cpu time spent up to now is     1394.8 secs

     total energy              =    -365.48599755 Ry
     Harris-Foulkes estimate   =    -365.48599755 Ry
     estimated scf accuracy    <          9.1E-09 Ry

     iteration #  9     ecut=    50.00 Ry     beta= 0.70
     CG style diagonalization
     ethr =  1.42E-11,  avg # of iterations =  4.3

     total cpu time spent up to now is     1412.2 secs

     total energy              =    -365.48599755 Ry
     Harris-Foulkes estimate   =    -365.48599755 Ry
     estimated scf accuracy    <          8.0E-10 Ry

     iteration # 10     ecut=    50.00 Ry     beta= 0.70
     CG style diagonalization
     ethr =  1.24E-12,  avg # of iterations =  4.2

     total cpu time spent up to now is     1429.3 secs

     End of self-consistent calculation

          k = 0.0000 0.0000 0.0000 (  2403 PWs)   bands (ev):

   -20.7988 -20.1772  -9.5854  -7.8561  -5.9701  -5.9701  -5.8603  -5.8603
    -2.8797  -2.8797  -2.8494  -1.9497  -0.3098  -0.3098   4.8358   6.7713
     6.7713   7.4090   8.7414   9.8649   9.8649  10.0804  10.6322  10.6322
    12.1935  12.1935  14.2453  14.2453  14.5680  16.1435  16.1435  16.6083

          k =-0.1470-0.0849 0.0667 (  2388 PWs)   bands (ev):

   -20.6943 -20.2544  -9.7227  -8.4881  -6.1807  -6.1210  -5.7197  -5.2038
    -2.8427  -2.3529  -1.9548  -1.7445  -1.2802  -0.5441   5.4867   6.8679
     7.0735   7.7065   8.1398   8.6207   9.0604  10.1327  11.0852  11.4048
    12.7768  13.1996  13.3808  13.7728  14.9296  15.1434  16.0744  16.1107

          k = 0.2940 0.1698-0.1335 (  2392 PWs)   bands (ev):

   -20.4604 -20.4604  -9.4842  -9.4842  -6.0098  -6.0098  -5.2819  -5.2819
    -2.5150  -2.5150  -1.4832  -1.4832  -1.1664  -1.1664   6.3661   6.3661
     7.3581   7.3581   8.5729   8.5729   9.0202   9.0202  11.8037  11.8037
    12.6761  12.6761  13.7873  13.7873  14.3428  14.3428  15.9964  15.9964

          k =-0.1470 0.0849 0.1335 (  2403 PWs)   bands (ev):

   -20.6713 -20.2591  -9.8318  -8.3430  -6.9540  -6.0124  -5.5470  -5.0757
    -2.5496  -2.1381  -1.9824  -1.6875  -1.0648  -0.8888   5.9032   6.7886
     7.2573   7.6381   8.1213   8.4545   9.1401   9.8176  11.3187  11.6489
    12.7228  13.1459  13.5228  13.5318  14.6212  15.4550  15.5005  15.9548

          k = 0.2940 0.3395-0.0667 (  2402 PWs)   bands (ev):

   -20.5205 -20.3779  -9.8259  -9.2378  -6.3075  -6.1169  -5.6226  -4.7824
    -2.2093  -2.1095  -1.8523  -1.5037  -1.0844  -0.9980   6.2683   6.5981
     6.8408   7.0514   8.6117   9.0342   9.3148  10.0735  10.9912  11.4880
    12.4596  12.6904  13.2085  13.9008  14.4677  14.8550  15.5750  15.9947

          k = 0.1470 0.2547 0.0000 (  2398 PWs)   bands (ev):

   -20.5629 -20.3540  -9.7798  -9.1477  -6.3899  -5.7181  -5.5121  -5.1070
    -2.3435  -2.0509  -1.9576  -1.6260  -1.0712  -1.0659   5.8347   6.4506
     7.1844   7.2997   7.9500   9.1230   9.4426   9.9385  10.9881  11.8232
    12.3550  12.8400  13.4869  13.8037  14.8082  14.8400  15.5411  16.1312

          k = 0.2940-0.1698-0.2669 (  2414 PWs)   bands (ev):

   -20.5372 -20.3388 -10.1272  -8.6974  -7.4870  -6.0745  -5.3266  -4.1506
    -2.2255  -1.9896  -1.7956  -1.7925  -1.1135  -0.6582   5.9502   6.7125
     7.0583   7.3706   8.4238   8.5596   9.2954  10.4935  11.5363  11.7322
    12.0895  12.4201  13.2874  13.8876  14.1118  14.5258  15.7380  15.8419

          k = 0.0000-0.0000 0.2002 (  2399 PWs)   bands (ev):

   -20.6855 -20.2475  -9.5964  -8.3627  -6.2245  -6.2245  -5.8883  -5.8883
    -2.6080  -2.3542  -2.3542  -1.6228  -0.5254  -0.5254   5.9525   6.5958
     7.4933   7.4933   8.6064   9.4525   9.4525  10.2492  10.9119  10.9119
    12.1167  12.1167  14.1013  14.1013  14.6997  15.2145  15.2145  16.0751

          k = 0.4411 0.2547 0.0000 (  2412 PWs)   bands (ev):

   -20.5532 -20.3479  -9.5980  -9.1290  -6.6181  -6.3612  -5.2451  -5.1744
    -2.6328  -2.3200  -1.8292  -1.3590  -1.0920  -0.5043   6.1990   6.6825
     7.5567   7.8680   8.3245   8.4542   9.7124   9.7243  11.0623  11.8697
    12.2023  12.6433  13.4921  13.9907  14.0768  14.9026  15.2336  15.6302

          k = 0.2940 0.1698 0.0667 (  2411 PWs)   bands (ev):

   -20.5219 -20.3765  -9.8732  -9.0796  -7.0854  -5.5803  -5.3620  -4.7409
    -2.2578  -2.1778  -1.8170  -1.6376  -1.1571  -0.9187   5.9783   6.5667
     7.3667   7.8579   8.0774   8.3991   9.0280   9.8274  11.1721  12.1459
    12.4727  12.9255  13.6729  13.7944  14.3096  14.9450  15.1344  15.6719

          k = 0.4411-0.2547-0.2002 (  2407 PWs)   bands (ev):

   -20.5127 -20.3698  -9.7426  -9.0143  -7.1307  -6.1284  -5.5548  -4.8862
    -2.5320  -1.7958  -1.6576  -1.3535  -1.1499  -0.7997   6.3223   6.6236
     7.2873   8.2619   8.7205   8.7477   8.9646   9.6773  11.7476  11.9623
    12.0878  12.8365  12.9545  13.8050  14.0000  14.6280  15.2664  15.4044

          k = 0.2940-0.3395-0.1335 (  2408 PWs)   bands (ev):

   -20.4398 -20.4398  -9.6157  -9.6157  -6.4060  -6.4060  -5.0439  -5.0439
    -1.9918  -1.9918  -1.6332  -1.6332  -1.0805  -1.0805   6.3779   6.3779
     7.2167   7.2167   8.7401   8.7401   9.7572   9.7572  11.2001  11.2001
    12.4424  12.4424  13.8311  13.8311  14.4159  14.4159  15.5091  15.5091

          k =-0.0000 0.0000-0.4004 (  2426 PWs)   bands (ev):

   -20.4445 -20.4445  -9.2373  -9.2373  -6.1960  -6.1960  -6.1960  -6.1960
    -1.7868  -1.7868  -1.2780  -1.2780  -1.2780  -1.2780   6.2006   6.2006
     8.6558   8.6558   8.6558   8.6558   9.7832   9.7832  11.6803  11.6803
    11.6803  11.6803  14.0445  14.0445  14.0445  14.0445  15.1312  15.1312

     highest occupied level (ev):    16.6083

!    total energy              =    -365.48599755 Ry
     Harris-Foulkes estimate   =    -365.48599755 Ry
     estimated scf accuracy    <          5.9E-11 Ry

     The total energy is the sum of the following terms:

     one-electron contribution =      -1.32608917 Ry
     hartree contribution      =      57.26783146 Ry
     xc contribution           =     -79.08827961 Ry
     ewald contribution        =    -342.33946023 Ry

     convergence has been achieved in  10 iterations

     Forces acting on atoms (cartesian axes, Ry/au):

     atom    1 type  1   force =    -0.00000000   -0.00000000    0.00000000
     atom    2 type  1   force =    -0.00000000    0.00000000   -0.00000000
     atom    3 type  2   force =    -0.00000000    0.00000000   -0.00000000
     atom    4 type  2   force =     0.00000000    0.00000000   -0.00000000
     atom    5 type  3   force =     0.03407874   -0.05902611   -0.00000000
     atom    6 type  3   force =    -0.06815748   -0.00000000    0.00000000
     atom    7 type  3   force =     0.03407874    0.05902611    0.00000000
     atom    8 type  3   force =     0.06815748    0.00000000   -0.00000000
     atom    9 type  3   force =    -0.03407874   -0.05902611   -0.00000000
     atom   10 type  3   force =    -0.03407874    0.05902611    0.00000000

     Total force =     0.166951     Total SCF correction =     0.000012


     Computing stress (Cartesian axis) and pressure

          total   stress  (Ry/bohr**3)                   (kbar)     P= 2673.42
   0.02043483  -0.00000000   0.00000000       3006.07     -0.00      0.00
  -0.00000000   0.02043483   0.00000000         -0.00   3006.07      0.00
   0.00000000   0.00000000   0.01365088          0.00      0.00   2008.11


     Writing output data file CCO.save/
 
     init_run     :     14.53s CPU     16.28s WALL (       2 calls)
     electrons    :   1216.48s CPU   1305.16s WALL (      15 calls)
     update_pot   :     27.32s CPU     27.37s WALL (      13 calls)
     forces       :     26.41s CPU     27.09s WALL (      15 calls)
     stress       :     56.81s CPU     58.29s WALL (      15 calls)

     Called by init_run:
     wfcinit      :      4.87s CPU      5.42s WALL (       2 calls)
     potinit      :      1.09s CPU      1.21s WALL (       2 calls)
     hinit0       :      7.69s CPU      8.31s WALL (       2 calls)

     Called by electrons:
     c_bands      :   1056.64s CPU   1131.12s WALL (     204 calls)
     sum_band     :    104.04s CPU    111.36s WALL (     204 calls)
     v_of_rho     :     23.75s CPU     23.99s WALL (     216 calls)
     newd         :     33.86s CPU     40.49s WALL (     216 calls)
     mix_rho      :      1.26s CPU      1.31s WALL (     204 calls)

     Called by c_bands:
     init_us_2    :      6.75s CPU      7.54s WALL (    5720 calls)
     ccgdiagg     :    926.98s CPU    993.76s WALL (    2723 calls)
     wfcrot       :    129.70s CPU    132.89s WALL (    2515 calls)

     Called by sum_band:
     sum_band:bec :      0.47s CPU      0.49s WALL (    2652 calls)
     addusdens    :     36.86s CPU     42.86s WALL (     204 calls)

     Called by *cgdiagg:
     h_psi        :    764.17s CPU    802.39s WALL (  325575 calls)
     s_psi        :    135.66s CPU    155.92s WALL (  648635 calls)
     cdiaghg      :      2.70s CPU      3.03s WALL (    2515 calls)

     Called by h_psi:
     h_psi:pot    :    754.35s CPU    790.90s WALL (  325575 calls)
     h_psi:calbec :     76.69s CPU     80.26s WALL (  325575 calls)
     vloc_psi     :    591.35s CPU    619.90s WALL (  325575 calls)
     add_vuspsi   :     71.63s CPU     79.53s WALL (  325575 calls)
     hs_1psi      :    737.72s CPU    781.06s WALL (  323060 calls)
     s_1psi       :    150.71s CPU    168.00s WALL (  323060 calls)

     General routines
     calbec       :    129.41s CPU    146.58s WALL (  652262 calls)
     fft          :      7.51s CPU      7.93s WALL (    3169 calls)
     ffts         :      0.29s CPU      0.31s WALL (     420 calls)
     fftw         :    586.16s CPU    612.80s WALL (  892984 calls)
     interpolate  :      0.76s CPU      0.78s WALL (     216 calls)
 
     Parallel routines
 
     PWSCF        :  22m24.37s CPU  24m 0.33s WALL

 
   This run was terminated on:  13:43:49  16Apr2022            

=------------------------------------------------------------------------------=
   JOB DONE.
=------------------------------------------------------------------------------=
