MPI startup(): PMI server not found. Please set I_MPI_PMI_LIBRARY variable if it is not a singleton case.
[0] MPI startup(): I_MPI_JOB_FAST_STARTUP variable has been removed from the product, its value is ignored

[0] MPI startup(): I_MPI_OFI_LIBRARY variable has been removed from the product, its value is ignored


     Program PHONON v.7.0 starts on  4May2022 at  6:42:13 

     This program is part of the open-source Quantum ESPRESSO suite
     for quantum simulation of materials; please cite
         "P. Giannozzi et al., J. Phys.:Condens. Matter 21 395502 (2009);
         "P. Giannozzi et al., J. Phys.:Condens. Matter 29 465901 (2017);
         "P. Giannozzi et al., J. Chem. Phys. 152 154105 (2020);
          URL http://www.quantum-espresso.org", 
     in publications or presentations arising from this work. More details at
     http://www.quantum-espresso.org/quote

     Parallel version (MPI), running on     1 processors

     MPI processes distributed on     1 nodes
     91492 MiB available memory on the printing compute node when the environment starts
 
     Waiting for input...
     Reading input from standard input

     Reading xml data from directory:

     ./CCO_rand1.save/

     IMPORTANT: XC functional enforced from input :
     Exchange-correlation= PBE
                           (   1   4   3   4   0   0   0)
     Any further DFT definition will be discarded
     Please, verify this is what you really want

 
     G-vector sticks info
     --------------------
     sticks:   dense  smooth     PW     G-vecs:    dense   smooth      PW
     Sum        2289    2289    663                67553    67553   10437
 
     Using Slab Decomposition
 

     Check: negative core charge=   -0.000003
     Reading collected, re-writing distributed wavefunctions

     Calculation of q =    0.0000000   0.0000000   0.0000000

     Phonons of CaCO3                                                           

     bravais-lattice index     =            5
     lattice parameter (alat)  =      11.3568  a.u.
     unit-cell volume          =     852.5943 (a.u.)^3
     number of atoms/cell      =           10
     number of atomic types    =            3
     kinetic-energy cut-off    =      70.0000  Ry
     charge density cut-off    =     280.0000  Ry
     convergence threshold     =      1.0E-16
     beta                      =       0.7000
     number of iterations used =            4
     Exchange-correlation= PBE
                           (   1   4   3   4   0   0   0)


     celldm(1)=   11.35680  celldm(2)=    0.00000  celldm(3)=    0.00000
     celldm(4)=    0.60920  celldm(5)=    0.00000  celldm(6)=    0.00000

     crystal axes: (cart. coord. in units of alat)
               a(1) = (  0.4420 -0.2552  0.8599 )  
               a(2) = (  0.0000  0.5104  0.8599 )  
               a(3) = ( -0.4420 -0.2552  0.8599 )  

     reciprocal axes: (cart. coord. in units 2 pi/alat)
               b(1) = (  1.1311 -0.6531  0.3876 )  
               b(2) = (  0.0000  1.3061  0.3876 )  
               b(3) = ( -1.1311 -0.6531  0.3876 )  


     Atoms inside the unit cell: 

     Cartesian axes

     site n.  atom      mass           positions (alat units)
        1     Ca  40.0780   tau(    1) = (    0.00000   -0.00000    1.28988  )
        2     Ca  40.0780   tau(    2) = (    0.00000    0.00000    0.00000  )
        3     C   12.0107   tau(    3) = (    0.00000   -0.00000    0.64494  )
        4     C   12.0107   tau(    4) = (    0.00000   -0.00000    1.93483  )
        5     O   15.9990   tau(    5) = (    0.10822    0.32299    1.50486  )
        6     O   15.9990   tau(    6) = (    0.22561   -0.25521    1.50486  )
        7     O   15.9990   tau(    7) = (   -0.33383   -0.06778    1.50486  )
        8     O   15.9990   tau(    8) = (   -0.22561    0.25521    1.07490  )
        9     O   15.9990   tau(    9) = (    0.33383    0.06778    1.07490  )
       10     O   15.9990   tau(   10) = (   -0.10822   -0.32299    1.07490  )

     Computing dynamical matrix for 
                    q = (   0.0000000   0.0000000   0.0000000 )
 
     13 Sym.Ops. (with q -> -q+G )


     G cutoff =  914.7665  (  67553 G-vectors)     FFT grid: ( 64, 64, 64)
     number of k points=    44
                       cart. coord. in units 2pi/alat
        k(    1) = (   0.0000000   0.0000000   0.0000000), wk =   0.0058309
        k(    2) = (  -0.1615882  -0.0932930   0.0553760), wk =   0.0349854
        k(    3) = (  -0.3231764  -0.1865860   0.1107520), wk =   0.0349854
        k(    4) = (  -0.4847646  -0.2798790   0.1661279), wk =   0.0349854
        k(    5) = (  -0.1615882   0.0932930   0.1107520), wk =   0.0349854
        k(    6) = (  -0.3231764  -0.0000000   0.1661279), wk =   0.0699708
        k(    7) = (  -0.4847646  -0.0932930   0.2215039), wk =   0.0699708
        k(    8) = (   0.4847646   0.4664650  -0.1107520), wk =   0.0699708
        k(    9) = (   0.3231764   0.3731720  -0.0553760), wk =   0.0699708
        k(   10) = (   0.1615882   0.2798790   0.0000000), wk =   0.0349854
        k(   11) = (  -0.3231764   0.1865860   0.2215039), wk =   0.0349854
        k(   12) = (  -0.4847646   0.0932930   0.2768799), wk =   0.0699708
        k(   13) = (   0.4847646   0.6530510  -0.0553760), wk =   0.0699708
        k(   14) = (   0.3231764   0.5597580   0.0000000), wk =   0.0349854
        k(   15) = (  -0.4847646   0.2798790   0.3322559), wk =   0.0349854
        k(   16) = (   0.4847646   0.8396370   0.0000000), wk =   0.0349854
        k(   17) = (   0.0000000  -0.0000000   0.1661279), wk =   0.0116618
        k(   18) = (  -0.1615882  -0.0932930   0.2215039), wk =   0.0349854
        k(   19) = (  -0.3231764  -0.1865860   0.2768799), wk =   0.0349854
        k(   20) = (   0.6463529   0.3731720  -0.0553760), wk =   0.0349854
        k(   21) = (   0.4847646   0.2798790   0.0000000), wk =   0.0349854
        k(   22) = (   0.3231764   0.1865860   0.0553760), wk =   0.0349854
        k(   23) = (  -0.1615882   0.0932930   0.2768799), wk =   0.0349854
        k(   24) = (  -0.3231764  -0.0000000   0.3322559), wk =   0.0699708
        k(   25) = (   0.6463529   0.5597580   0.0000000), wk =   0.0699708
        k(   26) = (   0.4847646   0.4664650   0.0553760), wk =   0.0699708
        k(   27) = (   0.3231764   0.3731720   0.1107520), wk =   0.0699708
        k(   28) = (  -0.3231764   0.1865860   0.3876318), wk =   0.0349854
        k(   29) = (   0.6463529   0.7463440   0.0553760), wk =   0.0699708
        k(   30) = (   0.4847646   0.6530510   0.1107520), wk =   0.0699708
        k(   31) = (   0.3231764   0.5597580   0.1661279), wk =   0.0699708
        k(   32) = (   0.6463529  -0.3731720  -0.2768799), wk =   0.0349854
        k(   33) = (   0.4847646  -0.4664650  -0.2215039), wk =   0.0699708
        k(   34) = (   0.4847646  -0.2798790  -0.1661279), wk =   0.0349854
        k(   35) = (   0.0000000  -0.0000000   0.3322559), wk =   0.0116618
        k(   36) = (  -0.1615882  -0.0932930   0.3876318), wk =   0.0349854
        k(   37) = (   0.8079411   0.4664650   0.0553760), wk =   0.0349854
        k(   38) = (   0.6463529   0.3731720   0.1107520), wk =   0.0349854
        k(   39) = (  -0.1615882   0.0932930   0.4430078), wk =   0.0349854
        k(   40) = (   0.8079411   0.6530510   0.1107520), wk =   0.0699708
        k(   41) = (   0.6463529   0.5597580   0.1661279), wk =   0.0699708
        k(   42) = (   0.8079411  -0.4664650  -0.2215039), wk =   0.0349854
        k(   43) = (   0.0000000  -0.0000000   0.4983838), wk =   0.0116618
        k(   44) = (   0.9695293   0.5597580   0.1661279), wk =   0.0349854

     PseudoPot. # 1 for Ca read from file:
     ./Ca_PBE.UPF
     MD5 check sum: 403a4c14b9e4d4dfdc3024c9a3812218
     Pseudo is Ultrasoft + core correction, Zval = 10.0
     Generated by new atomic code, or converted to UPF format
     Using radial grid of  845 points,  6 beta functions with: 
                l(1) =   0
                l(2) =   0
                l(3) =   1
                l(4) =   1
                l(5) =   2
                l(6) =   2
     Q(r) pseudized with  8 coefficients,  rinner =    1.500   1.500   1.500
                                                       1.500   1.500

     PseudoPot. # 2 for C  read from file:
     ./C_PBE.UPF
     MD5 check sum: d1aef80898a10debaa0f26306b886e00
     Pseudo is Ultrasoft + core correction, Zval =  4.0
     Generated by new atomic code, or converted to UPF format
     Using radial grid of  721 points,  4 beta functions with: 
                l(1) =   0
                l(2) =   0
                l(3) =   1
                l(4) =   1
     Q(r) pseudized with  8 coefficients,  rinner =    1.100   1.100   1.100


     PseudoPot. # 3 for O  read from file:
     ./O_PBE.UPF
     MD5 check sum: 734c27235a0248c51dbae37a1fbe46ec
     Pseudo is Ultrasoft + core correction, Zval =  6.0
     Generated by new atomic code, or converted to UPF format
     Using radial grid of  737 points,  5 beta functions with: 
                l(1) =   0
                l(2) =   0
                l(3) =   1
                l(4) =   1
                l(5) =   2
     Q(r) pseudized with  8 coefficients,  rinner =    0.900   0.900   0.900
                                                       0.900   0.900

     Mode symmetry, D_3d (-3m)  point group:


     Electric field:
     Dielectric constant
     Born effective charges as d Force / d E


     Atomic displacements:
     There are   20 irreducible representations

     Representation     1      1 modes -  To be done

     Representation     2      1 modes -  To be done

     Representation     3      1 modes -  To be done

     Representation     4      1 modes -  To be done

     Representation     5      2 modes -  To be done

     Representation     6      2 modes -  To be done

     Representation     7      2 modes -  To be done

     Representation     8      2 modes -  To be done

     Representation     9      1 modes -  To be done

     Representation    10      1 modes -  To be done

     Representation    11      1 modes -  To be done

     Representation    12      1 modes -  To be done

     Representation    13      1 modes -  To be done

     Representation    14      1 modes -  To be done

     Representation    15      2 modes -  To be done

     Representation    16      2 modes -  To be done

     Representation    17      2 modes -  To be done

     Representation    18      2 modes -  To be done

     Representation    19      2 modes -  To be done

     Representation    20      2 modes -  To be done



     Alpha used in Ewald sum =   2.5000
     PHONON       :   9m35.83s CPU   9m41.13s WALL


     Electric Fields Calculation

      iter #   1 total cpu time :  3472.1 secs   av.it.:   6.5
      thresh= 1.000E-02 alpha_mix =  0.700 |ddv_scf|^2 =  3.088E-08

      iter #   2 total cpu time :  4760.7 secs   av.it.:  14.0
      thresh= 1.757E-05 alpha_mix =  0.700 |ddv_scf|^2 =  3.553E-08

      iter #   3 total cpu time :  5981.1 secs   av.it.:  13.0
      thresh= 1.885E-05 alpha_mix =  0.700 |ddv_scf|^2 =  2.948E-09

      iter #   4 total cpu time :  7196.2 secs   av.it.:  13.0
      thresh= 5.429E-06 alpha_mix =  0.700 |ddv_scf|^2 =  4.782E-11

      iter #   5 total cpu time :  8384.8 secs   av.it.:  12.9
      thresh= 6.915E-07 alpha_mix =  0.700 |ddv_scf|^2 =  5.967E-12

      iter #   6 total cpu time :  9599.2 secs   av.it.:  13.0
      thresh= 2.443E-07 alpha_mix =  0.700 |ddv_scf|^2 =  2.484E-13

      iter #   7 total cpu time : 10794.4 secs   av.it.:  12.9
      thresh= 4.984E-08 alpha_mix =  0.700 |ddv_scf|^2 =  3.499E-15

      iter #   8 total cpu time : 11989.5 secs   av.it.:  12.9
      thresh= 5.915E-09 alpha_mix =  0.700 |ddv_scf|^2 =  2.419E-16

      iter #   9 total cpu time : 13221.4 secs   av.it.:  13.0
      thresh= 1.555E-09 alpha_mix =  0.700 |ddv_scf|^2 =  1.902E-17

     End of electric fields calculation

          Dielectric constant in cartesian axis 

          (       3.027609766       0.000000000       0.000000000 )
          (       0.000000000       3.027609766       0.000000000 )
          (       0.000000000       0.000000000       2.282292670 )

          Effective charges (d Force / dE) in cartesian axis without acoustic sum rule applied (asr)

           atom      1   Ca Mean Z*:        2.51902
      Ex  (        2.63802       -0.22878       -0.00000 )
      Ey  (        0.22878        2.63802       -0.00000 )
      Ez  (        0.00000       -0.00000        2.28100 )
           atom      2   Ca Mean Z*:        2.51902
      Ex  (        2.63802        0.22878        0.00000 )
      Ey  (       -0.22878        2.63802       -0.00000 )
      Ez  (       -0.00000       -0.00000        2.28100 )
           atom      3   C  Mean Z*:        2.26176
      Ex  (        3.27625        0.00000       -0.00000 )
      Ey  (        0.00000        3.27625       -0.00000 )
      Ez  (       -0.00000       -0.00000        0.23278 )
           atom      4   C  Mean Z*:        2.26176
      Ex  (        3.27625        0.00000       -0.00000 )
      Ey  (       -0.00000        3.27625       -0.00000 )
      Ez  (       -0.00000       -0.00000        0.23278 )
           atom      5   O  Mean Z*:       -1.59414
      Ex  (       -1.60180        0.64106       -0.17543 )
      Ey  (        0.64106       -2.34203       -0.10128 )
      Ez  (       -0.16195       -0.09350       -0.83859 )
           atom      6   O  Mean Z*:       -1.59414
      Ex  (       -2.71215       -0.00000       -0.00000 )
      Ey  (        0.00000       -1.23168        0.20257 )
      Ez  (       -0.00000        0.18701       -0.83859 )
           atom      7   O  Mean Z*:       -1.59414
      Ex  (       -1.60180       -0.64106        0.17543 )
      Ey  (       -0.64106       -2.34203       -0.10128 )
      Ez  (        0.16195       -0.09350       -0.83859 )
           atom      8   O  Mean Z*:       -1.59414
      Ex  (       -2.71215        0.00000       -0.00000 )
      Ey  (        0.00000       -1.23168        0.20257 )
      Ez  (       -0.00000        0.18701       -0.83859 )
           atom      9   O  Mean Z*:       -1.59414
      Ex  (       -1.60180       -0.64106        0.17543 )
      Ey  (       -0.64106       -2.34203       -0.10128 )
      Ez  (        0.16195       -0.09350       -0.83859 )
           atom     10   O  Mean Z*:       -1.59414
      Ex  (       -1.60180        0.64106       -0.17543 )
      Ey  (        0.64106       -2.34203       -0.10128 )
      Ez  (       -0.16195       -0.09350       -0.83859 )

          Effective charges Sum: Mean:       -0.00329
             -0.00295        0.00000       -0.00000
              0.00000       -0.00295       -0.00000
             -0.00000       -0.00000       -0.00396

          Effective charges (d Force / dE) in cartesian axis with asr applied: 
           atom      1   Ca Mean Z*:        2.51934
      E*x (        2.63832       -0.22878       -0.00000 )
      E*y (        0.22878        2.63832       -0.00000 )
      E*z (        0.00000       -0.00000        2.28140 )
           atom      2   Ca Mean Z*:        2.51934
      E*x (        2.63832        0.22878        0.00000 )
      E*y (       -0.22878        2.63832       -0.00000 )
      E*z (       -0.00000       -0.00000        2.28140 )
           atom      3   C  Mean Z*:        2.26209
      E*x (        3.27654        0.00000        0.00000 )
      E*y (       -0.00000        3.27654        0.00000 )
      E*z (        0.00000        0.00000        0.23318 )
           atom      4   C  Mean Z*:        2.26209
      E*x (        3.27654       -0.00000        0.00000 )
      E*y (       -0.00000        3.27654        0.00000 )
      E*z (        0.00000        0.00000        0.23318 )
           atom      5   O  Mean Z*:       -1.59381
      E*x (       -1.60150        0.64106       -0.17543 )
      E*y (        0.64106       -2.34174       -0.10128 )
      E*z (       -0.16195       -0.09350       -0.83819 )
           atom      6   O  Mean Z*:       -1.59381
      E*x (       -2.71185       -0.00000       -0.00000 )
      E*y (        0.00000       -1.23139        0.20257 )
      E*z (       -0.00000        0.18701       -0.83819 )
           atom      7   O  Mean Z*:       -1.59381
      E*x (       -1.60150       -0.64106        0.17543 )
      E*y (       -0.64106       -2.34174       -0.10128 )
      E*z (        0.16195       -0.09350       -0.83819 )
           atom      8   O  Mean Z*:       -1.59381
      E*x (       -2.71185        0.00000       -0.00000 )
      E*y (        0.00000       -1.23139        0.20257 )
      E*z (       -0.00000        0.18701       -0.83819 )
           atom      9   O  Mean Z*:       -1.59381
      E*x (       -1.60150       -0.64106        0.17543 )
      E*y (       -0.64106       -2.34174       -0.10128 )
      E*z (        0.16195       -0.09350       -0.83819 )
           atom     10   O  Mean Z*:       -1.59381
      E*x (       -1.60150        0.64106       -0.17543 )
      E*y (        0.64106       -2.34174       -0.10128 )
      E*z (       -0.16195       -0.09350       -0.83819 )


     Representation #   1 mode #   1

     Self-consistent Calculation

      iter #   1 total cpu time : 16687.3 secs   av.it.:   6.0
      thresh= 1.000E-02 alpha_mix =  0.700 |ddv_scf|^2 =  2.200E-06

      iter #   2 total cpu time : 17056.5 secs   av.it.:  11.8
      thresh= 1.483E-04 alpha_mix =  0.700 |ddv_scf|^2 =  1.226E-06

      iter #   3 total cpu time : 17408.6 secs   av.it.:  10.9
      thresh= 1.107E-04 alpha_mix =  0.700 |ddv_scf|^2 =  9.642E-09

      iter #   4 total cpu time : 17788.2 secs   av.it.:  11.9
      thresh= 9.819E-06 alpha_mix =  0.700 |ddv_scf|^2 =  1.046E-09

      iter #   5 total cpu time : 18166.9 secs   av.it.:  11.9
      thresh= 3.235E-06 alpha_mix =  0.700 |ddv_scf|^2 =  6.896E-12

      iter #   6 total cpu time : 18524.3 secs   av.it.:  11.0
      thresh= 2.626E-07 alpha_mix =  0.700 |ddv_scf|^2 =  4.149E-13

      iter #   7 total cpu time : 18889.0 secs   av.it.:  11.7
      thresh= 6.441E-08 alpha_mix =  0.700 |ddv_scf|^2 =  1.149E-14

      iter #   8 total cpu time : 19251.7 secs   av.it.:  11.1
      thresh= 1.072E-08 alpha_mix =  0.700 |ddv_scf|^2 =  5.571E-16

      iter #   9 total cpu time : 19618.2 secs   av.it.:  11.7
      thresh= 2.360E-09 alpha_mix =  0.700 |ddv_scf|^2 =  4.933E-18

     End of self-consistent calculation

     Convergence has been achieved 


     Representation #   2 mode #   2

     Self-consistent Calculation

      iter #   1 total cpu time : 19845.9 secs   av.it.:   5.9
      thresh= 1.000E-02 alpha_mix =  0.700 |ddv_scf|^2 =  7.722E-07

      iter #   2 total cpu time : 20211.3 secs   av.it.:  11.1
      thresh= 8.788E-05 alpha_mix =  0.700 |ddv_scf|^2 =  1.000E-07

      iter #   3 total cpu time : 20557.2 secs   av.it.:  10.9
      thresh= 3.162E-05 alpha_mix =  0.700 |ddv_scf|^2 =  1.487E-09

      iter #   4 total cpu time : 20903.0 secs   av.it.:  10.9
      thresh= 3.856E-06 alpha_mix =  0.700 |ddv_scf|^2 =  6.968E-12

      iter #   5 total cpu time : 21252.7 secs   av.it.:  10.9
      thresh= 2.640E-07 alpha_mix =  0.700 |ddv_scf|^2 =  3.236E-13

      iter #   6 total cpu time : 21609.4 secs   av.it.:  11.0
      thresh= 5.689E-08 alpha_mix =  0.700 |ddv_scf|^2 =  1.645E-14

      iter #   7 total cpu time : 21954.7 secs   av.it.:  10.8
      thresh= 1.283E-08 alpha_mix =  0.700 |ddv_scf|^2 =  8.242E-16

      iter #   8 total cpu time : 22306.2 secs   av.it.:  10.9
      thresh= 2.871E-09 alpha_mix =  0.700 |ddv_scf|^2 =  5.789E-18

     End of self-consistent calculation

     Convergence has been achieved 


     Representation #   3 mode #   3

     Self-consistent Calculation

      iter #   1 total cpu time : 22497.8 secs   av.it.:   4.9
      thresh= 1.000E-02 alpha_mix =  0.700 |ddv_scf|^2 =  3.126E-07

      iter #   2 total cpu time : 22846.4 secs   av.it.:  10.9
      thresh= 5.591E-05 alpha_mix =  0.700 |ddv_scf|^2 =  7.598E-08

      iter #   3 total cpu time : 23181.7 secs   av.it.:  10.2
      thresh= 2.756E-05 alpha_mix =  0.700 |ddv_scf|^2 =  4.965E-11

      iter #   4 total cpu time : 23547.0 secs   av.it.:  11.5
      thresh= 7.046E-07 alpha_mix =  0.700 |ddv_scf|^2 =  3.524E-12

      iter #   5 total cpu time : 23903.1 secs   av.it.:  11.0
      thresh= 1.877E-07 alpha_mix =  0.700 |ddv_scf|^2 =  1.089E-13

      iter #   6 total cpu time : 24247.6 secs   av.it.:  10.9
      thresh= 3.300E-08 alpha_mix =  0.700 |ddv_scf|^2 =  2.483E-15

      iter #   7 total cpu time : 24588.5 secs   av.it.:  10.7
      thresh= 4.983E-09 alpha_mix =  0.700 |ddv_scf|^2 =  5.332E-17

     End of self-consistent calculation

     Convergence has been achieved 


     Representation #   4 mode #   4

     Self-consistent Calculation
