
     Program PWSCF v.7.0 starts on 20Feb2022 at  9:10:45 

     This program is part of the open-source Quantum ESPRESSO suite
     for quantum simulation of materials; please cite
         "P. Giannozzi et al., J. Phys.:Condens. Matter 21 395502 (2009);
         "P. Giannozzi et al., J. Phys.:Condens. Matter 29 465901 (2017);
         "P. Giannozzi et al., J. Chem. Phys. 152 154105 (2020);
          URL http://www.quantum-espresso.org", 
     in publications or presentations arising from this work. More details at
     http://www.quantum-espresso.org/quote

     Parallel version (MPI), running on     1 processors

     MPI processes distributed on     1 nodes
     88295 MiB available memory on the printing compute node when the environment starts
 
     Waiting for input...
     Reading input from standard input

     Current dimensions of program PWSCF are:
     Max number of different atomic species (ntypx) = 10
     Max number of k-points (npk) =  40000
     Max angular momentum in pseudopotentials (lmaxx) =  4

     Subspace diagonalization in iterative solution of the eigenvalue problem:
     a serial algorithm will be used

 
     G-vector sticks info
     --------------------
     sticks:   dense  smooth     PW     G-vecs:    dense   smooth      PW
     Sum        1345     439    151                32455     6231    1139
 
     Using Slab Decomposition
 


     bravais-lattice index     =            2
     lattice parameter (alat)  =       9.0000  a.u.
     unit-cell volume          =     182.2500 (a.u.)^3
     number of atoms/cell      =            2
     number of atomic types    =            2
     number of electrons       =         8.00
     number of Kohn-Sham states=            4
     kinetic-energy cutoff     =      40.0000  Ry
     charge density cutoff     =     480.0000  Ry
     scf convergence threshold =      1.0E-08
     mixing beta               =       0.7000
     number of iterations used =            8  plain     mixing
     energy convergence thresh.=      1.0E-04
     force convergence thresh. =      1.0E-03
     press convergence thresh. =      5.0E-01
     Exchange-correlation= SLA  PZ   NOGX NOGC
                           (   1   1   0   0   0   0   0)
     nstep                     =           50


     celldm(1)=   9.000000  celldm(2)=   0.000000  celldm(3)=   0.000000
     celldm(4)=   0.000000  celldm(5)=   0.000000  celldm(6)=   0.000000

     crystal axes: (cart. coord. in units of alat)
               a(1) = (  -0.500000   0.000000   0.500000 )  
               a(2) = (   0.000000   0.500000   0.500000 )  
               a(3) = (  -0.500000   0.500000   0.000000 )  

     reciprocal axes: (cart. coord. in units 2 pi/alat)
               b(1) = ( -1.000000 -1.000000  1.000000 )  
               b(2) = (  1.000000  1.000000  1.000000 )  
               b(3) = ( -1.000000  1.000000 -1.000000 )  


     PseudoPot. # 1 for B  read from file:
     ../pseudo_dir/B_LDA.UPF
     MD5 check sum: a9970de764dbc07c3a3d9583c605c3b2
     Pseudo is Ultrasoft + core correction, Zval =  3.0
     Generated by new atomic code, or converted to UPF format
     Using radial grid of  781 points,  4 beta functions with: 
                l(1) =   0
                l(2) =   0
                l(3) =   1
                l(4) =   1
     Q(r) pseudized with  8 coefficients,  rinner =    1.100   1.100   1.100


     PseudoPot. # 2 for As read from file:
     ../pseudo_dir/As_LDA.UPF
     MD5 check sum: 6d2e8cbe4ed9d0db7c6ef7a361cc050d
     Pseudo is Ultrasoft + core correction, Zval =  5.0
     Generated by new atomic code, or converted to UPF format
     Using radial grid of  875 points,  6 beta functions with: 
                l(1) =   0
                l(2) =   0
                l(3) =   1
                l(4) =   1
                l(5) =   2
                l(6) =   2
     Q(r) pseudized with  8 coefficients,  rinner =    1.300   1.300   1.300
                                                       1.300   1.300

     atomic species   valence    mass     pseudopotential
        B              3.00    10.81100     B ( 1.00)
        As             5.00    74.92160     As( 1.00)

     24 Sym. Ops. (no inversion) found



   Cartesian axes

     site n.     atom                  positions (alat units)
         1           B   tau(   1) = (   0.0000000   0.0000000   0.0000000  )
         2           As  tau(   2) = (  -0.2500000   0.2500000   0.2500000  )

     number of k points=    29
                       cart. coord. in units 2pi/alat
        k(    1) = (   0.0000000   0.0000000   0.0000000), wk =   0.0039062
        k(    2) = (  -0.1250000   0.1250000  -0.1250000), wk =   0.0312500
        k(    3) = (  -0.2500000   0.2500000  -0.2500000), wk =   0.0312500
        k(    4) = (  -0.3750000   0.3750000  -0.3750000), wk =   0.0312500
        k(    5) = (   0.5000000  -0.5000000   0.5000000), wk =   0.0156250
        k(    6) = (   0.0000000   0.2500000   0.0000000), wk =   0.0234375
        k(    7) = (  -0.1250000   0.3750000  -0.1250000), wk =   0.0937500
        k(    8) = (  -0.2500000   0.5000000  -0.2500000), wk =   0.0937500
        k(    9) = (   0.6250000  -0.3750000   0.6250000), wk =   0.0937500
        k(   10) = (   0.5000000  -0.2500000   0.5000000), wk =   0.0937500
        k(   11) = (   0.3750000  -0.1250000   0.3750000), wk =   0.0937500
        k(   12) = (   0.2500000   0.0000000   0.2500000), wk =   0.0468750
        k(   13) = (   0.0000000   0.5000000   0.0000000), wk =   0.0234375
        k(   14) = (  -0.1250000   0.6250000  -0.1250000), wk =   0.0937500
        k(   15) = (   0.7500000  -0.2500000   0.7500000), wk =   0.0937500
        k(   16) = (   0.6250000  -0.1250000   0.6250000), wk =   0.0937500
        k(   17) = (   0.5000000   0.0000000   0.5000000), wk =   0.0468750
        k(   18) = (   0.0000000   0.7500000   0.0000000), wk =   0.0234375
        k(   19) = (   0.8750000  -0.1250000   0.8750000), wk =   0.0937500
        k(   20) = (   0.7500000   0.0000000   0.7500000), wk =   0.0468750
        k(   21) = (   0.0000000  -1.0000000   0.0000000), wk =   0.0117188
        k(   22) = (  -0.2500000   0.5000000   0.0000000), wk =   0.0937500
        k(   23) = (   0.6250000  -0.3750000   0.8750000), wk =   0.1875000
        k(   24) = (   0.5000000  -0.2500000   0.7500000), wk =   0.0937500
        k(   25) = (   0.7500000  -0.2500000   1.0000000), wk =   0.0937500
        k(   26) = (   0.6250000  -0.1250000   0.8750000), wk =   0.1875000
        k(   27) = (   0.5000000   0.0000000   0.7500000), wk =   0.0937500
        k(   28) = (  -0.2500000  -1.0000000   0.0000000), wk =   0.0468750
        k(   29) = (  -0.5000000  -1.0000000   0.0000000), wk =   0.0234375

     Dense  grid:    32455 G-vectors     FFT dimensions: (  45,  45,  45)

     Smooth grid:     6231 G-vectors     FFT dimensions: (  25,  25,  25)

     Estimated max dynamical RAM per process >     128.85 MB

     Initial potential from superposition of free atoms

     starting charge       7.9996, renormalised to       8.0000
     Starting wfcs are    8 randomized atomic wfcs

     total cpu time spent up to now is        7.3 secs

     Self-consistent Calculation

     iteration #  1     ecut=    40.00 Ry     beta= 0.70
     CG style diagonalization
     ethr =  1.00E-02,  avg # of iterations =  2.7

     total cpu time spent up to now is        8.3 secs

     total energy              =     -46.15043945 Ry
     estimated scf accuracy    <       0.14605280 Ry

     iteration #  2     ecut=    40.00 Ry     beta= 0.70
     CG style diagonalization
     ethr =  1.83E-03,  avg # of iterations =  4.2

     total cpu time spent up to now is        9.5 secs

     total energy              =     -46.18348762 Ry
     estimated scf accuracy    <       0.03814020 Ry

     iteration #  3     ecut=    40.00 Ry     beta= 0.70
     CG style diagonalization
     ethr =  4.77E-04,  avg # of iterations =  4.1

     total cpu time spent up to now is       10.7 secs

     total energy              =     -46.19177729 Ry
     estimated scf accuracy    <       0.00038339 Ry

     iteration #  4     ecut=    40.00 Ry     beta= 0.70
     CG style diagonalization
     ethr =  4.79E-06,  avg # of iterations =  4.5

     total cpu time spent up to now is       12.0 secs

     total energy              =     -46.19203326 Ry
     estimated scf accuracy    <       0.00006009 Ry

     iteration #  5     ecut=    40.00 Ry     beta= 0.70
     CG style diagonalization
     ethr =  7.51E-07,  avg # of iterations =  4.1

     total cpu time spent up to now is       13.1 secs

     total energy              =     -46.19204746 Ry
     estimated scf accuracy    <       0.00000094 Ry

     iteration #  6     ecut=    40.00 Ry     beta= 0.70
     CG style diagonalization
     ethr =  1.17E-08,  avg # of iterations =  6.1

     total cpu time spent up to now is       14.6 secs

     total energy              =     -46.19204973 Ry
     estimated scf accuracy    <       0.00000016 Ry

     iteration #  7     ecut=    40.00 Ry     beta= 0.70
     CG style diagonalization
     ethr =  2.01E-09,  avg # of iterations =  4.3

     total cpu time spent up to now is       15.8 secs

     total energy              =     -46.19204978 Ry
     estimated scf accuracy    <       0.00000001 Ry

     iteration #  8     ecut=    40.00 Ry     beta= 0.70
     CG style diagonalization
     ethr =  1.63E-10,  avg # of iterations =  4.5

     total cpu time spent up to now is       17.0 secs

     End of self-consistent calculation

          k = 0.0000 0.0000 0.0000 (   749 PWs)   bands (ev):

    -6.9867   8.4912   8.4912   8.4912

          k =-0.1250 0.1250-0.1250 (   785 PWs)   bands (ev):

    -6.7296   6.5223   8.0497   8.0497

          k =-0.2500 0.2500-0.2500 (   784 PWs)   bands (ev):

    -5.9811   3.5334   7.3369   7.3369

          k =-0.3750 0.3750-0.3750 (   775 PWs)   bands (ev):

    -4.8701   0.9404   6.8377   6.8377

          k = 0.5000-0.5000 0.5000 (   778 PWs)   bands (ev):

    -4.1051  -0.3333   6.6653   6.6653

          k = 0.0000 0.2500 0.0000 (   789 PWs)   bands (ev):

    -6.6434   7.0619   7.3173   7.3173

          k =-0.1250 0.3750-0.1250 (   791 PWs)   bands (ev):

    -6.0559   4.5194   6.5728   6.8500

          k =-0.2500 0.5000-0.2500 (   783 PWs)   bands (ev):

    -5.0440   1.8482   6.0643   6.1661

          k = 0.6250-0.3750 0.6250 (   782 PWs)   bands (ev):

    -4.0150   0.0169   5.4507   6.1775

          k = 0.5000-0.2500 0.5000 (   784 PWs)   bands (ev):

    -4.2979   0.4680   5.1875   6.5869

          k = 0.3750-0.1250 0.3750 (   787 PWs)   bands (ev):

    -5.4209   2.6994   5.3626   7.2926

          k = 0.2500 0.0000 0.2500 (   775 PWs)   bands (ev):

    -6.3072   5.2295   6.2186   8.0081

          k = 0.0000 0.5000 0.0000 (   769 PWs)   bands (ev):

    -5.6358   4.4196   5.7653   5.7653

          k =-0.1250 0.6250-0.1250 (   782 PWs)   bands (ev):

    -4.7701   2.5666   4.8092   5.3025

          k = 0.7500-0.2500 0.7500 (   777 PWs)   bands (ev):

    -3.7045   0.7783   3.7195   5.2929

          k = 0.6250-0.1250 0.6250 (   780 PWs)   bands (ev):

    -3.4843   0.4930   3.0852   5.7321

          k = 0.5000 0.0000 0.5000 (   784 PWs)   bands (ev):

    -4.4590   1.8523   3.3499   6.5129

          k = 0.0000 0.7500 0.0000 (   785 PWs)   bands (ev):

    -4.0782   1.6957   4.7368   4.7368

          k = 0.8750-0.1250 0.8750 (   773 PWs)   bands (ev):

    -3.1792   0.5862   3.6633   4.6230

          k = 0.7500 0.0000 0.7500 (   762 PWs)   bands (ev):

    -2.8496   0.4045   2.4567   4.9814

          k = 0.0000-1.0000 0.0000 (   790 PWs)   bands (ev):

    -2.8180   0.0145   4.3834   4.3834

          k =-0.2500 0.5000 0.0000 (   784 PWs)   bands (ev):

    -5.3272   3.2995   4.7409   6.4583

          k = 0.6250-0.3750 0.8750 (   783 PWs)   bands (ev):

    -4.2573   1.3223   4.0239   5.7315

          k = 0.5000-0.2500 0.7500 (   782 PWs)   bands (ev):

    -3.5361   0.1928   3.9070   5.3895

          k = 0.7500-0.2500 1.0000 (   772 PWs)   bands (ev):

    -3.8485   1.4604   3.8137   4.5753

          k = 0.6250-0.1250 0.8750 (   769 PWs)   bands (ev):

    -3.0099   0.5675   2.8556   4.3093

          k = 0.5000 0.0000 0.7500 (   773 PWs)   bands (ev):

    -3.2983   0.8623   2.6168   4.8378

          k =-0.2500-1.0000 0.0000 (   772 PWs)   bands (ev):

    -2.7374   0.2270   3.6279   3.7361

          k =-0.5000-1.0000 0.0000 (   772 PWs)   bands (ev):

    -2.6511   0.5113   2.9303   3.2207

     highest occupied level (ev):     8.4912

!    total energy              =     -46.19204978 Ry
     estimated scf accuracy    <          4.0E-09 Ry

     The total energy is the sum of the following terms:
     one-electron contribution =       6.71379322 Ry
     hartree contribution      =       1.23912078 Ry
     xc contribution           =     -34.15125382 Ry
     ewald contribution        =     -19.99370996 Ry

     convergence has been achieved in   8 iterations

     Forces acting on atoms (cartesian axes, Ry/au):

     atom    1 type  1   force =     0.00000000    0.00000000    0.00000000
     atom    2 type  2   force =    -0.00000000   -0.00000000   -0.00000000

     Total force =     0.000000     Total SCF correction =     0.000000


     Computing stress (Cartesian axis) and pressure

          total   stress  (Ry/bohr**3)                   (kbar)     P=      -13.29
  -0.00009036  -0.00000000  -0.00000000          -13.29       -0.00       -0.00
  -0.00000000  -0.00009036   0.00000000           -0.00      -13.29        0.00
  -0.00000000   0.00000000  -0.00009036           -0.00        0.00      -13.29


     BFGS Geometry Optimization
     Energy error            =      0.0E+00 Ry
     Gradient error          =      1.6E-32 Ry/Bohr
     Cell gradient error     =      1.3E+01 kbar

     number of scf cycles    =   1
     number of bfgs steps    =   0

     enthalpy           new  =     -46.1920497832 Ry

     new trust radius        =       0.0060991255 bohr
     new conv_thr            =       0.0000000100 Ry

     new unit-cell volume =    181.01771 a.u.^3 (    26.82406 Ang^3 )
     density =      5.30726 g/cm^3

CELL_PARAMETERS (alat=  9.00000000)
  -0.498870532   0.000000000   0.498870532
  -0.000000000   0.498870532   0.498870532
  -0.498870532   0.498870532   0.000000000

ATOMIC_POSITIONS (crystal)
B            -0.0000000000        0.0000000000       -0.0000000000
As            0.2500000000        0.2500000000        0.2500000000



     Writing config-only to output data dir ./q2_b_1.save/
     NEW-OLD atomic charge density approx. for the potential
     extrapolated charge    7.94554, renormalised to    8.00000

     total cpu time spent up to now is       27.0 secs

     Self-consistent Calculation

     iteration #  1     ecut=    40.00 Ry     beta= 0.70
     CG style diagonalization
     ethr =  1.00E-06,  avg # of iterations =  3.2

     total cpu time spent up to now is       28.1 secs

     total energy              =     -46.19207776 Ry
     estimated scf accuracy    <       0.00002401 Ry

     iteration #  2     ecut=    40.00 Ry     beta= 0.70
     CG style diagonalization
     ethr =  3.00E-07,  avg # of iterations =  4.8

     total cpu time spent up to now is       29.5 secs

     total energy              =     -46.19212022 Ry
     estimated scf accuracy    <       0.00002430 Ry

     iteration #  3     ecut=    40.00 Ry     beta= 0.70
     CG style diagonalization
     ethr =  3.00E-07,  avg # of iterations =  3.0

     total cpu time spent up to now is       30.5 secs

     total energy              =     -46.19211910 Ry
     estimated scf accuracy    <       0.00000539 Ry

     iteration #  4     ecut=    40.00 Ry     beta= 0.70
     CG style diagonalization
     ethr =  6.74E-08,  avg # of iterations =  4.0

     total cpu time spent up to now is       31.7 secs

     total energy              =     -46.19212293 Ry
     estimated scf accuracy    <       0.00000047 Ry

     iteration #  5     ecut=    40.00 Ry     beta= 0.70
     CG style diagonalization
     ethr =  5.91E-09,  avg # of iterations =  5.4

     total cpu time spent up to now is       33.1 secs

     total energy              =     -46.19211576 Ry
     estimated scf accuracy    <       0.00002068 Ry

     iteration #  6     ecut=    40.00 Ry     beta= 0.70
     CG style diagonalization
     ethr =  5.91E-09,  avg # of iterations =  5.3

     total cpu time spent up to now is       34.6 secs

     total energy              =     -46.19211988 Ry
     estimated scf accuracy    <       0.00000001 Ry

     iteration #  7     ecut=    40.00 Ry     beta= 0.70
     CG style diagonalization
     ethr =  1.47E-10,  avg # of iterations =  4.6

     total cpu time spent up to now is       35.9 secs

     End of self-consistent calculation

          k = 0.0000 0.0000 0.0000 (   749 PWs)   bands (ev):

    -6.9566   8.5836   8.5836   8.5836

          k =-0.1253 0.1253-0.1253 (   785 PWs)   bands (ev):

    -6.6979   6.6080   8.1387   8.1387

          k =-0.2506 0.2506-0.2506 (   784 PWs)   bands (ev):

    -5.9443   3.6038   7.4214   7.4214

          k =-0.3758 0.3758-0.3758 (   775 PWs)   bands (ev):

    -4.8242   0.9942   6.9195   6.9195

          k = 0.5011-0.5011 0.5011 (   778 PWs)   bands (ev):

    -4.0501  -0.2912   6.7461   6.7461

          k = 0.0000 0.2506 0.0000 (   789 PWs)   bands (ev):

    -6.6112   7.1591   7.4003   7.4003

          k =-0.1253 0.3758-0.1253 (   791 PWs)   bands (ev):

    -6.0198   4.5981   6.6509   6.9360

          k =-0.2506 0.5011-0.2506 (   783 PWs)   bands (ev):

    -5.0002   1.9098   6.1456   6.2422

          k = 0.6264-0.3758 0.6264 (   782 PWs)   bands (ev):

    -3.9601   0.0629   5.5276   6.2542

          k = 0.5011-0.2506 0.5011 (   784 PWs)   bands (ev):

    -4.2466   0.5185   5.2617   6.6668

          k = 0.3758-0.1253 0.3758 (   787 PWs)   bands (ev):

    -5.3801   2.7668   5.4359   7.3775

          k = 0.2506 0.0000 0.2506 (   775 PWs)   bands (ev):

    -6.2727   5.3133   6.2938   8.0980

          k = 0.0000 0.5011 0.0000 (   769 PWs)   bands (ev):

    -5.5969   4.5086   5.8379   5.8379

          k =-0.1253 0.6264-0.1253 (   782 PWs)   bands (ev):

    -4.7247   2.6413   4.8777   5.3724

          k = 0.7517-0.2506 0.7517 (   777 PWs)   bands (ev):

    -3.6485   0.8358   3.7825   5.3630

          k = 0.6264-0.1253 0.6264 (   780 PWs)   bands (ev):

    -3.4249   0.5463   3.1437   5.8055

          k = 0.5011 0.0000 0.5011 (   784 PWs)   bands (ev):

    -4.4103   1.9199   3.4069   6.5920

          k = 0.0000 0.7517 0.0000 (   785 PWs)   bands (ev):

    -4.0274   1.7673   4.8030   4.8030

          k = 0.8770-0.1253 0.8770 (   773 PWs)   bands (ev):

    -3.1186   0.6477   3.7208   4.6886

          k = 0.7517 0.0000 0.7517 (   762 PWs)   bands (ev):

    -2.7831   0.4629   2.5038   5.0495

          k = 0.0000-1.0023 0.0000 (   790 PWs)   bands (ev):

    -2.7523   0.0686   4.4474   4.4474

          k =-0.2506 0.5011 0.0000 (   784 PWs)   bands (ev):

    -5.2859   3.3766   4.8069   6.5381

          k = 0.6264-0.3758 0.8770 (   783 PWs)   bands (ev):

    -4.2067   1.3832   4.0897   5.8045

          k = 0.5011-0.2506 0.7517 (   782 PWs)   bands (ev):

    -3.4766   0.2414   3.9742   5.4592

          k = 0.7517-0.2506 1.0023 (   772 PWs)   bands (ev):

    -3.7950   1.5298   3.8735   4.6386

          k = 0.6264-0.1253 0.8770 (   769 PWs)   bands (ev):

    -2.9457   0.6269   2.9082   4.3708

          k = 0.5011 0.0000 0.7517 (   773 PWs)   bands (ev):

    -3.2376   0.9248   2.6671   4.9037

          k =-0.2506-1.0023 0.0000 (   772 PWs)   bands (ev):

    -2.6702   0.2837   3.6856   3.7935

          k =-0.5011-1.0023 0.0000 (   772 PWs)   bands (ev):

    -2.5820   0.5726   2.9810   3.2728

     highest occupied level (ev):     8.5836

!    total energy              =     -46.19211988 Ry
     estimated scf accuracy    <          1.0E-09 Ry

     The total energy is the sum of the following terms:
     one-electron contribution =       6.77519937 Ry
     hartree contribution      =       1.23321282 Ry
     xc contribution           =     -34.16155537 Ry
     ewald contribution        =     -20.03897671 Ry

     convergence has been achieved in   7 iterations

     Forces acting on atoms (cartesian axes, Ry/au):

     atom    1 type  1   force =    -0.00000000   -0.00000000    0.00000000
     atom    2 type  2   force =    -0.00000000    0.00000000   -0.00000000

     Total force =     0.000000     Total SCF correction =     0.000000


     Computing stress (Cartesian axis) and pressure

          total   stress  (Ry/bohr**3)                   (kbar)     P=       -3.50
  -0.00002380   0.00000000  -0.00000000           -3.50        0.00       -0.00
   0.00000000  -0.00002380   0.00000000            0.00       -3.50        0.00
   0.00000000   0.00000000  -0.00002380            0.00        0.00       -3.50

     Energy error            =      7.0E-05 Ry
     Gradient error          =      1.6E-32 Ry/Bohr
     Cell gradient error     =      3.5E+00 kbar

     number of scf cycles    =   2
     number of bfgs steps    =   1

     enthalpy           old  =     -46.1920497832 Ry
     enthalpy           new  =     -46.1921198829 Ry

     CASE: enthalpy          _new < enthalpy          _old

     new trust radius        =       0.0021656913 bohr
     new conv_thr            =            1.0E-10 Ry

     new unit-cell volume =    180.58100 a.u.^3 (    26.75934 Ang^3 )
     density =      5.32010 g/cm^3

CELL_PARAMETERS (alat=  9.00000000)
  -0.498469025   0.000000000   0.498469025
  -0.000000000   0.498469025   0.498469025
  -0.498469025   0.498469025   0.000000000

ATOMIC_POSITIONS (crystal)
B             0.0000000000        0.0000000000       -0.0000000000
As            0.2500000000        0.2500000000        0.2500000000



     Writing config-only to output data dir ./q2_b_1.save/
     NEW-OLD atomic charge density approx. for the potential
     extrapolated charge    7.98065, renormalised to    8.00000

     total cpu time spent up to now is       45.5 secs

     Self-consistent Calculation

     iteration #  1     ecut=    40.00 Ry     beta= 0.70
     CG style diagonalization
     ethr =  1.00E-06,  avg # of iterations =  2.2

     Threshold (ethr) on eigenvalues was too large:
     Diagonalizing with lowered threshold

     CG style diagonalization
     ethr =  3.09E-08,  avg # of iterations =  3.1

     total cpu time spent up to now is       47.3 secs

     total energy              =     -46.19211816 Ry
     estimated scf accuracy    <       0.00000377 Ry

     iteration #  2     ecut=    40.00 Ry     beta= 0.70
     CG style diagonalization
     ethr =  4.71E-08,  avg # of iterations =  4.8

     total cpu time spent up to now is       48.7 secs

     total energy              =     -46.19212423 Ry
     estimated scf accuracy    <       0.00000423 Ry

     iteration #  3     ecut=    40.00 Ry     beta= 0.70
     CG style diagonalization
     ethr =  4.71E-08,  avg # of iterations =  3.0

     total cpu time spent up to now is       49.7 secs

     total energy              =     -46.19212416 Ry
     estimated scf accuracy    <       0.00000085 Ry

     iteration #  4     ecut=    40.00 Ry     beta= 0.70
     CG style diagonalization
     ethr =  1.06E-08,  avg # of iterations =  3.8

     total cpu time spent up to now is       50.9 secs

     total energy              =     -46.19212452 Ry
     estimated scf accuracy    <       0.00000012 Ry

     iteration #  5     ecut=    40.00 Ry     beta= 0.70
     CG style diagonalization
     ethr =  1.51E-09,  avg # of iterations =  5.0

     total cpu time spent up to now is       52.3 secs

     total energy              =     -46.19212393 Ry
     estimated scf accuracy    <       0.00000155 Ry

     iteration #  6     ecut=    40.00 Ry     beta= 0.70
     CG style diagonalization
     ethr =  1.51E-09,  avg # of iterations =  5.0

     total cpu time spent up to now is       53.6 secs

     total energy              =     -46.19212425 Ry
     estimated scf accuracy    <          4.0E-09 Ry

     iteration #  7     ecut=    40.00 Ry     beta= 0.70
     CG style diagonalization
     ethr =  5.03E-11,  avg # of iterations =  4.3

     total cpu time spent up to now is       54.9 secs

     total energy              =     -46.19212425 Ry
     estimated scf accuracy    <          1.3E-10 Ry

     iteration #  8     ecut=    40.00 Ry     beta= 0.70
     CG style diagonalization
     ethr =  1.63E-12,  avg # of iterations =  4.5

     total cpu time spent up to now is       56.2 secs

     total energy              =     -46.19212425 Ry
     estimated scf accuracy    <          1.3E-10 Ry

     iteration #  9     ecut=    40.00 Ry     beta= 0.70
     CG style diagonalization
     ethr =  1.59E-12,  avg # of iterations =  3.0

     total cpu time spent up to now is       57.2 secs

     total energy              =     -46.19212425 Ry
     estimated scf accuracy    <          1.7E-10 Ry

     iteration # 10     ecut=    40.00 Ry     beta= 0.70
     CG style diagonalization
     ethr =  1.59E-12,  avg # of iterations =  4.0

     total cpu time spent up to now is       58.4 secs

     total energy              =     -46.19212425 Ry
     estimated scf accuracy    <          1.7E-10 Ry

     iteration # 11     ecut=    40.00 Ry     beta= 0.70
     CG style diagonalization
     ethr =  1.59E-12,  avg # of iterations =  3.7

     total cpu time spent up to now is       59.6 secs

     total energy              =     -46.19212425 Ry
     estimated scf accuracy    <          5.0E-10 Ry

     iteration # 12     ecut=    40.00 Ry     beta= 0.70
     CG style diagonalization
     ethr =  1.59E-12,  avg # of iterations =  4.1

     total cpu time spent up to now is       60.8 secs

     total energy              =     -46.19212425 Ry
     estimated scf accuracy    <          1.2E-09 Ry

     iteration # 13     ecut=    40.00 Ry     beta= 0.70
     CG style diagonalization
     ethr =  1.59E-12,  avg # of iterations =  3.0

     total cpu time spent up to now is       61.9 secs

     total energy              =     -46.19212425 Ry
     estimated scf accuracy    <          1.4E-09 Ry

     iteration # 14     ecut=    40.00 Ry     beta= 0.70
     CG style diagonalization
     ethr =  1.59E-12,  avg # of iterations =  3.0

     total cpu time spent up to now is       62.9 secs

     total energy              =     -46.19212425 Ry
     estimated scf accuracy    <          1.1E-09 Ry

     iteration # 15     ecut=    40.00 Ry     beta= 0.70
     CG style diagonalization
     ethr =  1.59E-12,  avg # of iterations =  4.2

     total cpu time spent up to now is       64.2 secs

     total energy              =     -46.19212425 Ry
     estimated scf accuracy    <          3.5E-10 Ry

     iteration # 16     ecut=    40.00 Ry     beta= 0.70
     CG style diagonalization
     ethr =  1.59E-12,  avg # of iterations =  3.4

     total cpu time spent up to now is       65.3 secs

     End of self-consistent calculation

          k = 0.0000 0.0000 0.0000 (   749 PWs)   bands (ev):

    -6.9459   8.6165   8.6165   8.6165

          k =-0.1254 0.1254-0.1254 (   785 PWs)   bands (ev):

    -6.6866   6.6385   8.1704   8.1704

          k =-0.2508 0.2508-0.2508 (   784 PWs)   bands (ev):

    -5.9312   3.6289   7.4515   7.4515

          k =-0.3762 0.3762-0.3762 (   775 PWs)   bands (ev):

    -4.8079   1.0134   6.9486   6.9486

          k = 0.5015-0.5015 0.5015 (   778 PWs)   bands (ev):

    -4.0305  -0.2762   6.7749   6.7749

          k = 0.0000 0.2508 0.0000 (   789 PWs)   bands (ev):

    -6.5997   7.1936   7.4299   7.4299

          k =-0.1254 0.3762-0.1254 (   791 PWs)   bands (ev):

    -6.0069   4.6261   6.6787   6.9666

          k =-0.2508 0.5015-0.2508 (   783 PWs)   bands (ev):

    -4.9846   1.9318   6.1746   6.2693

          k = 0.6269-0.3762 0.6269 (   782 PWs)   bands (ev):

    -3.9405   0.0793   5.5550   6.2816

          k = 0.5015-0.2508 0.5015 (   784 PWs)   bands (ev):

    -4.2283   0.5365   5.2881   6.6952

          k = 0.3762-0.1254 0.3762 (   787 PWs)   bands (ev):

    -5.3656   2.7908   5.4621   7.4078

          k = 0.2508 0.0000 0.2508 (   775 PWs)   bands (ev):

    -6.2604   5.3431   6.3207   8.1300

          k = 0.0000 0.5015 0.0000 (   769 PWs)   bands (ev):

    -5.5831   4.5403   5.8638   5.8638

          k =-0.1254 0.6269-0.1254 (   782 PWs)   bands (ev):

    -4.7085   2.6679   4.9021   5.3973

          k = 0.7523-0.2508 0.7523 (   777 PWs)   bands (ev):

    -3.6285   0.8563   3.8050   5.3880

          k = 0.6269-0.1254 0.6269 (   780 PWs)   bands (ev):

    -3.4037   0.5653   3.1646   5.8316

          k = 0.5015 0.0000 0.5015 (   784 PWs)   bands (ev):

    -4.3929   1.9440   3.4273   6.6202

          k =-0.0000 0.7523-0.0000 (   785 PWs)   bands (ev):

    -4.0093   1.7928   4.8266   4.8266

          k = 0.8777-0.1254 0.8777 (   773 PWs)   bands (ev):

    -3.0970   0.6696   3.7413   4.7119

          k = 0.7523-0.0000 0.7523 (   762 PWs)   bands (ev):

    -2.7593   0.4837   2.5206   5.0737

          k = 0.0000-1.0031 0.0000 (   790 PWs)   bands (ev):

    -2.7289   0.0879   4.4702   4.4702

          k =-0.2508 0.5015-0.0000 (   784 PWs)   bands (ev):

    -5.2712   3.4041   4.8304   6.5665

          k = 0.6269-0.3762 0.8777 (   783 PWs)   bands (ev):

    -4.1887   1.4048   4.1131   5.8306

          k = 0.5015-0.2508 0.7523 (   782 PWs)   bands (ev):

    -3.4553   0.2587   3.9982   5.4840

          k = 0.7523-0.2508 1.0031 (   772 PWs)   bands (ev):

    -3.7759   1.5545   3.8948   4.6612

          k = 0.6269-0.1254 0.8777 (   769 PWs)   bands (ev):

    -2.9228   0.6480   2.9270   4.3927

          k = 0.5015-0.0000 0.7523 (   773 PWs)   bands (ev):

    -3.2159   0.9470   2.6850   4.9271

          k =-0.2508-1.0031 0.0000 (   772 PWs)   bands (ev):

    -2.6462   0.3039   3.7061   3.8139

          k =-0.5015-1.0031 0.0000 (   772 PWs)   bands (ev):

    -2.5574   0.5943   2.9990   3.2913

     highest occupied level (ev):     8.6165

!    total energy              =     -46.19212425 Ry
     estimated scf accuracy    <          9.9E-11 Ry

     The total energy is the sum of the following terms:
     one-electron contribution =       6.79707952 Ry
     hartree contribution      =       1.23115217 Ry
     xc contribution           =     -34.16523820 Ry
     ewald contribution        =     -20.05511774 Ry

     convergence has been achieved in  16 iterations

     Forces acting on atoms (cartesian axes, Ry/au):

     atom    1 type  1   force =    -0.00000000   -0.00000000   -0.00000000
     atom    2 type  2   force =     0.00000000    0.00000000    0.00000000

     Total force =     0.000000     Total SCF correction =     0.000000


     Computing stress (Cartesian axis) and pressure

          total   stress  (Ry/bohr**3)                   (kbar)     P=        0.06
   0.00000038   0.00000000   0.00000000            0.06        0.00        0.00
   0.00000000   0.00000038   0.00000000            0.00        0.06        0.00
  -0.00000000   0.00000000   0.00000038           -0.00        0.00        0.06

     Energy error            =      4.4E-06 Ry
     Gradient error          =      9.9E-32 Ry/Bohr
     Cell gradient error     =      5.7E-02 kbar

     bfgs converged in   3 scf cycles and   2 bfgs steps
     (criteria: energy <  1.0E-04 Ry, force <  1.0E-03Ry/Bohr, cell <  5.0E-01kbar)

     End of BFGS Geometry Optimization

     Final enthalpy           =     -46.1921242508 Ry

     File ./q2_b_1.bfgs deleted, as requested
Begin final coordinates
     new unit-cell volume =    180.58100 a.u.^3 (    26.75934 Ang^3 )
     density =      5.32010 g/cm^3

CELL_PARAMETERS (alat=  9.00000000)
  -0.498469025   0.000000000   0.498469025
  -0.000000000   0.498469025   0.498469025
  -0.498469025   0.498469025   0.000000000

ATOMIC_POSITIONS (crystal)
B             0.0000000000        0.0000000000       -0.0000000000
As            0.2500000000        0.2500000000        0.2500000000
End final coordinates



     Writing config-only to output data dir ./q2_b_1.save/

     Final scf calculation at the relaxed structure.
     The G-vectors are recalculated for the final unit cell
     Results may differ from those at the preceding step.
 
     G-vector sticks info
     --------------------
     sticks:   dense  smooth     PW     G-vecs:    dense   smooth      PW
     Sum        1333     439    151                31951     6183    1139
 
     Using Slab Decomposition
 


     bravais-lattice index     =            2
     lattice parameter (alat)  =       9.0000  a.u.
     unit-cell volume          =     180.5810 (a.u.)^3
     number of atoms/cell      =            2
     number of atomic types    =            2
     number of electrons       =         8.00
     number of Kohn-Sham states=            4
     kinetic-energy cutoff     =      40.0000  Ry
     charge density cutoff     =     480.0000  Ry
     scf convergence threshold =      1.0E-10
     mixing beta               =       0.7000
     number of iterations used =            8  plain     mixing
     press convergence thresh. =      5.0E-01
     Exchange-correlation= SLA  PZ   NOGX NOGC
                           (   1   1   0   0   0   0   0)

     celldm(1)=   9.000000  celldm(2)=   0.000000  celldm(3)=   0.000000
     celldm(4)=   0.000000  celldm(5)=   0.000000  celldm(6)=   0.000000

     crystal axes: (cart. coord. in units of alat)
               a(1) = (  -0.498469   0.000000   0.498469 )  
               a(2) = (  -0.000000   0.498469   0.498469 )  
               a(3) = (  -0.498469   0.498469   0.000000 )  

     reciprocal axes: (cart. coord. in units 2 pi/alat)
               b(1) = ( -1.003071 -1.003071  1.003071 )  
               b(2) = (  1.003071  1.003071  1.003071 )  
               b(3) = ( -1.003071  1.003071 -1.003071 )  


     PseudoPot. # 1 for B  read from file:
     ../pseudo_dir/B_LDA.UPF
     MD5 check sum: a9970de764dbc07c3a3d9583c605c3b2
     Pseudo is Ultrasoft + core correction, Zval =  3.0
     Generated by new atomic code, or converted to UPF format
     Using radial grid of  781 points,  4 beta functions with: 
                l(1) =   0
                l(2) =   0
                l(3) =   1
                l(4) =   1
     Q(r) pseudized with  8 coefficients,  rinner =    1.100   1.100   1.100


     PseudoPot. # 2 for As read from file:
     ../pseudo_dir/As_LDA.UPF
     MD5 check sum: 6d2e8cbe4ed9d0db7c6ef7a361cc050d
     Pseudo is Ultrasoft + core correction, Zval =  5.0
     Generated by new atomic code, or converted to UPF format
     Using radial grid of  875 points,  6 beta functions with: 
                l(1) =   0
                l(2) =   0
                l(3) =   1
                l(4) =   1
                l(5) =   2
                l(6) =   2
     Q(r) pseudized with  8 coefficients,  rinner =    1.300   1.300   1.300
                                                       1.300   1.300

     atomic species   valence    mass     pseudopotential
        B              3.00    10.81100     B ( 1.00)
        As             5.00    74.92160     As( 1.00)

     24 Sym. Ops. (no inversion) found



   Cartesian axes

     site n.     atom                  positions (alat units)
         1           B   tau(   1) = (   0.0000000  -0.0000000   0.0000000  )
         2           As  tau(   2) = (  -0.2492345   0.2492345   0.2492345  )

     number of k points=    29
                       cart. coord. in units 2pi/alat
        k(    1) = (   0.0000000   0.0000000   0.0000000), wk =   0.0039062
        k(    2) = (  -0.1253839   0.1253839  -0.1253839), wk =   0.0312500
        k(    3) = (  -0.2507678   0.2507678  -0.2507678), wk =   0.0312500
        k(    4) = (  -0.3761518   0.3761518  -0.3761518), wk =   0.0312500
        k(    5) = (   0.5015357  -0.5015357   0.5015357), wk =   0.0156250
        k(    6) = (   0.0000000   0.2507678   0.0000000), wk =   0.0234375
        k(    7) = (  -0.1253839   0.3761518  -0.1253839), wk =   0.0937500
        k(    8) = (  -0.2507678   0.5015357  -0.2507678), wk =   0.0937500
        k(    9) = (   0.6269196  -0.3761518   0.6269196), wk =   0.0937500
        k(   10) = (   0.5015357  -0.2507678   0.5015357), wk =   0.0937500
        k(   11) = (   0.3761518  -0.1253839   0.3761518), wk =   0.0937500
        k(   12) = (   0.2507678   0.0000000   0.2507678), wk =   0.0468750
        k(   13) = (   0.0000000   0.5015357   0.0000000), wk =   0.0234375
        k(   14) = (  -0.1253839   0.6269196  -0.1253839), wk =   0.0937500
        k(   15) = (   0.7523035  -0.2507678   0.7523035), wk =   0.0937500
        k(   16) = (   0.6269196  -0.1253839   0.6269196), wk =   0.0937500
        k(   17) = (   0.5015357   0.0000000   0.5015357), wk =   0.0468750
        k(   18) = (  -0.0000000   0.7523035  -0.0000000), wk =   0.0234375
        k(   19) = (   0.8776874  -0.1253839   0.8776874), wk =   0.0937500
        k(   20) = (   0.7523035  -0.0000000   0.7523035), wk =   0.0468750
        k(   21) = (   0.0000000  -1.0030714   0.0000000), wk =   0.0117188
        k(   22) = (  -0.2507678   0.5015357  -0.0000000), wk =   0.0937500
        k(   23) = (   0.6269196  -0.3761518   0.8776874), wk =   0.1875000
        k(   24) = (   0.5015357  -0.2507678   0.7523035), wk =   0.0937500
        k(   25) = (   0.7523035  -0.2507678   1.0030714), wk =   0.0937500
        k(   26) = (   0.6269196  -0.1253839   0.8776874), wk =   0.1875000
        k(   27) = (   0.5015357  -0.0000000   0.7523035), wk =   0.0937500
        k(   28) = (  -0.2507678  -1.0030714   0.0000000), wk =   0.0468750
        k(   29) = (  -0.5015357  -1.0030714   0.0000000), wk =   0.0234375

     Dense  grid:    31951 G-vectors     FFT dimensions: (  45,  45,  45)

     Smooth grid:     6183 G-vectors     FFT dimensions: (  25,  25,  25)

     Estimated max dynamical RAM per process >     127.56 MB

     Initial potential from superposition of free atoms

     starting charge       7.9996, renormalised to       8.0000
     Starting wfcs are    8 randomized atomic wfcs

     total cpu time spent up to now is       77.2 secs

     Self-consistent Calculation

     iteration #  1     ecut=    40.00 Ry     beta= 0.70
     CG style diagonalization
     ethr =  1.00E-06,  avg # of iterations =  8.0

     total cpu time spent up to now is       79.1 secs

     total energy              =     -46.14551158 Ry
     estimated scf accuracy    <       0.15809748 Ry

     iteration #  2     ecut=    40.00 Ry     beta= 0.70
     CG style diagonalization
     ethr =  1.98E-03,  avg # of iterations =  4.1

     total cpu time spent up to now is       80.3 secs

     total energy              =     -46.18209054 Ry
     estimated scf accuracy    <       0.04797422 Ry

     iteration #  3     ecut=    40.00 Ry     beta= 0.70
     CG style diagonalization
     ethr =  6.00E-04,  avg # of iterations =  4.1

     total cpu time spent up to now is       81.5 secs

     total energy              =     -46.19192737 Ry
     estimated scf accuracy    <       0.00035818 Ry

     iteration #  4     ecut=    40.00 Ry     beta= 0.70
     CG style diagonalization
     ethr =  4.48E-06,  avg # of iterations =  4.2

     total cpu time spent up to now is       82.7 secs

     total energy              =     -46.19210982 Ry
     estimated scf accuracy    <       0.00002570 Ry

     iteration #  5     ecut=    40.00 Ry     beta= 0.70
     CG style diagonalization
     ethr =  3.21E-07,  avg # of iterations =  4.0

     total cpu time spent up to now is       84.0 secs

     total energy              =     -46.19211634 Ry
     estimated scf accuracy    <       0.00000011 Ry

     iteration #  6     ecut=    40.00 Ry     beta= 0.70
     CG style diagonalization
     ethr =  1.34E-09,  avg # of iterations =  7.2

     total cpu time spent up to now is       85.7 secs

     total energy              =     -46.19211714 Ry
     estimated scf accuracy    <       0.00000002 Ry

     iteration #  7     ecut=    40.00 Ry     beta= 0.70
     CG style diagonalization
     ethr =  2.83E-10,  avg # of iterations =  3.1

     total cpu time spent up to now is       86.7 secs

     total energy              =     -46.19211714 Ry
     estimated scf accuracy    <          9.6E-09 Ry

     iteration #  8     ecut=    40.00 Ry     beta= 0.70
     CG style diagonalization
     ethr =  1.21E-10,  avg # of iterations =  3.3

     total cpu time spent up to now is       87.8 secs

     total energy              =     -46.19211714 Ry
     estimated scf accuracy    <          1.4E-10 Ry

     iteration #  9     ecut=    40.00 Ry     beta= 0.70
     CG style diagonalization
     ethr =  1.77E-12,  avg # of iterations =  6.1

     total cpu time spent up to now is       89.4 secs

     End of self-consistent calculation

          k = 0.0000 0.0000 0.0000 (   749 PWs)   bands (ev):

    -6.9459   8.6165   8.6165   8.6165

          k =-0.1254 0.1254-0.1254 (   779 PWs)   bands (ev):

    -6.6866   6.6385   8.1705   8.1705

          k =-0.2508 0.2508-0.2508 (   778 PWs)   bands (ev):

    -5.9312   3.6290   7.4515   7.4515

          k =-0.3762 0.3762-0.3762 (   769 PWs)   bands (ev):

    -4.8079   1.0134   6.9486   6.9486

          k = 0.5015-0.5015 0.5015 (   778 PWs)   bands (ev):

    -4.0305  -0.2762   6.7749   6.7749

          k = 0.0000 0.2508 0.0000 (   777 PWs)   bands (ev):

    -6.5997   7.1937   7.4299   7.4299

          k =-0.1254 0.3762-0.1254 (   781 PWs)   bands (ev):

    -6.0069   4.6261   6.6788   6.9667

          k =-0.2508 0.5015-0.2508 (   783 PWs)   bands (ev):

    -4.9846   1.9318   6.1746   6.2693

          k = 0.6269-0.3762 0.6269 (   773 PWs)   bands (ev):

    -3.9405   0.0793   5.5550   6.2816

          k = 0.5015-0.2508 0.5015 (   778 PWs)   bands (ev):

    -4.2283   0.5365   5.2881   6.6952

          k = 0.3762-0.1254 0.3762 (   781 PWs)   bands (ev):

    -5.3656   2.7909   5.4621   7.4078

          k = 0.2508 0.0000 0.2508 (   775 PWs)   bands (ev):

    -6.2604   5.3431   6.3207   8.1300

          k = 0.0000 0.5015 0.0000 (   769 PWs)   bands (ev):

    -5.5831   4.5403   5.8637   5.8637

          k =-0.1254 0.6269-0.1254 (   775 PWs)   bands (ev):

    -4.7085   2.6679   4.9022   5.3973

          k = 0.7523-0.2508 0.7523 (   768 PWs)   bands (ev):

    -3.6285   0.8563   3.8050   5.3880

          k = 0.6269-0.1254 0.6269 (   773 PWs)   bands (ev):

    -3.4037   0.5653   3.1646   5.8316

          k = 0.5015 0.0000 0.5015 (   784 PWs)   bands (ev):

    -4.3929   1.9440   3.4273   6.6202

          k =-0.0000 0.7523-0.0000 (   777 PWs)   bands (ev):

    -4.0093   1.7928   4.8266   4.8266

          k = 0.8777-0.1254 0.8777 (   766 PWs)   bands (ev):

    -3.0969   0.6696   3.7413   4.7119

          k = 0.7523-0.0000 0.7523 (   762 PWs)   bands (ev):

    -2.7593   0.4837   2.5206   5.0737

          k = 0.0000-1.0031 0.0000 (   774 PWs)   bands (ev):

    -2.7289   0.0879   4.4702   4.4702

          k =-0.2508 0.5015-0.0000 (   776 PWs)   bands (ev):

    -5.2712   3.4041   4.8305   6.5665

          k = 0.6269-0.3762 0.8777 (   775 PWs)   bands (ev):

    -4.1887   1.4048   4.1132   5.8306

          k = 0.5015-0.2508 0.7523 (   764 PWs)   bands (ev):

    -3.4553   0.2587   3.9982   5.4841

          k = 0.7523-0.2508 1.0031 (   763 PWs)   bands (ev):

    -3.7759   1.5546   3.8948   4.6612

          k = 0.6269-0.1254 0.8777 (   762 PWs)   bands (ev):

    -2.9228   0.6480   2.9270   4.3927

          k = 0.5015-0.0000 0.7523 (   769 PWs)   bands (ev):

    -3.2159   0.9470   2.6850   4.9271

          k =-0.2508-1.0031 0.0000 (   770 PWs)   bands (ev):

    -2.6462   0.3039   3.7061   3.8139

          k =-0.5015-1.0031 0.0000 (   772 PWs)   bands (ev):

    -2.5573   0.5943   2.9990   3.2913

     highest occupied level (ev):     8.6165

!    total energy              =     -46.19211714 Ry
     estimated scf accuracy    <          7.0E-11 Ry

     The total energy is the sum of the following terms:
     one-electron contribution =       6.79712650 Ry
     hartree contribution      =       1.23115641 Ry
     xc contribution           =     -34.16528231 Ry
     ewald contribution        =     -20.05511774 Ry

     convergence has been achieved in   9 iterations

     Forces acting on atoms (cartesian axes, Ry/au):

     atom    1 type  1   force =    -0.00000000    0.00000000    0.00000000
     atom    2 type  2   force =     0.00000000   -0.00000000    0.00000000

     Total force =     0.000000     Total SCF correction =     0.000000


     Computing stress (Cartesian axis) and pressure

          total   stress  (Ry/bohr**3)                   (kbar)     P=        0.03
   0.00000021  -0.00000000  -0.00000000            0.03       -0.00       -0.00
  -0.00000000   0.00000021  -0.00000000           -0.00        0.03       -0.00
  -0.00000000  -0.00000000   0.00000021           -0.00       -0.00        0.03


     Writing all to output data dir ./q2_b_1.save/
 
     init_run     :     10.00s CPU     10.46s WALL (       2 calls)
     electrons    :     44.97s CPU     50.71s WALL (       4 calls)
     update_pot   :      5.05s CPU      5.06s WALL (       2 calls)
     forces       :      7.78s CPU      7.87s WALL (       4 calls)
     stress       :     18.70s CPU     18.99s WALL (       4 calls)

     Called by init_run:
     wfcinit      :      0.56s CPU      0.66s WALL (       2 calls)
     potinit      :      0.91s CPU      0.94s WALL (       2 calls)
     hinit0       :      8.08s CPU      8.22s WALL (       2 calls)

     Called by electrons:
     c_bands      :     24.95s CPU     28.82s WALL (      41 calls)
     sum_band     :     12.12s CPU     13.00s WALL (      41 calls)
     v_of_rho     :      1.01s CPU      1.03s WALL (      44 calls)
     newd         :      7.12s CPU      7.95s WALL (      44 calls)
     mix_rho      :      0.29s CPU      0.30s WALL (      41 calls)

     Called by c_bands:
     init_us_2    :      2.47s CPU      2.78s WALL (    2668 calls)
     init_us_2:cp :      2.42s CPU      2.73s WALL (    2668 calls)
     ccgdiagg     :     19.34s CPU     21.29s WALL (    1189 calls)
     wfcrot       :      4.59s CPU      4.87s WALL (    1102 calls)

     Called by *cgdiagg:
     h_psi        :     18.92s CPU     20.60s WALL (   16983 calls)
     s_psi        :      1.44s CPU      1.60s WALL (   32864 calls)

     Called by h_psi:
     h_psi:calbec :      1.42s CPU      1.55s WALL (   16983 calls)
     vloc_psi     :     15.67s CPU     17.09s WALL (   16983 calls)
     add_vuspsi   :      0.97s CPU      1.05s WALL (   16983 calls)
     hs_1psi      :     16.48s CPU     18.09s WALL (   15881 calls)
     s_1psi       :      1.88s CPU      2.07s WALL (   15881 calls)

     General routines
     calbec       :      2.03s CPU      2.26s WALL (   34633 calls)
     fft          :      0.70s CPU      0.74s WALL (     291 calls)
     ffts         :      0.03s CPU      0.04s WALL (      85 calls)
     fftw         :     15.01s CPU     16.30s WALL (   45798 calls)
     interpolate  :      0.15s CPU      0.16s WALL (      44 calls)
 
     Parallel routines
 
     PWSCF        :   1m27.82s CPU   1m36.50s WALL

 
   This run was terminated on:   9:12:21  20Feb2022            

=------------------------------------------------------------------------------=
   JOB DONE.
=------------------------------------------------------------------------------=
