
     Program PWSCF v.7.0 starts on 14Mar2022 at 17: 2:57 

     This program is part of the open-source Quantum ESPRESSO suite
     for quantum simulation of materials; please cite
         "P. Giannozzi et al., J. Phys.:Condens. Matter 21 395502 (2009);
         "P. Giannozzi et al., J. Phys.:Condens. Matter 29 465901 (2017);
         "P. Giannozzi et al., J. Chem. Phys. 152 154105 (2020);
          URL http://www.quantum-espresso.org", 
     in publications or presentations arising from this work. More details at
     http://www.quantum-espresso.org/quote

     Parallel version (MPI), running on     1 processors

     MPI processes distributed on     1 nodes
     90689 MiB available memory on the printing compute node when the environment starts
 
     Waiting for input...
     Reading input from standard input
Warning: card &CELL ignored
Warning: card  CELL_DYNAMICS = 'BFGS', ignored
Warning: card  PRESS=0.1D0, ignored
Warning: card / ignored
     Message from routine read_cards :
     DEPRECATED: no units specified in ATOMIC_POSITIONS card
     Message from routine read_cards :
     ATOMIC_POSITIONS: units set to alat

     Current dimensions of program PWSCF are:
     Max number of different atomic species (ntypx) = 10
     Max number of k-points (npk) =  40000
     Max angular momentum in pseudopotentials (lmaxx) =  4

     Subspace diagonalization in iterative solution of the eigenvalue problem:
     a serial algorithm will be used

 
     G-vector sticks info
     --------------------
     sticks:   dense  smooth     PW     G-vecs:    dense   smooth      PW
     Sum         931     313    109                18907     3695     725
 
     Using Slab Decomposition
 


     bravais-lattice index     =            2
     lattice parameter (alat)  =       6.7400  a.u.
     unit-cell volume          =      76.5455 (a.u.)^3
     number of atoms/cell      =            2
     number of atomic types    =            1
     number of electrons       =         8.00
     number of Kohn-Sham states=            4
     kinetic-energy cutoff     =      50.0000  Ry
     charge density cutoff     =     600.0000  Ry
     scf convergence threshold =      1.0E-08
     mixing beta               =       0.7000
     number of iterations used =            8  plain     mixing
     Exchange-correlation= SLA  PZ   NOGX NOGC
                           (   1   1   0   0   0   0   0)

     celldm(1)=   6.740000  celldm(2)=   0.000000  celldm(3)=   0.000000
     celldm(4)=   0.000000  celldm(5)=   0.000000  celldm(6)=   0.000000

     crystal axes: (cart. coord. in units of alat)
               a(1) = (  -0.500000   0.000000   0.500000 )  
               a(2) = (   0.000000   0.500000   0.500000 )  
               a(3) = (  -0.500000   0.500000   0.000000 )  

     reciprocal axes: (cart. coord. in units 2 pi/alat)
               b(1) = ( -1.000000 -1.000000  1.000000 )  
               b(2) = (  1.000000  1.000000  1.000000 )  
               b(3) = ( -1.000000  1.000000 -1.000000 )  


     PseudoPot. # 1 for C  read from file:
     ../C_LDA.UPF
     MD5 check sum: 407c1fe918d93b14b177d5600f28733c
     Pseudo is Ultrasoft + core correction, Zval =  4.0
     Generated by new atomic code, or converted to UPF format
     Using radial grid of  721 points,  4 beta functions with: 
                l(1) =   0
                l(2) =   0
                l(3) =   1
                l(4) =   1
     Q(r) pseudized with  8 coefficients,  rinner =    1.100   1.100   1.100


     atomic species   valence    mass     pseudopotential
        C              4.00    12.01100     C ( 1.00)

     48 Sym. Ops., with inversion, found (24 have fractional translation)



   Cartesian axes

     site n.     atom                  positions (alat units)
         1           C   tau(   1) = (   0.0000000   0.0000000   0.0000000  )
         2           C   tau(   2) = (   0.2500000   0.2500000   0.2500000  )

     number of k points=    10
                       cart. coord. in units 2pi/alat
        k(    1) = (   0.0000000   0.0000000   0.0000000), wk =   0.0160000
        k(    2) = (  -0.2000000   0.2000000  -0.2000000), wk =   0.1280000
        k(    3) = (  -0.4000000   0.4000000  -0.4000000), wk =   0.1280000
        k(    4) = (   0.0000000   0.4000000   0.0000000), wk =   0.0960000
        k(    5) = (  -0.2000000   0.6000000  -0.2000000), wk =   0.3840000
        k(    6) = (   0.6000000  -0.2000000   0.6000000), wk =   0.3840000
        k(    7) = (   0.4000000   0.0000000   0.4000000), wk =   0.1920000
        k(    8) = (   0.0000000   0.8000000   0.0000000), wk =   0.0960000
        k(    9) = (   0.8000000   0.0000000   0.8000000), wk =   0.1920000
        k(   10) = (   0.6000000  -0.2000000   1.0000000), wk =   0.3840000

     Dense  grid:    18907 G-vectors     FFT dimensions: (  40,  40,  40)

     Smooth grid:     3695 G-vectors     FFT dimensions: (  24,  24,  24)

     Estimated max dynamical RAM per process >      27.54 MB

     Initial potential from superposition of free atoms

     starting charge       7.9999, renormalised to       8.0000
     Starting wfcs are    8 randomized atomic wfcs

     total cpu time spent up to now is        1.0 secs

     Self-consistent Calculation

     iteration #  1     ecut=    50.00 Ry     beta= 0.70
     CG style diagonalization
     ethr =  1.00E-02,  avg # of iterations =  3.0

     total cpu time spent up to now is        1.3 secs

     total energy              =     -23.03837276 Ry
     estimated scf accuracy    <       0.13306281 Ry

     iteration #  2     ecut=    50.00 Ry     beta= 0.70
     CG style diagonalization
     ethr =  1.66E-03,  avg # of iterations =  3.5

     total cpu time spent up to now is        1.6 secs

     total energy              =     -23.05375433 Ry
     estimated scf accuracy    <       0.00148251 Ry

     iteration #  3     ecut=    50.00 Ry     beta= 0.70
     CG style diagonalization
     ethr =  1.85E-05,  avg # of iterations =  4.0

     total cpu time spent up to now is        1.8 secs

     total energy              =     -23.05421510 Ry
     estimated scf accuracy    <       0.00004646 Ry

     iteration #  4     ecut=    50.00 Ry     beta= 0.70
     CG style diagonalization
     ethr =  5.81E-07,  avg # of iterations =  4.0

     total cpu time spent up to now is        2.1 secs

     total energy              =     -23.05423135 Ry
     estimated scf accuracy    <       0.00000137 Ry

     iteration #  5     ecut=    50.00 Ry     beta= 0.70
     CG style diagonalization
     ethr =  1.71E-08,  avg # of iterations =  4.0

     total cpu time spent up to now is        2.4 secs

     End of self-consistent calculation

          k = 0.0000 0.0000 0.0000 (   459 PWs)   bands (ev):

    -8.2114  13.1020  13.1020  13.1020

          k =-0.2000 0.2000-0.2000 (   465 PWs)   bands (ev):

    -7.1109   8.2663  11.7821  11.7821

          k =-0.4000 0.4000-0.4000 (   467 PWs)   bands (ev):

    -3.9373   1.7562  10.4843  10.4843

          k = 0.0000 0.4000 0.0000 (   463 PWs)   bands (ev):

    -6.7455   9.8779   9.8779  10.1037

          k =-0.2000 0.6000-0.2000 (   452 PWs)   bands (ev):

    -4.2499   4.3911   8.4456   8.7055

          k = 0.6000-0.2000 0.6000 (   453 PWs)   bands (ev):

    -1.8027   0.9674   6.7741   9.2684

          k = 0.4000 0.0000 0.4000 (   453 PWs)   bands (ev):

    -5.3098   6.2161   7.1071  11.1228

          k = 0.0000 0.8000 0.0000 (   452 PWs)   bands (ev):

    -2.4946   3.8188   7.1659   7.1659

          k = 0.8000 0.0000 0.8000 (   462 PWs)   bands (ev):

     0.5865   1.1489   4.2930   7.4138

          k = 0.6000-0.2000 1.0000 (   454 PWs)   bands (ev):

    -1.2705   3.0998   4.7754   6.7073

     highest occupied level (ev):    13.1020

!    total energy              =     -23.05423188 Ry
     estimated scf accuracy    <          4.1E-09 Ry

     The total energy is the sum of the following terms:
     one-electron contribution =       7.94430688 Ry
     hartree contribution      =       1.92205438 Ry
     xc contribution           =      -7.34529085 Ry
     ewald contribution        =     -25.57530229 Ry

     convergence has been achieved in   5 iterations

     Forces acting on atoms (cartesian axes, Ry/au):

     atom    1 type  1   force =    -0.00000000    0.00000000    0.00000000
     atom    2 type  1   force =     0.00000000    0.00000000   -0.00000000

     Total force =     0.000000     Total SCF correction =     0.000000


     Computing stress (Cartesian axis) and pressure

          total   stress  (Ry/bohr**3)                   (kbar)     P=     -123.67
  -0.00084069  -0.00000000   0.00000000         -123.67       -0.00        0.00
  -0.00000000  -0.00084069  -0.00000000           -0.00     -123.67       -0.00
   0.00000000  -0.00000000  -0.00084069            0.00       -0.00     -123.67


     Writing all to output data dir ./Diamond.save/
 
     init_run     :      0.57s CPU      0.62s WALL (       1 calls)
     electrons    :      1.26s CPU      1.42s WALL (       1 calls)
     forces       :      0.09s CPU      0.10s WALL (       1 calls)
     stress       :      0.44s CPU      0.46s WALL (       1 calls)

     Called by init_run:
     wfcinit      :      0.08s CPU      0.08s WALL (       1 calls)
     potinit      :      0.02s CPU      0.03s WALL (       1 calls)
     hinit0       :      0.41s CPU      0.43s WALL (       1 calls)

     Called by electrons:
     c_bands      :      0.74s CPU      0.81s WALL (       5 calls)
     sum_band     :      0.29s CPU      0.32s WALL (       5 calls)
     v_of_rho     :      0.10s CPU      0.10s WALL (       6 calls)
     newd         :      0.14s CPU      0.18s WALL (       6 calls)
     mix_rho      :      0.02s CPU      0.02s WALL (       5 calls)

     Called by c_bands:
     init_us_2    :      0.04s CPU      0.05s WALL (     130 calls)
     init_us_2:cp :      0.04s CPU      0.04s WALL (     130 calls)
     ccgdiagg     :      0.57s CPU      0.63s WALL (      50 calls)
     wfcrot       :      0.20s CPU      0.22s WALL (      50 calls)

     Called by *cgdiagg:
     h_psi        :      0.64s CPU      0.70s WALL (     627 calls)
     s_psi        :      0.03s CPU      0.03s WALL (    1204 calls)

     Called by h_psi:
     h_psi:calbec :      0.03s CPU      0.03s WALL (     627 calls)
     vloc_psi     :      0.57s CPU      0.61s WALL (     627 calls)
     add_vuspsi   :      0.02s CPU      0.02s WALL (     627 calls)
     hs_1psi      :      0.50s CPU      0.55s WALL (     577 calls)
     s_1psi       :      0.05s CPU      0.05s WALL (     577 calls)

     General routines
     calbec       :      0.04s CPU      0.05s WALL (    1304 calls)
     fft          :      0.07s CPU      0.09s WALL (      42 calls)
     ffts         :      0.00s CPU      0.01s WALL (      11 calls)
     fftw         :      0.56s CPU      0.60s WALL (    1834 calls)
     interpolate  :      0.01s CPU      0.02s WALL (       6 calls)
 
     Parallel routines
 
     PWSCF        :      2.68s CPU      3.24s WALL

 
   This run was terminated on:  17: 3: 1  14Mar2022            

=------------------------------------------------------------------------------=
   JOB DONE.
=------------------------------------------------------------------------------=
