
     Program PWSCF v.7.0 starts on 14Mar2022 at 17: 3:13 

     This program is part of the open-source Quantum ESPRESSO suite
     for quantum simulation of materials; please cite
         "P. Giannozzi et al., J. Phys.:Condens. Matter 21 395502 (2009);
         "P. Giannozzi et al., J. Phys.:Condens. Matter 29 465901 (2017);
         "P. Giannozzi et al., J. Chem. Phys. 152 154105 (2020);
          URL http://www.quantum-espresso.org", 
     in publications or presentations arising from this work. More details at
     http://www.quantum-espresso.org/quote

     Parallel version (MPI), running on     1 processors

     MPI processes distributed on     1 nodes
     90688 MiB available memory on the printing compute node when the environment starts
 
     Waiting for input...
     Reading input from standard input
Warning: card &CELL ignored
Warning: card  CELL_DYNAMICS = 'BFGS', ignored
Warning: card  PRESS=0.1D0, ignored
Warning: card / ignored
     Message from routine read_cards :
     DEPRECATED: no units specified in ATOMIC_POSITIONS card
     Message from routine read_cards :
     ATOMIC_POSITIONS: units set to alat

     Current dimensions of program PWSCF are:
     Max number of different atomic species (ntypx) = 10
     Max number of k-points (npk) =  40000
     Max angular momentum in pseudopotentials (lmaxx) =  4

     Subspace diagonalization in iterative solution of the eigenvalue problem:
     a serial algorithm will be used

 
     G-vector sticks info
     --------------------
     sticks:   dense  smooth     PW     G-vecs:    dense   smooth      PW
     Sum         931     313    109                18907     3695     725
 
     Using Slab Decomposition
 


     bravais-lattice index     =            2
     lattice parameter (alat)  =       6.7400  a.u.
     unit-cell volume          =      76.5455 (a.u.)^3
     number of atoms/cell      =            2
     number of atomic types    =            1
     number of electrons       =         8.00
     number of Kohn-Sham states=            4
     kinetic-energy cutoff     =      50.0000  Ry
     charge density cutoff     =     600.0000  Ry
     scf convergence threshold =      1.0E-08
     mixing beta               =       0.7000
     number of iterations used =            8  plain     mixing
     Exchange-correlation= SLA  PZ   NOGX NOGC
                           (   1   1   0   0   0   0   0)

     celldm(1)=   6.740000  celldm(2)=   0.000000  celldm(3)=   0.000000
     celldm(4)=   0.000000  celldm(5)=   0.000000  celldm(6)=   0.000000

     crystal axes: (cart. coord. in units of alat)
               a(1) = (  -0.500000   0.000000   0.500000 )  
               a(2) = (   0.000000   0.500000   0.500000 )  
               a(3) = (  -0.500000   0.500000   0.000000 )  

     reciprocal axes: (cart. coord. in units 2 pi/alat)
               b(1) = ( -1.000000 -1.000000  1.000000 )  
               b(2) = (  1.000000  1.000000  1.000000 )  
               b(3) = ( -1.000000  1.000000 -1.000000 )  


     PseudoPot. # 1 for C  read from file:
     ../C_LDA.UPF
     MD5 check sum: 407c1fe918d93b14b177d5600f28733c
     Pseudo is Ultrasoft + core correction, Zval =  4.0
     Generated by new atomic code, or converted to UPF format
     Using radial grid of  721 points,  4 beta functions with: 
                l(1) =   0
                l(2) =   0
                l(3) =   1
                l(4) =   1
     Q(r) pseudized with  8 coefficients,  rinner =    1.100   1.100   1.100


     atomic species   valence    mass     pseudopotential
        C              4.00    12.01100     C ( 1.00)

     48 Sym. Ops., with inversion, found (24 have fractional translation)



   Cartesian axes

     site n.     atom                  positions (alat units)
         1           C   tau(   1) = (   0.0000000   0.0000000   0.0000000  )
         2           C   tau(   2) = (   0.2500000   0.2500000   0.2500000  )

     number of k points=    29
                       cart. coord. in units 2pi/alat
        k(    1) = (   0.0000000   0.0000000   0.0000000), wk =   0.0039062
        k(    2) = (  -0.1250000   0.1250000  -0.1250000), wk =   0.0312500
        k(    3) = (  -0.2500000   0.2500000  -0.2500000), wk =   0.0312500
        k(    4) = (  -0.3750000   0.3750000  -0.3750000), wk =   0.0312500
        k(    5) = (   0.5000000  -0.5000000   0.5000000), wk =   0.0156250
        k(    6) = (   0.0000000   0.2500000   0.0000000), wk =   0.0234375
        k(    7) = (  -0.1250000   0.3750000  -0.1250000), wk =   0.0937500
        k(    8) = (  -0.2500000   0.5000000  -0.2500000), wk =   0.0937500
        k(    9) = (   0.6250000  -0.3750000   0.6250000), wk =   0.0937500
        k(   10) = (   0.5000000  -0.2500000   0.5000000), wk =   0.0937500
        k(   11) = (   0.3750000  -0.1250000   0.3750000), wk =   0.0937500
        k(   12) = (   0.2500000   0.0000000   0.2500000), wk =   0.0468750
        k(   13) = (   0.0000000   0.5000000   0.0000000), wk =   0.0234375
        k(   14) = (  -0.1250000   0.6250000  -0.1250000), wk =   0.0937500
        k(   15) = (   0.7500000  -0.2500000   0.7500000), wk =   0.0937500
        k(   16) = (   0.6250000  -0.1250000   0.6250000), wk =   0.0937500
        k(   17) = (   0.5000000   0.0000000   0.5000000), wk =   0.0468750
        k(   18) = (   0.0000000   0.7500000   0.0000000), wk =   0.0234375
        k(   19) = (   0.8750000  -0.1250000   0.8750000), wk =   0.0937500
        k(   20) = (   0.7500000   0.0000000   0.7500000), wk =   0.0468750
        k(   21) = (   0.0000000  -1.0000000   0.0000000), wk =   0.0117188
        k(   22) = (  -0.2500000   0.5000000   0.0000000), wk =   0.0937500
        k(   23) = (   0.6250000  -0.3750000   0.8750000), wk =   0.1875000
        k(   24) = (   0.5000000  -0.2500000   0.7500000), wk =   0.0937500
        k(   25) = (   0.7500000  -0.2500000   1.0000000), wk =   0.0937500
        k(   26) = (   0.6250000  -0.1250000   0.8750000), wk =   0.1875000
        k(   27) = (   0.5000000   0.0000000   0.7500000), wk =   0.0937500
        k(   28) = (  -0.2500000  -1.0000000   0.0000000), wk =   0.0468750
        k(   29) = (  -0.5000000  -1.0000000   0.0000000), wk =   0.0234375

     Dense  grid:    18907 G-vectors     FFT dimensions: (  40,  40,  40)

     Smooth grid:     3695 G-vectors     FFT dimensions: (  24,  24,  24)

     Estimated max dynamical RAM per process >      28.07 MB

     Initial potential from superposition of free atoms

     starting charge       7.9999, renormalised to       8.0000
     Starting wfcs are    8 randomized atomic wfcs

     total cpu time spent up to now is        1.2 secs

     Self-consistent Calculation

     iteration #  1     ecut=    50.00 Ry     beta= 0.70
     CG style diagonalization
     ethr =  1.00E-02,  avg # of iterations =  3.0

     total cpu time spent up to now is        1.7 secs

     total energy              =     -23.04077413 Ry
     estimated scf accuracy    <       0.13202439 Ry

     iteration #  2     ecut=    50.00 Ry     beta= 0.70
     CG style diagonalization
     ethr =  1.65E-03,  avg # of iterations =  3.6

     total cpu time spent up to now is        2.2 secs

     total energy              =     -23.05615881 Ry
     estimated scf accuracy    <       0.00141883 Ry

     iteration #  3     ecut=    50.00 Ry     beta= 0.70
     CG style diagonalization
     ethr =  1.77E-05,  avg # of iterations =  4.0

     total cpu time spent up to now is        2.8 secs

     total energy              =     -23.05661000 Ry
     estimated scf accuracy    <       0.00005063 Ry

     iteration #  4     ecut=    50.00 Ry     beta= 0.70
     CG style diagonalization
     ethr =  6.33E-07,  avg # of iterations =  4.0

     total cpu time spent up to now is        3.4 secs

     total energy              =     -23.05662772 Ry
     estimated scf accuracy    <       0.00000244 Ry

     iteration #  5     ecut=    50.00 Ry     beta= 0.70
     CG style diagonalization
     ethr =  3.05E-08,  avg # of iterations =  4.0

     total cpu time spent up to now is        4.1 secs

     total energy              =     -23.05662874 Ry
     estimated scf accuracy    <       0.00000004 Ry

     iteration #  6     ecut=    50.00 Ry     beta= 0.70
     CG style diagonalization
     ethr =  4.87E-10,  avg # of iterations =  4.4

     total cpu time spent up to now is        4.7 secs

     End of self-consistent calculation

          k = 0.0000 0.0000 0.0000 (   459 PWs)   bands (ev):

    -8.2163  13.0925  13.0925  13.0925

          k =-0.1250 0.1250-0.1250 (   465 PWs)   bands (ev):

    -7.7850  10.7038  12.4415  12.4415

          k =-0.2500 0.2500-0.2500 (   465 PWs)   bands (ev):

    -6.5033   6.5593  11.3516  11.3516

          k =-0.3750 0.3750-0.3750 (   462 PWs)   bands (ev):

    -4.4324   2.4900  10.5728  10.5728

          k = 0.5000-0.5000 0.5000 (   464 PWs)   bands (ev):

    -2.3794  -0.2633  10.3017  10.3017

          k = 0.0000 0.2500 0.0000 (   459 PWs)   bands (ev):

    -7.6415  11.3683  11.3683  11.8139

          k =-0.1250 0.3750-0.1250 (   468 PWs)   bands (ev):

    -6.6437   8.0570  10.2205  11.0951

          k =-0.2500 0.5000-0.2500 (   458 PWs)   bands (ev):

    -4.8308   4.0513   9.5757   9.9306

          k = 0.6250-0.3750 0.6250 (   455 PWs)   bands (ev):

    -2.4646   0.5869   8.9777   9.5763

          k = 0.5000-0.2500 0.5000 (   450 PWs)   bands (ev):

    -3.2556   1.6102   8.5434  10.1924

          k = 0.3750-0.1250 0.3750 (   459 PWs)   bands (ev):

    -5.5215   5.3976   8.7531  11.2604

          k = 0.2500 0.0000 0.2500 (   469 PWs)   bands (ev):

    -7.0703   9.1643   9.8464  12.3395

          k = 0.0000 0.5000 0.0000 (   456 PWs)   bands (ev):

    -5.9356   8.6930   8.9745   8.9745

          k =-0.1250 0.6250-0.1250 (   454 PWs)   bands (ev):

    -4.4061   5.6807   7.9065   8.2459

          k = 0.7500-0.2500 0.7500 (   453 PWs)   bands (ev):

    -2.1861   2.3999   6.3948   8.2223

          k = 0.6250-0.1250 0.6250 (   452 PWs)   bands (ev):

    -1.4665   1.5747   5.3905   8.8966

          k = 0.5000 0.0000 0.5000 (   463 PWs)   bands (ev):

    -3.7483   4.5074   5.4941  10.0881

          k = 0.0000 0.7500 0.0000 (   452 PWs)   bands (ev):

    -3.1688   4.6591   7.3587   7.3587

          k = 0.8750-0.1250 0.8750 (   456 PWs)   bands (ev):

    -1.2037   2.5881   5.7419   7.1768

          k = 0.7500 0.0000 0.7500 (   458 PWs)   bands (ev):

     0.3313   1.5087   3.7335   7.7353

          k = 0.0000-1.0000 0.0000 (   460 PWs)   bands (ev):

     0.4875   0.4875   6.8000   6.8000

          k =-0.2500 0.5000 0.0000 (   462 PWs)   bands (ev):

    -5.3790   6.6775   7.6001  10.2247

          k = 0.6250-0.3750 0.8750 (   451 PWs)   bands (ev):

    -3.3482   3.3329   6.8563   9.0206

          k = 0.5000-0.2500 0.7500 (   450 PWs)   bands (ev):

    -1.3774   0.7671   6.8355   8.4043

          k = 0.7500-0.2500 1.0000 (   454 PWs)   bands (ev):

    -2.6558   4.2400   6.1053   7.1445

          k = 0.6250-0.1250 0.8750 (   457 PWs)   bands (ev):

    -0.4360   2.0597   4.6888   6.7370

          k = 0.5000 0.0000 0.7500 (   457 PWs)   bands (ev):

    -1.2349   2.8343   4.2147   7.6199

          k =-0.2500-1.0000 0.0000 (   452 PWs)   bands (ev):

     0.8385   0.8385   5.7715   5.7715

          k =-0.5000-1.0000 0.0000 (   464 PWs)   bands (ev):

     1.3204   1.3204   4.7347   4.7347

     highest occupied level (ev):    13.0925

!    total energy              =     -23.05662877 Ry
     estimated scf accuracy    <          1.7E-09 Ry

     The total energy is the sum of the following terms:
     one-electron contribution =       7.94502350 Ry
     hartree contribution      =       1.91725595 Ry
     xc contribution           =      -7.34360593 Ry
     ewald contribution        =     -25.57530229 Ry

     convergence has been achieved in   6 iterations

     Forces acting on atoms (cartesian axes, Ry/au):

     atom    1 type  1   force =     0.00000000    0.00000000    0.00000000
     atom    2 type  1   force =    -0.00000000    0.00000000   -0.00000000

     Total force =     0.000000     Total SCF correction =     0.000000


     Computing stress (Cartesian axis) and pressure

          total   stress  (Ry/bohr**3)                   (kbar)     P=     -126.54
  -0.00086023   0.00000000  -0.00000000         -126.54        0.00       -0.00
   0.00000000  -0.00086023   0.00000000            0.00     -126.54        0.00
  -0.00000000   0.00000000  -0.00086023           -0.00        0.00     -126.54


     Writing all to output data dir ./Diamond.save/
 
     init_run     :      0.70s CPU      0.75s WALL (       1 calls)
     electrons    :      3.15s CPU      3.55s WALL (       1 calls)
     forces       :      0.08s CPU      0.09s WALL (       1 calls)
     stress       :      0.37s CPU      0.38s WALL (       1 calls)

     Called by init_run:
     wfcinit      :      0.20s CPU      0.22s WALL (       1 calls)
     potinit      :      0.02s CPU      0.03s WALL (       1 calls)
     hinit0       :      0.42s CPU      0.43s WALL (       1 calls)

     Called by electrons:
     c_bands      :      2.36s CPU      2.65s WALL (       6 calls)
     sum_band     :      0.52s CPU      0.57s WALL (       6 calls)
     v_of_rho     :      0.11s CPU      0.12s WALL (       7 calls)
     newd         :      0.16s CPU      0.20s WALL (       7 calls)
     mix_rho      :      0.02s CPU      0.02s WALL (       6 calls)

     Called by c_bands:
     init_us_2    :      0.12s CPU      0.14s WALL (     435 calls)
     init_us_2:cp :      0.12s CPU      0.14s WALL (     435 calls)
     ccgdiagg     :      1.82s CPU      2.05s WALL (     174 calls)
     wfcrot       :      0.62s CPU      0.66s WALL (     174 calls)

     Called by *cgdiagg:
     h_psi        :      1.97s CPU      2.18s WALL (    2258 calls)
     s_psi        :      0.10s CPU      0.12s WALL (    4342 calls)

     Called by h_psi:
     h_psi:calbec :      0.10s CPU      0.11s WALL (    2258 calls)
     vloc_psi     :      1.71s CPU      1.89s WALL (    2258 calls)
     add_vuspsi   :      0.06s CPU      0.07s WALL (    2258 calls)
     hs_1psi      :      1.58s CPU      1.77s WALL (    2084 calls)
     s_1psi       :      0.16s CPU      0.18s WALL (    2084 calls)

     General routines
     calbec       :      0.13s CPU      0.15s WALL (    4661 calls)
     fft          :      0.07s CPU      0.08s WALL (      48 calls)
     ffts         :      0.00s CPU      0.01s WALL (      13 calls)
     fftw         :      1.64s CPU      1.81s WALL (    6488 calls)
     interpolate  :      0.01s CPU      0.02s WALL (       7 calls)
 
     Parallel routines
 
     PWSCF        :      4.64s CPU      5.52s WALL

 
   This run was terminated on:  17: 3:18  14Mar2022            

=------------------------------------------------------------------------------=
   JOB DONE.
=------------------------------------------------------------------------------=
