
     Program PWSCF v.7.0 starts on 14Mar2022 at 17:10: 6 

     This program is part of the open-source Quantum ESPRESSO suite
     for quantum simulation of materials; please cite
         "P. Giannozzi et al., J. Phys.:Condens. Matter 21 395502 (2009);
         "P. Giannozzi et al., J. Phys.:Condens. Matter 29 465901 (2017);
         "P. Giannozzi et al., J. Chem. Phys. 152 154105 (2020);
          URL http://www.quantum-espresso.org", 
     in publications or presentations arising from this work. More details at
     http://www.quantum-espresso.org/quote

     Parallel version (MPI), running on     1 processors

     MPI processes distributed on     1 nodes
     91913 MiB available memory on the printing compute node when the environment starts
 
     Waiting for input...
     Reading input from standard input
Warning: card &CELL ignored
Warning: card  CELL_DYNAMICS = 'BFGS', ignored
Warning: card  PRESS=0.1D0, ignored
Warning: card / ignored
     Message from routine read_cards :
     DEPRECATED: no units specified in ATOMIC_POSITIONS card
     Message from routine read_cards :
     ATOMIC_POSITIONS: units set to alat

     Current dimensions of program PWSCF are:
     Max number of different atomic species (ntypx) = 10
     Max number of k-points (npk) =  40000
     Max angular momentum in pseudopotentials (lmaxx) =  4

     Subspace diagonalization in iterative solution of the eigenvalue problem:
     a serial algorithm will be used

 
     G-vector sticks info
     --------------------
     sticks:   dense  smooth     PW     G-vecs:    dense   smooth      PW
     Sum         637     637    199                10417    10417    1837
 
     Using Slab Decomposition
 


     bravais-lattice index     =            2
     lattice parameter (alat)  =       6.7400  a.u.
     unit-cell volume          =      76.5455 (a.u.)^3
     number of atoms/cell      =            2
     number of atomic types    =            1
     number of electrons       =         8.00
     number of Kohn-Sham states=            4
     kinetic-energy cutoff     =     100.0000  Ry
     charge density cutoff     =     400.0000  Ry
     scf convergence threshold =      1.0E-08
     mixing beta               =       0.7000
     number of iterations used =            8  plain     mixing
     Exchange-correlation= SLA  PZ   NOGX NOGC
                           (   1   1   0   0   0   0   0)

     celldm(1)=   6.740000  celldm(2)=   0.000000  celldm(3)=   0.000000
     celldm(4)=   0.000000  celldm(5)=   0.000000  celldm(6)=   0.000000

     crystal axes: (cart. coord. in units of alat)
               a(1) = (  -0.500000   0.000000   0.500000 )  
               a(2) = (   0.000000   0.500000   0.500000 )  
               a(3) = (  -0.500000   0.500000   0.000000 )  

     reciprocal axes: (cart. coord. in units 2 pi/alat)
               b(1) = ( -1.000000 -1.000000  1.000000 )  
               b(2) = (  1.000000  1.000000  1.000000 )  
               b(3) = ( -1.000000  1.000000 -1.000000 )  


     PseudoPot. # 1 for C  read from file:
     ../C_LDA.UPF
     MD5 check sum: 407c1fe918d93b14b177d5600f28733c
     Pseudo is Ultrasoft + core correction, Zval =  4.0
     Generated by new atomic code, or converted to UPF format
     Using radial grid of  721 points,  4 beta functions with: 
                l(1) =   0
                l(2) =   0
                l(3) =   1
                l(4) =   1
     Q(r) pseudized with  8 coefficients,  rinner =    1.100   1.100   1.100


     atomic species   valence    mass     pseudopotential
        C              4.00    12.01100     C ( 1.00)

     48 Sym. Ops., with inversion, found (24 have fractional translation)



   Cartesian axes

     site n.     atom                  positions (alat units)
         1           C   tau(   1) = (   0.0000000   0.0000000   0.0000000  )
         2           C   tau(   2) = (   0.2500000   0.2500000   0.2500000  )

     number of k points=    47
                       cart. coord. in units 2pi/alat
        k(    1) = (   0.0000000   0.0000000   0.0000000), wk =   0.0020000
        k(    2) = (  -0.1000000   0.1000000  -0.1000000), wk =   0.0160000
        k(    3) = (  -0.2000000   0.2000000  -0.2000000), wk =   0.0160000
        k(    4) = (  -0.3000000   0.3000000  -0.3000000), wk =   0.0160000
        k(    5) = (  -0.4000000   0.4000000  -0.4000000), wk =   0.0160000
        k(    6) = (   0.5000000  -0.5000000   0.5000000), wk =   0.0080000
        k(    7) = (   0.0000000   0.2000000   0.0000000), wk =   0.0120000
        k(    8) = (  -0.1000000   0.3000000  -0.1000000), wk =   0.0480000
        k(    9) = (  -0.2000000   0.4000000  -0.2000000), wk =   0.0480000
        k(   10) = (  -0.3000000   0.5000000  -0.3000000), wk =   0.0480000
        k(   11) = (   0.6000000  -0.4000000   0.6000000), wk =   0.0480000
        k(   12) = (   0.5000000  -0.3000000   0.5000000), wk =   0.0480000
        k(   13) = (   0.4000000  -0.2000000   0.4000000), wk =   0.0480000
        k(   14) = (   0.3000000  -0.1000000   0.3000000), wk =   0.0480000
        k(   15) = (   0.2000000   0.0000000   0.2000000), wk =   0.0240000
        k(   16) = (   0.0000000   0.4000000   0.0000000), wk =   0.0120000
        k(   17) = (  -0.1000000   0.5000000  -0.1000000), wk =   0.0480000
        k(   18) = (  -0.2000000   0.6000000  -0.2000000), wk =   0.0480000
        k(   19) = (   0.7000000  -0.3000000   0.7000000), wk =   0.0480000
        k(   20) = (   0.6000000  -0.2000000   0.6000000), wk =   0.0480000
        k(   21) = (   0.5000000  -0.1000000   0.5000000), wk =   0.0480000
        k(   22) = (   0.4000000   0.0000000   0.4000000), wk =   0.0240000
        k(   23) = (  -0.0000000   0.6000000  -0.0000000), wk =   0.0120000
        k(   24) = (  -0.1000000   0.7000000  -0.1000000), wk =   0.0480000
        k(   25) = (   0.8000000  -0.2000000   0.8000000), wk =   0.0480000
        k(   26) = (   0.7000000  -0.1000000   0.7000000), wk =   0.0480000
        k(   27) = (   0.6000000   0.0000000   0.6000000), wk =   0.0240000
        k(   28) = (   0.0000000   0.8000000   0.0000000), wk =   0.0120000
        k(   29) = (   0.9000000  -0.1000000   0.9000000), wk =   0.0480000
        k(   30) = (   0.8000000   0.0000000   0.8000000), wk =   0.0240000
        k(   31) = (   0.0000000  -1.0000000   0.0000000), wk =   0.0060000
        k(   32) = (  -0.2000000   0.4000000   0.0000000), wk =   0.0480000
        k(   33) = (  -0.3000000   0.5000000  -0.1000000), wk =   0.0960000
        k(   34) = (   0.6000000  -0.4000000   0.8000000), wk =   0.0960000
        k(   35) = (   0.5000000  -0.3000000   0.7000000), wk =   0.0480000
        k(   36) = (  -0.2000000   0.6000000   0.0000000), wk =   0.0480000
        k(   37) = (   0.7000000  -0.3000000   0.9000000), wk =   0.0960000
        k(   38) = (   0.6000000  -0.2000000   0.8000000), wk =   0.0960000
        k(   39) = (   0.5000000  -0.1000000   0.7000000), wk =   0.0960000
        k(   40) = (   0.4000000   0.0000000   0.6000000), wk =   0.0480000
        k(   41) = (   0.8000000  -0.2000000   1.0000000), wk =   0.0480000
        k(   42) = (   0.7000000  -0.1000000   0.9000000), wk =   0.0960000
        k(   43) = (   0.6000000   0.0000000   0.8000000), wk =   0.0480000
        k(   44) = (  -0.2000000  -1.0000000  -0.0000000), wk =   0.0240000
        k(   45) = (   0.6000000  -0.2000000   1.0000000), wk =   0.0480000
        k(   46) = (   0.5000000  -0.1000000   0.9000000), wk =   0.0480000
        k(   47) = (  -0.4000000  -1.0000000  -0.0000000), wk =   0.0240000

     Dense  grid:    10417 G-vectors     FFT dimensions: (  32,  32,  32)

     Estimated max dynamical RAM per process >      19.09 MB

     Initial potential from superposition of free atoms

     starting charge       7.9999, renormalised to       8.0000
     Starting wfcs are    8 randomized atomic wfcs

     total cpu time spent up to now is        1.5 secs

     Self-consistent Calculation

     iteration #  1     ecut=   100.00 Ry     beta= 0.70
     CG style diagonalization
     ethr =  1.00E-02,  avg # of iterations =  3.0

     total cpu time spent up to now is        2.6 secs

     total energy              =     -23.04077919 Ry
     estimated scf accuracy    <       0.13297711 Ry

     iteration #  2     ecut=   100.00 Ry     beta= 0.70
     CG style diagonalization
     ethr =  1.66E-03,  avg # of iterations =  3.6

     total cpu time spent up to now is        3.9 secs

     total energy              =     -23.05687232 Ry
     estimated scf accuracy    <       0.00139908 Ry

     iteration #  3     ecut=   100.00 Ry     beta= 0.70
     CG style diagonalization
     ethr =  1.75E-05,  avg # of iterations =  4.0

     total cpu time spent up to now is        5.2 secs

     total energy              =     -23.05736559 Ry
     estimated scf accuracy    <       0.00005453 Ry

     iteration #  4     ecut=   100.00 Ry     beta= 0.70
     CG style diagonalization
     ethr =  6.82E-07,  avg # of iterations =  4.1

     total cpu time spent up to now is        6.6 secs

     total energy              =     -23.05738558 Ry
     estimated scf accuracy    <       0.00000332 Ry

     iteration #  5     ecut=   100.00 Ry     beta= 0.70
     CG style diagonalization
     ethr =  4.15E-08,  avg # of iterations =  4.0

     total cpu time spent up to now is        8.0 secs

     total energy              =     -23.05738694 Ry
     estimated scf accuracy    <       0.00000007 Ry

     iteration #  6     ecut=   100.00 Ry     beta= 0.70
     CG style diagonalization
     ethr =  8.55E-10,  avg # of iterations =  4.4

     total cpu time spent up to now is        9.5 secs

     End of self-consistent calculation

          k = 0.0000 0.0000 0.0000 (  1291 PWs)   bands (ev):

    -8.2163  13.0898  13.0898  13.0898

          k =-0.1000 0.1000-0.1000 (  1297 PWs)   bands (ev):

    -7.9401  11.4338  12.6444  12.6444

          k =-0.2000 0.2000-0.2000 (  1302 PWs)   bands (ev):

    -7.1160   8.2573  11.7709  11.7709

          k =-0.3000 0.3000-0.3000 (  1293 PWs)   bands (ev):

    -5.7624   4.8788  10.9832  10.9832

          k =-0.4000 0.4000-0.4000 (  1299 PWs)   bands (ev):

    -3.9432   1.7496  10.4735  10.4735

          k = 0.5000-0.5000 0.5000 (  1308 PWs)   bands (ev):

    -2.3795  -0.2639  10.2995  10.2995

          k = 0.0000 0.2000 0.0000 (  1299 PWs)   bands (ev):

    -7.8481  11.8645  11.8645  12.2512

          k =-0.1000 0.3000-0.1000 (  1305 PWs)   bands (ev):

    -7.2069   9.3643  10.8992  11.7778

          k =-0.2000 0.4000-0.2000 (  1306 PWs)   bands (ev):

    -6.0295   6.1171  10.1559  10.9129

          k =-0.3000 0.5000-0.3000 (  1296 PWs)   bands (ev):

    -4.3570   2.9293   9.7818  10.0458

          k = 0.6000-0.4000 0.6000 (  1283 PWs)   bands (ev):

    -2.4545   0.3033   9.4122   9.8113

          k = 0.5000-0.3000 0.5000 (  1294 PWs)   bands (ev):

    -3.0545   1.0528   9.1173  10.2234

          k = 0.4000-0.2000 0.4000 (  1298 PWs)   bands (ev):

    -4.9649   3.9714   9.2141  10.9525

          k = 0.3000-0.1000 0.3000 (  1304 PWs)   bands (ev):

    -6.4804   7.2287   9.7201  11.8595

          k = 0.2000 0.0000 0.2000 (  1299 PWs)   bands (ev):

    -7.4813  10.1999  10.7646  12.6176

          k = 0.0000 0.4000 0.0000 (  1307 PWs)   bands (ev):

    -6.7508   9.8679   9.8679  10.0932

          k =-0.1000 0.5000-0.1000 (  1298 PWs)   bands (ev):

    -5.7570   7.3325   9.0801   9.4910

          k =-0.2000 0.6000-0.2000 (  1286 PWs)   bands (ev):

    -4.2557   4.3833   8.4362   8.6958

          k = 0.7000-0.3000 0.7000 (  1280 PWs)   bands (ev):

    -2.3750   1.6346   7.4383   8.7613

          k = 0.6000-0.2000 0.6000 (  1287 PWs)   bands (ev):

    -1.8093   0.9613   6.7655   9.2583

          k = 0.5000-0.1000 0.5000 (  1294 PWs)   bands (ev):

    -3.6671   3.4960   6.5382  10.1055

          k = 0.4000 0.0000 0.4000 (  1301 PWs)   bands (ev):

    -5.3154   6.2075   7.0989  11.1116

          k =-0.0000 0.6000-0.0000 (  1291 PWs)   bands (ev):

    -4.9498   7.1447   8.2094   8.2094

          k =-0.1000 0.7000-0.1000 (  1291 PWs)   bands (ev):

    -3.6317   5.1775   7.1178   7.7392

          k = 0.8000-0.2000 0.8000 (  1292 PWs)   bands (ev):

    -1.8821   2.9909   5.5872   7.7360

          k = 0.7000-0.1000 0.7000 (  1294 PWs)   bands (ev):

    -0.4899   1.5127   4.4434   8.1959

          k = 0.6000 0.0000 0.6000 (  1306 PWs)   bands (ev):

    -1.9569   3.0807   4.2264   9.0477

          k = 0.0000 0.8000 0.0000 (  1290 PWs)   bands (ev):

    -2.5007   3.8107   7.1569   7.1569

          k = 0.9000-0.1000 0.9000 (  1295 PWs)   bands (ev):

    -0.9196   2.1874   6.0403   7.0409

          k = 0.8000 0.0000 0.8000 (  1296 PWs)   bands (ev):

     0.5791   1.1417   4.2863   7.4047

          k = 0.0000-1.0000 0.0000 (  1298 PWs)   bands (ev):

     0.4872   0.4872   6.7984   6.7984

          k =-0.2000 0.4000 0.0000 (  1306 PWs)   bands (ev):

    -6.3891   8.1271   8.8767  11.2090

          k =-0.3000 0.5000-0.1000 (  1298 PWs)   bands (ev):

    -5.0484   5.3076   8.0271  10.3126

          k = 0.6000-0.4000 0.8000 (  1289 PWs)   bands (ev):

    -3.2547   2.3413   7.8007   9.4409

          k = 0.5000-0.3000 0.7000 (  1292 PWs)   bands (ev):

    -1.7357   0.4088   7.8011   9.0522

          k =-0.2000 0.6000 0.0000 (  1298 PWs)   bands (ev):

    -4.6003   6.1371   7.2898   8.7724

          k = 0.7000-0.3000 0.9000 (  1290 PWs)   bands (ev):

    -2.9682   3.7940   6.4334   7.9189

          k = 0.6000-0.2000 0.8000 (  1285 PWs)   bands (ev):

    -1.1502   1.4955   5.8011   7.7515

          k = 0.5000-0.1000 0.7000 (  1286 PWs)   bands (ev):

    -1.7382   2.2325   5.3251   8.3292

          k = 0.4000 0.0000 0.6000 (  1295 PWs)   bands (ev):

    -3.5726   4.5366   5.6027   9.3166

          k = 0.8000-0.2000 1.0000 (  1282 PWs)   bands (ev):

    -2.1810   3.7300   6.3120   6.7918

          k = 0.7000-0.1000 0.9000 (  1289 PWs)   bands (ev):

    -0.3990   2.1980   4.7309   6.6736

          k = 0.6000 0.0000 0.8000 (  1283 PWs)   bands (ev):

    -0.0776   2.0096   3.7453   7.2928

          k =-0.2000-1.0000-0.0000 (  1294 PWs)   bands (ev):

     0.7200   0.7200   6.0814   6.0814

          k = 0.6000-0.2000 1.0000 (  1291 PWs)   bands (ev):

    -1.2771   3.0917   4.7683   6.6993

          k = 0.5000-0.1000 0.9000 (  1274 PWs)   bands (ev):

     0.1213   1.8553   4.4648   6.1107

          k =-0.4000-1.0000-0.0000 (  1286 PWs)   bands (ev):

     1.2115   1.2115   4.9409   4.9409

     highest occupied level (ev):    13.0898

!    total energy              =     -23.05738699 Ry
     estimated scf accuracy    <          2.2E-10 Ry

     The total energy is the sum of the following terms:
     one-electron contribution =       7.94416037 Ry
     hartree contribution      =       1.91734027 Ry
     xc contribution           =      -7.34358535 Ry
     ewald contribution        =     -25.57530229 Ry

     convergence has been achieved in   6 iterations

     Forces acting on atoms (cartesian axes, Ry/au):

     atom    1 type  1   force =     0.00000000    0.00000000    0.00000000
     atom    2 type  1   force =     0.00000000    0.00000000    0.00000000

     Total force =     0.000000     Total SCF correction =     0.000000


     Computing stress (Cartesian axis) and pressure

          total   stress  (Ry/bohr**3)                   (kbar)     P=     -127.35
  -0.00086570  -0.00000000   0.00000000         -127.35       -0.00        0.00
  -0.00000000  -0.00086570  -0.00000000           -0.00     -127.35       -0.00
   0.00000000  -0.00000000  -0.00086570            0.00       -0.00     -127.35


     Writing all to output data dir ./Diamond.save/
 
     init_run     :      1.01s CPU      1.06s WALL (       1 calls)
     electrons    :      7.38s CPU      8.03s WALL (       1 calls)
     forces       :      0.11s CPU      0.12s WALL (       1 calls)
     stress       :      0.65s CPU      0.66s WALL (       1 calls)

     Called by init_run:
     wfcinit      :      0.55s CPU      0.58s WALL (       1 calls)
     potinit      :      0.01s CPU      0.01s WALL (       1 calls)
     hinit0       :      0.39s CPU      0.42s WALL (       1 calls)

     Called by electrons:
     c_bands      :      6.26s CPU      6.84s WALL (       6 calls)
     sum_band     :      0.98s CPU      1.03s WALL (       6 calls)
     v_of_rho     :      0.05s CPU      0.05s WALL (       7 calls)
     newd         :      0.09s CPU      0.09s WALL (       7 calls)
     mix_rho      :      0.01s CPU      0.02s WALL (       6 calls)

     Called by c_bands:
     init_us_2    :      0.51s CPU      0.57s WALL (     705 calls)
     init_us_2:cp :      0.49s CPU      0.56s WALL (     705 calls)
     ccgdiagg     :      4.90s CPU      5.35s WALL (     282 calls)
     wfcrot       :      1.52s CPU      1.59s WALL (     282 calls)

     Called by *cgdiagg:
     h_psi        :      5.27s CPU      5.65s WALL (    3668 calls)
     s_psi        :      0.30s CPU      0.34s WALL (    7054 calls)

     Called by h_psi:
     h_psi:calbec :      0.39s CPU      0.42s WALL (    3668 calls)
     vloc_psi     :      4.48s CPU      4.80s WALL (    3668 calls)
     add_vuspsi   :      0.21s CPU      0.23s WALL (    3668 calls)
     hs_1psi      :      4.24s CPU      4.61s WALL (    3386 calls)
     s_1psi       :      0.40s CPU      0.45s WALL (    3386 calls)

     General routines
     calbec       :      0.54s CPU      0.60s WALL (    7571 calls)
     fft          :      0.02s CPU      0.04s WALL (      36 calls)
     ffts         :      0.00s CPU      0.00s WALL (       6 calls)
     fftw         :      3.91s CPU      4.18s WALL (   10532 calls)
 
     Parallel routines
 
     PWSCF        :      9.49s CPU     10.68s WALL

 
   This run was terminated on:  17:10:16  14Mar2022            

=------------------------------------------------------------------------------=
   JOB DONE.
=------------------------------------------------------------------------------=
