
     Program PWSCF v.7.0 starts on 14Mar2022 at 17: 8:52 

     This program is part of the open-source Quantum ESPRESSO suite
     for quantum simulation of materials; please cite
         "P. Giannozzi et al., J. Phys.:Condens. Matter 21 395502 (2009);
         "P. Giannozzi et al., J. Phys.:Condens. Matter 29 465901 (2017);
         "P. Giannozzi et al., J. Chem. Phys. 152 154105 (2020);
          URL http://www.quantum-espresso.org", 
     in publications or presentations arising from this work. More details at
     http://www.quantum-espresso.org/quote

     Parallel version (MPI), running on     1 processors

     MPI processes distributed on     1 nodes
     91967 MiB available memory on the printing compute node when the environment starts
 
     Waiting for input...
     Reading input from standard input
Warning: card &CELL ignored
Warning: card  CELL_DYNAMICS = 'BFGS', ignored
Warning: card  PRESS=0.1D0, ignored
Warning: card / ignored
     Message from routine read_cards :
     DEPRECATED: no units specified in ATOMIC_POSITIONS card
     Message from routine read_cards :
     ATOMIC_POSITIONS: units set to alat

     Current dimensions of program PWSCF are:
     Max number of different atomic species (ntypx) = 10
     Max number of k-points (npk) =  40000
     Max angular momentum in pseudopotentials (lmaxx) =  4

     Subspace diagonalization in iterative solution of the eigenvalue problem:
     a serial algorithm will be used

 
     G-vector sticks info
     --------------------
     sticks:   dense  smooth     PW     G-vecs:    dense   smooth      PW
     Sum          61      61     31                  331      331     113
 
     Using Slab Decomposition
 


     bravais-lattice index     =            2
     lattice parameter (alat)  =       6.7400  a.u.
     unit-cell volume          =      76.5455 (a.u.)^3
     number of atoms/cell      =            2
     number of atomic types    =            1
     number of electrons       =         8.00
     number of Kohn-Sham states=            4
     kinetic-energy cutoff     =      10.0000  Ry
     charge density cutoff     =      40.0000  Ry
     scf convergence threshold =      1.0E-08
     mixing beta               =       0.7000
     number of iterations used =            8  plain     mixing
     Exchange-correlation= SLA  PZ   NOGX NOGC
                           (   1   1   0   0   0   0   0)

     celldm(1)=   6.740000  celldm(2)=   0.000000  celldm(3)=   0.000000
     celldm(4)=   0.000000  celldm(5)=   0.000000  celldm(6)=   0.000000

     crystal axes: (cart. coord. in units of alat)
               a(1) = (  -0.500000   0.000000   0.500000 )  
               a(2) = (   0.000000   0.500000   0.500000 )  
               a(3) = (  -0.500000   0.500000   0.000000 )  

     reciprocal axes: (cart. coord. in units 2 pi/alat)
               b(1) = ( -1.000000 -1.000000  1.000000 )  
               b(2) = (  1.000000  1.000000  1.000000 )  
               b(3) = ( -1.000000  1.000000 -1.000000 )  


     PseudoPot. # 1 for C  read from file:
     ../C_LDA.UPF
     MD5 check sum: 407c1fe918d93b14b177d5600f28733c
     Pseudo is Ultrasoft + core correction, Zval =  4.0
     Generated by new atomic code, or converted to UPF format
     Using radial grid of  721 points,  4 beta functions with: 
                l(1) =   0
                l(2) =   0
                l(3) =   1
                l(4) =   1
     Q(r) pseudized with  8 coefficients,  rinner =    1.100   1.100   1.100


     atomic species   valence    mass     pseudopotential
        C              4.00    12.01100     C ( 1.00)

     48 Sym. Ops., with inversion, found (24 have fractional translation)



   Cartesian axes

     site n.     atom                  positions (alat units)
         1           C   tau(   1) = (   0.0000000   0.0000000   0.0000000  )
         2           C   tau(   2) = (   0.2500000   0.2500000   0.2500000  )

     number of k points=    47
                       cart. coord. in units 2pi/alat
        k(    1) = (   0.0000000   0.0000000   0.0000000), wk =   0.0020000
        k(    2) = (  -0.1000000   0.1000000  -0.1000000), wk =   0.0160000
        k(    3) = (  -0.2000000   0.2000000  -0.2000000), wk =   0.0160000
        k(    4) = (  -0.3000000   0.3000000  -0.3000000), wk =   0.0160000
        k(    5) = (  -0.4000000   0.4000000  -0.4000000), wk =   0.0160000
        k(    6) = (   0.5000000  -0.5000000   0.5000000), wk =   0.0080000
        k(    7) = (   0.0000000   0.2000000   0.0000000), wk =   0.0120000
        k(    8) = (  -0.1000000   0.3000000  -0.1000000), wk =   0.0480000
        k(    9) = (  -0.2000000   0.4000000  -0.2000000), wk =   0.0480000
        k(   10) = (  -0.3000000   0.5000000  -0.3000000), wk =   0.0480000
        k(   11) = (   0.6000000  -0.4000000   0.6000000), wk =   0.0480000
        k(   12) = (   0.5000000  -0.3000000   0.5000000), wk =   0.0480000
        k(   13) = (   0.4000000  -0.2000000   0.4000000), wk =   0.0480000
        k(   14) = (   0.3000000  -0.1000000   0.3000000), wk =   0.0480000
        k(   15) = (   0.2000000   0.0000000   0.2000000), wk =   0.0240000
        k(   16) = (   0.0000000   0.4000000   0.0000000), wk =   0.0120000
        k(   17) = (  -0.1000000   0.5000000  -0.1000000), wk =   0.0480000
        k(   18) = (  -0.2000000   0.6000000  -0.2000000), wk =   0.0480000
        k(   19) = (   0.7000000  -0.3000000   0.7000000), wk =   0.0480000
        k(   20) = (   0.6000000  -0.2000000   0.6000000), wk =   0.0480000
        k(   21) = (   0.5000000  -0.1000000   0.5000000), wk =   0.0480000
        k(   22) = (   0.4000000   0.0000000   0.4000000), wk =   0.0240000
        k(   23) = (  -0.0000000   0.6000000  -0.0000000), wk =   0.0120000
        k(   24) = (  -0.1000000   0.7000000  -0.1000000), wk =   0.0480000
        k(   25) = (   0.8000000  -0.2000000   0.8000000), wk =   0.0480000
        k(   26) = (   0.7000000  -0.1000000   0.7000000), wk =   0.0480000
        k(   27) = (   0.6000000   0.0000000   0.6000000), wk =   0.0240000
        k(   28) = (   0.0000000   0.8000000   0.0000000), wk =   0.0120000
        k(   29) = (   0.9000000  -0.1000000   0.9000000), wk =   0.0480000
        k(   30) = (   0.8000000   0.0000000   0.8000000), wk =   0.0240000
        k(   31) = (   0.0000000  -1.0000000   0.0000000), wk =   0.0060000
        k(   32) = (  -0.2000000   0.4000000   0.0000000), wk =   0.0480000
        k(   33) = (  -0.3000000   0.5000000  -0.1000000), wk =   0.0960000
        k(   34) = (   0.6000000  -0.4000000   0.8000000), wk =   0.0960000
        k(   35) = (   0.5000000  -0.3000000   0.7000000), wk =   0.0480000
        k(   36) = (  -0.2000000   0.6000000   0.0000000), wk =   0.0480000
        k(   37) = (   0.7000000  -0.3000000   0.9000000), wk =   0.0960000
        k(   38) = (   0.6000000  -0.2000000   0.8000000), wk =   0.0960000
        k(   39) = (   0.5000000  -0.1000000   0.7000000), wk =   0.0960000
        k(   40) = (   0.4000000   0.0000000   0.6000000), wk =   0.0480000
        k(   41) = (   0.8000000  -0.2000000   1.0000000), wk =   0.0480000
        k(   42) = (   0.7000000  -0.1000000   0.9000000), wk =   0.0960000
        k(   43) = (   0.6000000   0.0000000   0.8000000), wk =   0.0480000
        k(   44) = (  -0.2000000  -1.0000000  -0.0000000), wk =   0.0240000
        k(   45) = (   0.6000000  -0.2000000   1.0000000), wk =   0.0480000
        k(   46) = (   0.5000000  -0.1000000   0.9000000), wk =   0.0480000
        k(   47) = (  -0.4000000  -1.0000000  -0.0000000), wk =   0.0240000

     Dense  grid:      331 G-vectors     FFT dimensions: (   9,   9,   9)

     Estimated max dynamical RAM per process >       0.72 MB

     Check: negative core charge=   -0.000288

     Initial potential from superposition of free atoms

     starting charge       7.9999, renormalised to       8.0000
     Starting wfcs are    8 randomized atomic wfcs

     total cpu time spent up to now is        2.5 secs

     Self-consistent Calculation

     iteration #  1     ecut=    10.00 Ry     beta= 0.70
     CG style diagonalization
     ethr =  1.00E-02,  avg # of iterations =  2.7

     total cpu time spent up to now is        2.8 secs

     total energy              =     -22.29635802 Ry
     estimated scf accuracy    <       0.10085685 Ry

     iteration #  2     ecut=    10.00 Ry     beta= 0.70
     CG style diagonalization
     ethr =  1.26E-03,  avg # of iterations =  3.0

     total cpu time spent up to now is        3.0 secs

     total energy              =     -22.29583648 Ry
     estimated scf accuracy    <       0.00759197 Ry

     iteration #  3     ecut=    10.00 Ry     beta= 0.70
     CG style diagonalization
     ethr =  9.49E-05,  avg # of iterations =  3.0

     total cpu time spent up to now is        3.2 secs

     total energy              =     -22.29596009 Ry
     estimated scf accuracy    <       0.00001785 Ry

     iteration #  4     ecut=    10.00 Ry     beta= 0.70
     CG style diagonalization
     ethr =  2.23E-07,  avg # of iterations =  4.4

     total cpu time spent up to now is        3.6 secs

     total energy              =     -22.29597642 Ry
     estimated scf accuracy    <       0.00000009 Ry

     iteration #  5     ecut=    10.00 Ry     beta= 0.70
     CG style diagonalization
     ethr =  1.11E-09,  avg # of iterations =  3.9

     total cpu time spent up to now is        3.8 secs

     End of self-consistent calculation

          k = 0.0000 0.0000 0.0000 (    51 PWs)   bands (ev):

    -8.5666  14.8255  14.8255  14.8255

          k =-0.1000 0.1000-0.1000 (    43 PWs)   bands (ev):

    -8.2810  12.8880  15.0897  15.0897

          k =-0.2000 0.2000-0.2000 (    43 PWs)   bands (ev):

    -7.4387   9.2104  13.2110  13.2110

          k =-0.3000 0.3000-0.3000 (    43 PWs)   bands (ev):

    -6.0620   5.5162  12.2614  12.2614

          k =-0.4000 0.4000-0.4000 (    40 PWs)   bands (ev):

    -4.1176   2.4221  11.6779  11.6779

          k = 0.5000-0.5000 0.5000 (    40 PWs)   bands (ev):

    -2.7443   0.5525  11.4791  11.4791

          k = 0.0000 0.2000 0.0000 (    51 PWs)   bands (ev):

    -8.1911  12.5410  12.5410  13.6271

          k =-0.1000 0.3000-0.1000 (    46 PWs)   bands (ev):

    -7.5326  10.3910  12.0236  13.3669

          k =-0.2000 0.4000-0.2000 (    44 PWs)   bands (ev):

    -6.3317   6.7761  11.3613  12.4220

          k =-0.3000 0.5000-0.3000 (    40 PWs)   bands (ev):

    -4.5513   3.5636  10.9669  11.5048

          k = 0.6000-0.4000 0.6000 (    39 PWs)   bands (ev):

    -2.7359   1.0563  10.8007  10.9775

          k = 0.5000-0.3000 0.5000 (    40 PWs)   bands (ev):

    -3.2564   1.7008  10.4630  11.4234

          k = 0.4000-0.2000 0.4000 (    40 PWs)   bands (ev):

    -5.2050   4.5544  10.7592  13.0141

          k = 0.3000-0.1000 0.3000 (    41 PWs)   bands (ev):

    -6.7894   8.0210  11.3017  14.1144

          k = 0.2000 0.0000 0.2000 (    43 PWs)   bands (ev):

    -7.8119  11.3455  12.2523  15.0694

          k = 0.0000 0.4000 0.0000 (    43 PWs)   bands (ev):

    -7.0628  10.9585  11.4848  11.4848

          k =-0.1000 0.5000-0.1000 (    45 PWs)   bands (ev):

    -6.0504   8.0398  10.3617  10.5989

          k =-0.2000 0.6000-0.2000 (    40 PWs)   bands (ev):

    -4.4264   4.9482   9.6241  10.4027

          k = 0.7000-0.3000 0.7000 (    41 PWs)   bands (ev):

    -2.6082   2.1294   8.5306  10.4653

          k = 0.6000-0.2000 0.6000 (    38 PWs)   bands (ev):

    -2.0676   1.6502   7.8874  11.0208

          k = 0.5000-0.1000 0.5000 (    40 PWs)   bands (ev):

    -3.8865   3.9748   7.6784  11.9776

          k = 0.4000 0.0000 0.4000 (    42 PWs)   bands (ev):

    -5.5598   6.7553   8.2485  13.1154

          k =-0.0000 0.6000-0.0000 (    43 PWs)   bands (ev):

    -5.2167   7.6133   9.6459   9.6459

          k =-0.1000 0.7000-0.1000 (    42 PWs)   bands (ev):

    -3.8099   5.5385   8.4278   9.1683

          k = 0.8000-0.2000 0.8000 (    40 PWs)   bands (ev):

    -2.0453   3.3022   6.7104   9.3562

          k = 0.7000-0.1000 0.7000 (    41 PWs)   bands (ev):

    -0.7957   1.9029   5.4427   9.8364

          k = 0.6000 0.0000 0.6000 (    38 PWs)   bands (ev):

    -2.1592   3.3884   5.4172  10.8069

          k = 0.0000 0.8000 0.0000 (    40 PWs)   bands (ev):

    -2.5403   4.0404   8.5656   8.5656

          k = 0.9000-0.1000 0.9000 (    40 PWs)   bands (ev):

    -0.9138   2.3131   7.3325   8.4422

          k = 0.8000 0.0000 0.8000 (    38 PWs)   bands (ev):

     0.4866   1.2749   5.5261   9.0274

          k = 0.0000-1.0000 0.0000 (    40 PWs)   bands (ev):

     0.5624   0.5624   8.1779   8.1779

          k =-0.2000 0.4000 0.0000 (    43 PWs)   bands (ev):

    -6.6959   8.9841  10.1743  12.5693

          k =-0.3000 0.5000-0.1000 (    41 PWs)   bands (ev):

    -5.2836   5.9223   9.3158  11.7794

          k = 0.6000-0.4000 0.8000 (    40 PWs)   bands (ev):

    -3.4391   2.8835   9.0221  10.7965

          k = 0.5000-0.3000 0.7000 (    40 PWs)   bands (ev):

    -2.0857   1.1555   9.0025  10.3710

          k =-0.2000 0.6000 0.0000 (    44 PWs)   bands (ev):

    -4.8188   6.6360   8.4909   9.7558

          k = 0.7000-0.3000 0.9000 (    42 PWs)   bands (ev):

    -3.1514   4.2482   7.4272   9.0588

          k = 0.6000-0.2000 0.8000 (    41 PWs)   bands (ev):

    -1.4288   1.9843   6.7878   9.0073

          k = 0.5000-0.1000 0.7000 (    39 PWs)   bands (ev):

    -1.9489   2.7155   6.3784   9.9595

          k = 0.4000 0.0000 0.6000 (    40 PWs)   bands (ev):

    -3.7802   4.9200   6.7934  11.0581

          k = 0.8000-0.2000 1.0000 (    41 PWs)   bands (ev):

    -2.2764   3.9211   7.5855   8.1781

          k = 0.7000-0.1000 0.9000 (    39 PWs)   bands (ev):

    -0.4987   2.2992   6.0086   8.1111

          k = 0.6000 0.0000 0.8000 (    37 PWs)   bands (ev):

    -0.2544   2.2085   5.1158   8.8192

          k =-0.2000-1.0000-0.0000 (    40 PWs)   bands (ev):

     0.7676   0.7676   7.3781   7.3781

          k = 0.6000-0.2000 1.0000 (    41 PWs)   bands (ev):

    -1.4067   3.2554   5.9087   7.7669

          k = 0.5000-0.1000 0.9000 (    40 PWs)   bands (ev):

    -0.0832   2.0140   5.6046   7.3181

          k =-0.4000-1.0000-0.0000 (    38 PWs)   bands (ev):

     1.1660   1.1660   6.2984   6.2984

     highest occupied level (ev):    15.0897

!    total energy              =     -22.29597645 Ry
     estimated scf accuracy    <          4.6E-10 Ry

     The total energy is the sum of the following terms:
     one-electron contribution =       8.93024786 Ry
     hartree contribution      =       1.58808995 Ry
     xc contribution           =      -7.23901197 Ry
     ewald contribution        =     -25.57530229 Ry

     convergence has been achieved in   5 iterations

     Forces acting on atoms (cartesian axes, Ry/au):

     atom    1 type  1   force =     0.00000000   -0.00000000    0.00000000
     atom    2 type  1   force =     0.00000000    0.00000000    0.00000000

     Total force =     0.000000     Total SCF correction =     0.000000


     Computing stress (Cartesian axis) and pressure

          total   stress  (Ry/bohr**3)                   (kbar)     P=    -2148.87
  -0.01460773  -0.00000000   0.00000000        -2148.87       -0.00        0.00
   0.00000000  -0.01460773  -0.00000000            0.00    -2148.87       -0.00
   0.00000000  -0.00000000  -0.01460773            0.00       -0.00    -2148.87


     Writing all to output data dir ./Diamond.save/
 
     init_run     :      0.26s CPU      0.83s WALL (       1 calls)
     electrons    :      0.98s CPU      1.41s WALL (       1 calls)
     forces       :      0.01s CPU      0.10s WALL (       1 calls)
     stress       :      0.03s CPU      0.06s WALL (       1 calls)

     Called by init_run:
     wfcinit      :      0.08s CPU      0.25s WALL (       1 calls)
     potinit      :      0.00s CPU      0.06s WALL (       1 calls)
     hinit0       :      0.17s CPU      0.31s WALL (       1 calls)

     Called by electrons:
     c_bands      :      0.87s CPU      1.21s WALL (       5 calls)
     sum_band     :      0.09s CPU      0.13s WALL (       5 calls)
     v_of_rho     :      0.00s CPU      0.04s WALL (       6 calls)
     newd         :      0.00s CPU      0.02s WALL (       6 calls)
     mix_rho      :      0.00s CPU      0.01s WALL (       5 calls)

     Called by c_bands:
     init_us_2    :      0.03s CPU      0.04s WALL (     611 calls)
     init_us_2:cp :      0.02s CPU      0.03s WALL (     611 calls)
     ccgdiagg     :      0.69s CPU      0.93s WALL (     235 calls)
     wfcrot       :      0.21s CPU      0.38s WALL (     235 calls)

     Called by *cgdiagg:
     h_psi        :      0.53s CPU      0.74s WALL (    2671 calls)
     s_psi        :      0.07s CPU      0.11s WALL (    5107 calls)

     Called by h_psi:
     h_psi:calbec :      0.06s CPU      0.11s WALL (    2671 calls)
     vloc_psi     :      0.35s CPU      0.46s WALL (    2671 calls)
     add_vuspsi   :      0.04s CPU      0.05s WALL (    2671 calls)
     hs_1psi      :      0.51s CPU      0.69s WALL (    2436 calls)
     s_1psi       :      0.12s CPU      0.16s WALL (    2436 calls)

     General routines
     calbec       :      0.07s CPU      0.12s WALL (    5577 calls)
     fft          :      0.01s CPU      0.04s WALL (      32 calls)
     ffts         :      0.00s CPU      0.00s WALL (       5 calls)
     fftw         :      0.32s CPU      0.42s WALL (    8068 calls)
 
     Parallel routines
 
     PWSCF        :      1.64s CPU      4.73s WALL

 
   This run was terminated on:  17: 8:57  14Mar2022            

=------------------------------------------------------------------------------=
   JOB DONE.
=------------------------------------------------------------------------------=
