
     Program PWSCF v.7.0 starts on 14Mar2022 at 17: 3:27 

     This program is part of the open-source Quantum ESPRESSO suite
     for quantum simulation of materials; please cite
         "P. Giannozzi et al., J. Phys.:Condens. Matter 21 395502 (2009);
         "P. Giannozzi et al., J. Phys.:Condens. Matter 29 465901 (2017);
         "P. Giannozzi et al., J. Chem. Phys. 152 154105 (2020);
          URL http://www.quantum-espresso.org", 
     in publications or presentations arising from this work. More details at
     http://www.quantum-espresso.org/quote

     Parallel version (MPI), running on     1 processors

     MPI processes distributed on     1 nodes
     90686 MiB available memory on the printing compute node when the environment starts
 
     Waiting for input...
     Reading input from standard input
Warning: card &CELL ignored
Warning: card  CELL_DYNAMICS = 'BFGS', ignored
Warning: card  PRESS=0.1D0, ignored
Warning: card / ignored
     Message from routine read_cards :
     DEPRECATED: no units specified in ATOMIC_POSITIONS card
     Message from routine read_cards :
     ATOMIC_POSITIONS: units set to alat

     Current dimensions of program PWSCF are:
     Max number of different atomic species (ntypx) = 10
     Max number of k-points (npk) =  40000
     Max angular momentum in pseudopotentials (lmaxx) =  4

     Subspace diagonalization in iterative solution of the eigenvalue problem:
     a serial algorithm will be used

 
     G-vector sticks info
     --------------------
     sticks:   dense  smooth     PW     G-vecs:    dense   smooth      PW
     Sum         931     313    109                18907     3695     725
 
     Using Slab Decomposition
 


     bravais-lattice index     =            2
     lattice parameter (alat)  =       6.7400  a.u.
     unit-cell volume          =      76.5455 (a.u.)^3
     number of atoms/cell      =            2
     number of atomic types    =            1
     number of electrons       =         8.00
     number of Kohn-Sham states=            4
     kinetic-energy cutoff     =      50.0000  Ry
     charge density cutoff     =     600.0000  Ry
     scf convergence threshold =      1.0E-08
     mixing beta               =       0.7000
     number of iterations used =            8  plain     mixing
     Exchange-correlation= SLA  PZ   NOGX NOGC
                           (   1   1   0   0   0   0   0)

     celldm(1)=   6.740000  celldm(2)=   0.000000  celldm(3)=   0.000000
     celldm(4)=   0.000000  celldm(5)=   0.000000  celldm(6)=   0.000000

     crystal axes: (cart. coord. in units of alat)
               a(1) = (  -0.500000   0.000000   0.500000 )  
               a(2) = (   0.000000   0.500000   0.500000 )  
               a(3) = (  -0.500000   0.500000   0.000000 )  

     reciprocal axes: (cart. coord. in units 2 pi/alat)
               b(1) = ( -1.000000 -1.000000  1.000000 )  
               b(2) = (  1.000000  1.000000  1.000000 )  
               b(3) = ( -1.000000  1.000000 -1.000000 )  


     PseudoPot. # 1 for C  read from file:
     ../C_LDA.UPF
     MD5 check sum: 407c1fe918d93b14b177d5600f28733c
     Pseudo is Ultrasoft + core correction, Zval =  4.0
     Generated by new atomic code, or converted to UPF format
     Using radial grid of  721 points,  4 beta functions with: 
                l(1) =   0
                l(2) =   0
                l(3) =   1
                l(4) =   1
     Q(r) pseudized with  8 coefficients,  rinner =    1.100   1.100   1.100


     atomic species   valence    mass     pseudopotential
        C              4.00    12.01100     C ( 1.00)

     48 Sym. Ops., with inversion, found (24 have fractional translation)



   Cartesian axes

     site n.     atom                  positions (alat units)
         1           C   tau(   1) = (   0.0000000   0.0000000   0.0000000  )
         2           C   tau(   2) = (   0.2500000   0.2500000   0.2500000  )

     number of k points=    47
                       cart. coord. in units 2pi/alat
        k(    1) = (   0.0000000   0.0000000   0.0000000), wk =   0.0020000
        k(    2) = (  -0.1000000   0.1000000  -0.1000000), wk =   0.0160000
        k(    3) = (  -0.2000000   0.2000000  -0.2000000), wk =   0.0160000
        k(    4) = (  -0.3000000   0.3000000  -0.3000000), wk =   0.0160000
        k(    5) = (  -0.4000000   0.4000000  -0.4000000), wk =   0.0160000
        k(    6) = (   0.5000000  -0.5000000   0.5000000), wk =   0.0080000
        k(    7) = (   0.0000000   0.2000000   0.0000000), wk =   0.0120000
        k(    8) = (  -0.1000000   0.3000000  -0.1000000), wk =   0.0480000
        k(    9) = (  -0.2000000   0.4000000  -0.2000000), wk =   0.0480000
        k(   10) = (  -0.3000000   0.5000000  -0.3000000), wk =   0.0480000
        k(   11) = (   0.6000000  -0.4000000   0.6000000), wk =   0.0480000
        k(   12) = (   0.5000000  -0.3000000   0.5000000), wk =   0.0480000
        k(   13) = (   0.4000000  -0.2000000   0.4000000), wk =   0.0480000
        k(   14) = (   0.3000000  -0.1000000   0.3000000), wk =   0.0480000
        k(   15) = (   0.2000000   0.0000000   0.2000000), wk =   0.0240000
        k(   16) = (   0.0000000   0.4000000   0.0000000), wk =   0.0120000
        k(   17) = (  -0.1000000   0.5000000  -0.1000000), wk =   0.0480000
        k(   18) = (  -0.2000000   0.6000000  -0.2000000), wk =   0.0480000
        k(   19) = (   0.7000000  -0.3000000   0.7000000), wk =   0.0480000
        k(   20) = (   0.6000000  -0.2000000   0.6000000), wk =   0.0480000
        k(   21) = (   0.5000000  -0.1000000   0.5000000), wk =   0.0480000
        k(   22) = (   0.4000000   0.0000000   0.4000000), wk =   0.0240000
        k(   23) = (  -0.0000000   0.6000000  -0.0000000), wk =   0.0120000
        k(   24) = (  -0.1000000   0.7000000  -0.1000000), wk =   0.0480000
        k(   25) = (   0.8000000  -0.2000000   0.8000000), wk =   0.0480000
        k(   26) = (   0.7000000  -0.1000000   0.7000000), wk =   0.0480000
        k(   27) = (   0.6000000   0.0000000   0.6000000), wk =   0.0240000
        k(   28) = (   0.0000000   0.8000000   0.0000000), wk =   0.0120000
        k(   29) = (   0.9000000  -0.1000000   0.9000000), wk =   0.0480000
        k(   30) = (   0.8000000   0.0000000   0.8000000), wk =   0.0240000
        k(   31) = (   0.0000000  -1.0000000   0.0000000), wk =   0.0060000
        k(   32) = (  -0.2000000   0.4000000   0.0000000), wk =   0.0480000
        k(   33) = (  -0.3000000   0.5000000  -0.1000000), wk =   0.0960000
        k(   34) = (   0.6000000  -0.4000000   0.8000000), wk =   0.0960000
        k(   35) = (   0.5000000  -0.3000000   0.7000000), wk =   0.0480000
        k(   36) = (  -0.2000000   0.6000000   0.0000000), wk =   0.0480000
        k(   37) = (   0.7000000  -0.3000000   0.9000000), wk =   0.0960000
        k(   38) = (   0.6000000  -0.2000000   0.8000000), wk =   0.0960000
        k(   39) = (   0.5000000  -0.1000000   0.7000000), wk =   0.0960000
        k(   40) = (   0.4000000   0.0000000   0.6000000), wk =   0.0480000
        k(   41) = (   0.8000000  -0.2000000   1.0000000), wk =   0.0480000
        k(   42) = (   0.7000000  -0.1000000   0.9000000), wk =   0.0960000
        k(   43) = (   0.6000000   0.0000000   0.8000000), wk =   0.0480000
        k(   44) = (  -0.2000000  -1.0000000  -0.0000000), wk =   0.0240000
        k(   45) = (   0.6000000  -0.2000000   1.0000000), wk =   0.0480000
        k(   46) = (   0.5000000  -0.1000000   0.9000000), wk =   0.0480000
        k(   47) = (  -0.4000000  -1.0000000  -0.0000000), wk =   0.0240000

     Dense  grid:    18907 G-vectors     FFT dimensions: (  40,  40,  40)

     Smooth grid:     3695 G-vectors     FFT dimensions: (  24,  24,  24)

     Estimated max dynamical RAM per process >      28.58 MB

     Initial potential from superposition of free atoms

     starting charge       7.9999, renormalised to       8.0000
     Starting wfcs are    8 randomized atomic wfcs

     total cpu time spent up to now is        1.3 secs

     Self-consistent Calculation

     iteration #  1     ecut=    50.00 Ry     beta= 0.70
     CG style diagonalization
     ethr =  1.00E-02,  avg # of iterations =  3.0

     total cpu time spent up to now is        2.0 secs

     total energy              =     -23.04075015 Ry
     estimated scf accuracy    <       0.13210171 Ry

     iteration #  2     ecut=    50.00 Ry     beta= 0.70
     CG style diagonalization
     ethr =  1.65E-03,  avg # of iterations =  3.6

     total cpu time spent up to now is        2.9 secs

     total energy              =     -23.05620393 Ry
     estimated scf accuracy    <       0.00141518 Ry

     iteration #  3     ecut=    50.00 Ry     beta= 0.70
     CG style diagonalization
     ethr =  1.77E-05,  avg # of iterations =  4.0

     total cpu time spent up to now is        3.8 secs

     total energy              =     -23.05666347 Ry
     estimated scf accuracy    <       0.00005106 Ry

     iteration #  4     ecut=    50.00 Ry     beta= 0.70
     CG style diagonalization
     ethr =  6.38E-07,  avg # of iterations =  4.0

     total cpu time spent up to now is        4.7 secs

     total energy              =     -23.05668115 Ry
     estimated scf accuracy    <       0.00000228 Ry

     iteration #  5     ecut=    50.00 Ry     beta= 0.70
     CG style diagonalization
     ethr =  2.86E-08,  avg # of iterations =  4.0

     total cpu time spent up to now is        5.6 secs

     total energy              =     -23.05668205 Ry
     estimated scf accuracy    <       0.00000004 Ry

     iteration #  6     ecut=    50.00 Ry     beta= 0.70
     CG style diagonalization
     ethr =  4.59E-10,  avg # of iterations =  4.3

     total cpu time spent up to now is        6.5 secs

     End of self-consistent calculation

          k = 0.0000 0.0000 0.0000 (   459 PWs)   bands (ev):

    -8.2166  13.0920  13.0920  13.0920

          k =-0.1000 0.1000-0.1000 (   462 PWs)   bands (ev):

    -7.9403  11.4355  12.6465  12.6465

          k =-0.2000 0.2000-0.2000 (   465 PWs)   bands (ev):

    -7.1162   8.2584  11.7728  11.7728

          k =-0.3000 0.3000-0.3000 (   468 PWs)   bands (ev):

    -5.7626   4.8795  10.9850  10.9850

          k =-0.4000 0.4000-0.4000 (   467 PWs)   bands (ev):

    -3.9433   1.7500  10.4753  10.4753

          k = 0.5000-0.5000 0.5000 (   464 PWs)   bands (ev):

    -2.3797  -0.2635  10.3013  10.3013

          k = 0.0000 0.2000 0.0000 (   459 PWs)   bands (ev):

    -7.8483  11.8665  11.8665  12.2530

          k =-0.1000 0.3000-0.1000 (   464 PWs)   bands (ev):

    -7.2071   9.3656  10.9010  11.7796

          k =-0.2000 0.4000-0.2000 (   459 PWs)   bands (ev):

    -6.0297   6.1179  10.1576  10.9146

          k =-0.3000 0.5000-0.3000 (   455 PWs)   bands (ev):

    -4.3571   2.9298   9.7834  10.0473

          k = 0.6000-0.4000 0.6000 (   455 PWs)   bands (ev):

    -2.4547   0.3037   9.4137   9.8130

          k = 0.5000-0.3000 0.5000 (   455 PWs)   bands (ev):

    -3.0547   1.0532   9.1188  10.2252

          k = 0.4000-0.2000 0.4000 (   455 PWs)   bands (ev):

    -4.9651   3.9720   9.2155  10.9544

          k = 0.3000-0.1000 0.3000 (   465 PWs)   bands (ev):

    -6.4806   7.2296   9.7216  11.8614

          k = 0.2000 0.0000 0.2000 (   469 PWs)   bands (ev):

    -7.4815  10.2014  10.7663  12.6196

          k = 0.0000 0.4000 0.0000 (   463 PWs)   bands (ev):

    -6.7510   9.8696   9.8696  10.0944

          k =-0.1000 0.5000-0.1000 (   461 PWs)   bands (ev):

    -5.7572   7.3334   9.0816   9.4924

          k =-0.2000 0.6000-0.2000 (   452 PWs)   bands (ev):

    -4.2558   4.3840   8.4374   8.6974

          k = 0.7000-0.3000 0.7000 (   455 PWs)   bands (ev):

    -2.3751   1.6350   7.4393   8.7628

          k = 0.6000-0.2000 0.6000 (   453 PWs)   bands (ev):

    -1.8095   0.9617   6.7666   9.2600

          k = 0.5000-0.1000 0.5000 (   453 PWs)   bands (ev):

    -3.6672   3.4965   6.5392  10.1073

          k = 0.4000 0.0000 0.4000 (   453 PWs)   bands (ev):

    -5.3155   6.2083   7.1000  11.1135

          k =-0.0000 0.6000-0.0000 (   456 PWs)   bands (ev):

    -4.9500   7.1454   8.2109   8.2109

          k =-0.1000 0.7000-0.1000 (   457 PWs)   bands (ev):

    -3.6318   5.1780   7.1190   7.7406

          k = 0.8000-0.2000 0.8000 (   460 PWs)   bands (ev):

    -1.8822   2.9912   5.5881   7.7374

          k = 0.7000-0.1000 0.7000 (   455 PWs)   bands (ev):

    -0.4900   1.5131   4.4441   8.1974

          k = 0.6000 0.0000 0.6000 (   459 PWs)   bands (ev):

    -1.9570   3.0810   4.2272   9.0493

          k = 0.0000 0.8000 0.0000 (   452 PWs)   bands (ev):

    -2.5008   3.8110   7.1583   7.1583

          k = 0.9000-0.1000 0.9000 (   456 PWs)   bands (ev):

    -0.9196   2.1876   6.0415   7.0422

          k = 0.8000 0.0000 0.8000 (   462 PWs)   bands (ev):

     0.5790   1.1419   4.2873   7.4061

          k = 0.0000-1.0000 0.0000 (   460 PWs)   bands (ev):

     0.4872   0.4872   6.7997   6.7997

          k =-0.2000 0.4000 0.0000 (   469 PWs)   bands (ev):

    -6.3893   8.1282   8.8780  11.2108

          k =-0.3000 0.5000-0.1000 (   456 PWs)   bands (ev):

    -5.0485   5.3083   8.0284  10.3143

          k = 0.6000-0.4000 0.8000 (   454 PWs)   bands (ev):

    -3.2548   2.3417   7.8019   9.4425

          k = 0.5000-0.3000 0.7000 (   454 PWs)   bands (ev):

    -1.7359   0.4092   7.8022   9.0537

          k =-0.2000 0.6000 0.0000 (   455 PWs)   bands (ev):

    -4.6004   6.1378   7.2910   8.7738

          k = 0.7000-0.3000 0.9000 (   458 PWs)   bands (ev):

    -2.9683   3.7945   6.4344   7.9203

          k = 0.6000-0.2000 0.8000 (   455 PWs)   bands (ev):

    -1.1503   1.4959   5.8020   7.7528

          k = 0.5000-0.1000 0.7000 (   456 PWs)   bands (ev):

    -1.7383   2.2329   5.3260   8.3306

          k = 0.4000 0.0000 0.6000 (   461 PWs)   bands (ev):

    -3.5727   4.5371   5.6036   9.3182

          k = 0.8000-0.2000 1.0000 (   457 PWs)   bands (ev):

    -2.1811   3.7303   6.3131   6.7931

          k = 0.7000-0.1000 0.9000 (   453 PWs)   bands (ev):

    -0.3990   2.1982   4.7319   6.6748

          k = 0.6000 0.0000 0.8000 (   451 PWs)   bands (ev):

    -0.0777   2.0099   3.7462   7.2942

          k =-0.2000-1.0000-0.0000 (   456 PWs)   bands (ev):

     0.7201   0.7201   6.0826   6.0826

          k = 0.6000-0.2000 1.0000 (   454 PWs)   bands (ev):

    -1.2771   3.0920   4.7692   6.7005

          k = 0.5000-0.1000 0.9000 (   458 PWs)   bands (ev):

     0.1212   1.8556   4.4656   6.1118

          k =-0.4000-1.0000-0.0000 (   454 PWs)   bands (ev):

     1.2116   1.2116   4.9419   4.9419

     highest occupied level (ev):    13.0920

!    total energy              =     -23.05668208 Ry
     estimated scf accuracy    <          3.2E-10 Ry

     The total energy is the sum of the following terms:
     one-electron contribution =       7.94506679 Ry
     hartree contribution      =       1.91710713 Ry
     xc contribution           =      -7.34355371 Ry
     ewald contribution        =     -25.57530229 Ry

     convergence has been achieved in   6 iterations

     Forces acting on atoms (cartesian axes, Ry/au):

     atom    1 type  1   force =     0.00000000    0.00000000    0.00000000
     atom    2 type  1   force =     0.00000000    0.00000000    0.00000000

     Total force =     0.000000     Total SCF correction =     0.000000


     Computing stress (Cartesian axis) and pressure

          total   stress  (Ry/bohr**3)                   (kbar)     P=     -126.52
  -0.00086010  -0.00000000   0.00000000         -126.52       -0.00        0.00
  -0.00000000  -0.00086010  -0.00000000           -0.00     -126.52       -0.00
   0.00000000  -0.00000000  -0.00086010            0.00       -0.00     -126.52


     Writing all to output data dir ./Diamond.save/
 
     init_run     :      0.83s CPU      0.88s WALL (       1 calls)
     electrons    :      4.71s CPU      5.26s WALL (       1 calls)
     forces       :      0.08s CPU      0.10s WALL (       1 calls)
     stress       :      0.44s CPU      0.46s WALL (       1 calls)

     Called by init_run:
     wfcinit      :      0.32s CPU      0.34s WALL (       1 calls)
     potinit      :      0.02s CPU      0.03s WALL (       1 calls)
     hinit0       :      0.42s CPU      0.43s WALL (       1 calls)

     Called by electrons:
     c_bands      :      3.74s CPU      4.20s WALL (       6 calls)
     sum_band     :      0.69s CPU      0.74s WALL (       6 calls)
     v_of_rho     :      0.11s CPU      0.11s WALL (       7 calls)
     newd         :      0.16s CPU      0.19s WALL (       7 calls)
     mix_rho      :      0.02s CPU      0.02s WALL (       6 calls)

     Called by c_bands:
     init_us_2    :      0.20s CPU      0.23s WALL (     705 calls)
     init_us_2:cp :      0.19s CPU      0.22s WALL (     705 calls)
     ccgdiagg     :      2.88s CPU      3.24s WALL (     282 calls)
     wfcrot       :      0.99s CPU      1.05s WALL (     282 calls)

     Called by *cgdiagg:
     h_psi        :      3.12s CPU      3.44s WALL (    3649 calls)
     s_psi        :      0.16s CPU      0.19s WALL (    7016 calls)

     Called by h_psi:
     h_psi:calbec :      0.15s CPU      0.17s WALL (    3649 calls)
     vloc_psi     :      2.72s CPU      2.99s WALL (    3649 calls)
     add_vuspsi   :      0.09s CPU      0.11s WALL (    3649 calls)
     hs_1psi      :      2.49s CPU      2.80s WALL (    3367 calls)
     s_1psi       :      0.25s CPU      0.28s WALL (    3367 calls)

     General routines
     calbec       :      0.20s CPU      0.23s WALL (    7533 calls)
     fft          :      0.07s CPU      0.08s WALL (      48 calls)
     ffts         :      0.00s CPU      0.01s WALL (      13 calls)
     fftw         :      2.63s CPU      2.88s WALL (   10494 calls)
     interpolate  :      0.01s CPU      0.02s WALL (       7 calls)
 
     Parallel routines
 
     PWSCF        :      6.40s CPU      7.54s WALL

 
   This run was terminated on:  17: 3:35  14Mar2022            

=------------------------------------------------------------------------------=
   JOB DONE.
=------------------------------------------------------------------------------=
