
     Program PWSCF v.7.0 starts on 14Mar2022 at 17: 9:24 

     This program is part of the open-source Quantum ESPRESSO suite
     for quantum simulation of materials; please cite
         "P. Giannozzi et al., J. Phys.:Condens. Matter 21 395502 (2009);
         "P. Giannozzi et al., J. Phys.:Condens. Matter 29 465901 (2017);
         "P. Giannozzi et al., J. Chem. Phys. 152 154105 (2020);
          URL http://www.quantum-espresso.org", 
     in publications or presentations arising from this work. More details at
     http://www.quantum-espresso.org/quote

     Parallel version (MPI), running on     1 processors

     MPI processes distributed on     1 nodes
     91918 MiB available memory on the printing compute node when the environment starts
 
     Waiting for input...
     Reading input from standard input
Warning: card &CELL ignored
Warning: card  CELL_DYNAMICS = 'BFGS', ignored
Warning: card  PRESS=0.1D0, ignored
Warning: card / ignored
     Message from routine read_cards :
     DEPRECATED: no units specified in ATOMIC_POSITIONS card
     Message from routine read_cards :
     ATOMIC_POSITIONS: units set to alat

     Current dimensions of program PWSCF are:
     Max number of different atomic species (ntypx) = 10
     Max number of k-points (npk) =  40000
     Max angular momentum in pseudopotentials (lmaxx) =  4

     Subspace diagonalization in iterative solution of the eigenvalue problem:
     a serial algorithm will be used

 
     G-vector sticks info
     --------------------
     sticks:   dense  smooth     PW     G-vecs:    dense   smooth      PW
     Sum         379     379    121                 4909     4909     941
 
     Using Slab Decomposition
 


     bravais-lattice index     =            2
     lattice parameter (alat)  =       6.7400  a.u.
     unit-cell volume          =      76.5455 (a.u.)^3
     number of atoms/cell      =            2
     number of atomic types    =            1
     number of electrons       =         8.00
     number of Kohn-Sham states=            4
     kinetic-energy cutoff     =      60.0000  Ry
     charge density cutoff     =     240.0000  Ry
     scf convergence threshold =      1.0E-08
     mixing beta               =       0.7000
     number of iterations used =            8  plain     mixing
     Exchange-correlation= SLA  PZ   NOGX NOGC
                           (   1   1   0   0   0   0   0)

     celldm(1)=   6.740000  celldm(2)=   0.000000  celldm(3)=   0.000000
     celldm(4)=   0.000000  celldm(5)=   0.000000  celldm(6)=   0.000000

     crystal axes: (cart. coord. in units of alat)
               a(1) = (  -0.500000   0.000000   0.500000 )  
               a(2) = (   0.000000   0.500000   0.500000 )  
               a(3) = (  -0.500000   0.500000   0.000000 )  

     reciprocal axes: (cart. coord. in units 2 pi/alat)
               b(1) = ( -1.000000 -1.000000  1.000000 )  
               b(2) = (  1.000000  1.000000  1.000000 )  
               b(3) = ( -1.000000  1.000000 -1.000000 )  


     PseudoPot. # 1 for C  read from file:
     ../C_LDA.UPF
     MD5 check sum: 407c1fe918d93b14b177d5600f28733c
     Pseudo is Ultrasoft + core correction, Zval =  4.0
     Generated by new atomic code, or converted to UPF format
     Using radial grid of  721 points,  4 beta functions with: 
                l(1) =   0
                l(2) =   0
                l(3) =   1
                l(4) =   1
     Q(r) pseudized with  8 coefficients,  rinner =    1.100   1.100   1.100


     atomic species   valence    mass     pseudopotential
        C              4.00    12.01100     C ( 1.00)

     48 Sym. Ops., with inversion, found (24 have fractional translation)



   Cartesian axes

     site n.     atom                  positions (alat units)
         1           C   tau(   1) = (   0.0000000   0.0000000   0.0000000  )
         2           C   tau(   2) = (   0.2500000   0.2500000   0.2500000  )

     number of k points=    47
                       cart. coord. in units 2pi/alat
        k(    1) = (   0.0000000   0.0000000   0.0000000), wk =   0.0020000
        k(    2) = (  -0.1000000   0.1000000  -0.1000000), wk =   0.0160000
        k(    3) = (  -0.2000000   0.2000000  -0.2000000), wk =   0.0160000
        k(    4) = (  -0.3000000   0.3000000  -0.3000000), wk =   0.0160000
        k(    5) = (  -0.4000000   0.4000000  -0.4000000), wk =   0.0160000
        k(    6) = (   0.5000000  -0.5000000   0.5000000), wk =   0.0080000
        k(    7) = (   0.0000000   0.2000000   0.0000000), wk =   0.0120000
        k(    8) = (  -0.1000000   0.3000000  -0.1000000), wk =   0.0480000
        k(    9) = (  -0.2000000   0.4000000  -0.2000000), wk =   0.0480000
        k(   10) = (  -0.3000000   0.5000000  -0.3000000), wk =   0.0480000
        k(   11) = (   0.6000000  -0.4000000   0.6000000), wk =   0.0480000
        k(   12) = (   0.5000000  -0.3000000   0.5000000), wk =   0.0480000
        k(   13) = (   0.4000000  -0.2000000   0.4000000), wk =   0.0480000
        k(   14) = (   0.3000000  -0.1000000   0.3000000), wk =   0.0480000
        k(   15) = (   0.2000000   0.0000000   0.2000000), wk =   0.0240000
        k(   16) = (   0.0000000   0.4000000   0.0000000), wk =   0.0120000
        k(   17) = (  -0.1000000   0.5000000  -0.1000000), wk =   0.0480000
        k(   18) = (  -0.2000000   0.6000000  -0.2000000), wk =   0.0480000
        k(   19) = (   0.7000000  -0.3000000   0.7000000), wk =   0.0480000
        k(   20) = (   0.6000000  -0.2000000   0.6000000), wk =   0.0480000
        k(   21) = (   0.5000000  -0.1000000   0.5000000), wk =   0.0480000
        k(   22) = (   0.4000000   0.0000000   0.4000000), wk =   0.0240000
        k(   23) = (  -0.0000000   0.6000000  -0.0000000), wk =   0.0120000
        k(   24) = (  -0.1000000   0.7000000  -0.1000000), wk =   0.0480000
        k(   25) = (   0.8000000  -0.2000000   0.8000000), wk =   0.0480000
        k(   26) = (   0.7000000  -0.1000000   0.7000000), wk =   0.0480000
        k(   27) = (   0.6000000   0.0000000   0.6000000), wk =   0.0240000
        k(   28) = (   0.0000000   0.8000000   0.0000000), wk =   0.0120000
        k(   29) = (   0.9000000  -0.1000000   0.9000000), wk =   0.0480000
        k(   30) = (   0.8000000   0.0000000   0.8000000), wk =   0.0240000
        k(   31) = (   0.0000000  -1.0000000   0.0000000), wk =   0.0060000
        k(   32) = (  -0.2000000   0.4000000   0.0000000), wk =   0.0480000
        k(   33) = (  -0.3000000   0.5000000  -0.1000000), wk =   0.0960000
        k(   34) = (   0.6000000  -0.4000000   0.8000000), wk =   0.0960000
        k(   35) = (   0.5000000  -0.3000000   0.7000000), wk =   0.0480000
        k(   36) = (  -0.2000000   0.6000000   0.0000000), wk =   0.0480000
        k(   37) = (   0.7000000  -0.3000000   0.9000000), wk =   0.0960000
        k(   38) = (   0.6000000  -0.2000000   0.8000000), wk =   0.0960000
        k(   39) = (   0.5000000  -0.1000000   0.7000000), wk =   0.0960000
        k(   40) = (   0.4000000   0.0000000   0.6000000), wk =   0.0480000
        k(   41) = (   0.8000000  -0.2000000   1.0000000), wk =   0.0480000
        k(   42) = (   0.7000000  -0.1000000   0.9000000), wk =   0.0960000
        k(   43) = (   0.6000000   0.0000000   0.8000000), wk =   0.0480000
        k(   44) = (  -0.2000000  -1.0000000  -0.0000000), wk =   0.0240000
        k(   45) = (   0.6000000  -0.2000000   1.0000000), wk =   0.0480000
        k(   46) = (   0.5000000  -0.1000000   0.9000000), wk =   0.0480000
        k(   47) = (  -0.4000000  -1.0000000  -0.0000000), wk =   0.0240000

     Dense  grid:     4909 G-vectors     FFT dimensions: (  24,  24,  24)

     Estimated max dynamical RAM per process >       9.00 MB

     Initial potential from superposition of free atoms

     starting charge       7.9999, renormalised to       8.0000
     Starting wfcs are    8 randomized atomic wfcs

     total cpu time spent up to now is        1.1 secs

     Self-consistent Calculation

     iteration #  1     ecut=    60.00 Ry     beta= 0.70
     CG style diagonalization
     ethr =  1.00E-02,  avg # of iterations =  3.0

     total cpu time spent up to now is        1.8 secs

     total energy              =     -23.04063722 Ry
     estimated scf accuracy    <       0.13226531 Ry

     iteration #  2     ecut=    60.00 Ry     beta= 0.70
     CG style diagonalization
     ethr =  1.65E-03,  avg # of iterations =  3.6

     total cpu time spent up to now is        2.5 secs

     total energy              =     -23.05623037 Ry
     estimated scf accuracy    <       0.00141597 Ry

     iteration #  3     ecut=    60.00 Ry     beta= 0.70
     CG style diagonalization
     ethr =  1.77E-05,  avg # of iterations =  4.0

     total cpu time spent up to now is        3.4 secs

     total energy              =     -23.05670042 Ry
     estimated scf accuracy    <       0.00005086 Ry

     iteration #  4     ecut=    60.00 Ry     beta= 0.70
     CG style diagonalization
     ethr =  6.36E-07,  avg # of iterations =  4.1

     total cpu time spent up to now is        4.2 secs

     total energy              =     -23.05671825 Ry
     estimated scf accuracy    <       0.00000247 Ry

     iteration #  5     ecut=    60.00 Ry     beta= 0.70
     CG style diagonalization
     ethr =  3.09E-08,  avg # of iterations =  3.9

     total cpu time spent up to now is        5.0 secs

     total energy              =     -23.05671922 Ry
     estimated scf accuracy    <       0.00000004 Ry

     iteration #  6     ecut=    60.00 Ry     beta= 0.70
     CG style diagonalization
     ethr =  5.38E-10,  avg # of iterations =  4.3

     total cpu time spent up to now is        5.9 secs

     End of self-consistent calculation

          k = 0.0000 0.0000 0.0000 (   609 PWs)   bands (ev):

    -8.2166  13.0916  13.0916  13.0916

          k =-0.1000 0.1000-0.1000 (   585 PWs)   bands (ev):

    -7.9403  11.4354  12.6462  12.6462

          k =-0.2000 0.2000-0.2000 (   591 PWs)   bands (ev):

    -7.1162   8.2584  11.7727  11.7727

          k =-0.3000 0.3000-0.3000 (   601 PWs)   bands (ev):

    -5.7626   4.8794  10.9849  10.9849

          k =-0.4000 0.4000-0.4000 (   601 PWs)   bands (ev):

    -3.9433   1.7500  10.4752  10.4752

          k = 0.5000-0.5000 0.5000 (   610 PWs)   bands (ev):

    -2.3797  -0.2636  10.3012  10.3012

          k = 0.0000 0.2000 0.0000 (   593 PWs)   bands (ev):

    -7.8483  11.8662  11.8662  12.2529

          k =-0.1000 0.3000-0.1000 (   589 PWs)   bands (ev):

    -7.2071   9.3656  10.9008  11.7795

          k =-0.2000 0.4000-0.2000 (   600 PWs)   bands (ev):

    -6.0297   6.1178  10.1575  10.9145

          k =-0.3000 0.5000-0.3000 (   599 PWs)   bands (ev):

    -4.3571   2.9297   9.7834  10.0472

          k = 0.6000-0.4000 0.6000 (   598 PWs)   bands (ev):

    -2.4547   0.3037   9.4136   9.8129

          k = 0.5000-0.3000 0.5000 (   601 PWs)   bands (ev):

    -3.0547   1.0532   9.1187  10.2251

          k = 0.4000-0.2000 0.4000 (   600 PWs)   bands (ev):

    -4.9651   3.9719   9.2154  10.9543

          k = 0.3000-0.1000 0.3000 (   599 PWs)   bands (ev):

    -6.4806   7.2296   9.7215  11.8613

          k = 0.2000 0.0000 0.2000 (   594 PWs)   bands (ev):

    -7.4815  10.2013  10.7661  12.6194

          k = 0.0000 0.4000 0.0000 (   584 PWs)   bands (ev):

    -6.7510   9.8695   9.8695  10.0944

          k =-0.1000 0.5000-0.1000 (   595 PWs)   bands (ev):

    -5.7572   7.3334   9.0816   9.4923

          k =-0.2000 0.6000-0.2000 (   600 PWs)   bands (ev):

    -4.2558   4.3839   8.4373   8.6973

          k = 0.7000-0.3000 0.7000 (   598 PWs)   bands (ev):

    -2.3751   1.6350   7.4392   8.7627

          k = 0.6000-0.2000 0.6000 (   597 PWs)   bands (ev):

    -1.8095   0.9616   6.7665   9.2599

          k = 0.5000-0.1000 0.5000 (   604 PWs)   bands (ev):

    -3.6672   3.4965   6.5391  10.1072

          k = 0.4000 0.0000 0.4000 (   600 PWs)   bands (ev):

    -5.3155   6.2082   7.0999  11.1134

          k =-0.0000 0.6000-0.0000 (   592 PWs)   bands (ev):

    -4.9500   7.1453   8.2108   8.2108

          k =-0.1000 0.7000-0.1000 (   603 PWs)   bands (ev):

    -3.6318   5.1780   7.1189   7.7405

          k = 0.8000-0.2000 0.8000 (   604 PWs)   bands (ev):

    -1.8822   2.9912   5.5880   7.7373

          k = 0.7000-0.1000 0.7000 (   608 PWs)   bands (ev):

    -0.4901   1.5131   4.4441   8.1973

          k = 0.6000 0.0000 0.6000 (   602 PWs)   bands (ev):

    -1.9570   3.0810   4.2272   9.0492

          k = 0.0000 0.8000 0.0000 (   608 PWs)   bands (ev):

    -2.5008   3.8110   7.1581   7.1581

          k = 0.9000-0.1000 0.9000 (   608 PWs)   bands (ev):

    -0.9196   2.1875   6.0414   7.0422

          k = 0.8000 0.0000 0.8000 (   604 PWs)   bands (ev):

     0.5790   1.1419   4.2872   7.4060

          k = 0.0000-1.0000 0.0000 (   620 PWs)   bands (ev):

     0.4872   0.4872   6.7996   6.7996

          k =-0.2000 0.4000 0.0000 (   595 PWs)   bands (ev):

    -6.3893   8.1281   8.8779  11.2107

          k =-0.3000 0.5000-0.1000 (   601 PWs)   bands (ev):

    -5.0485   5.3083   8.0283  10.3142

          k = 0.6000-0.4000 0.8000 (   597 PWs)   bands (ev):

    -3.2548   2.3417   7.8018   9.4424

          k = 0.5000-0.3000 0.7000 (   598 PWs)   bands (ev):

    -1.7359   0.4092   7.8021   9.0536

          k =-0.2000 0.6000 0.0000 (   602 PWs)   bands (ev):

    -4.6004   6.1377   7.2909   8.7737

          k = 0.7000-0.3000 0.9000 (   603 PWs)   bands (ev):

    -2.9683   3.7944   6.4343   7.9202

          k = 0.6000-0.2000 0.8000 (   608 PWs)   bands (ev):

    -1.1503   1.4958   5.8019   7.7527

          k = 0.5000-0.1000 0.7000 (   598 PWs)   bands (ev):

    -1.7383   2.2329   5.3259   8.3305

          k = 0.4000 0.0000 0.6000 (   605 PWs)   bands (ev):

    -3.5727   4.5370   5.6035   9.3180

          k = 0.8000-0.2000 1.0000 (   602 PWs)   bands (ev):

    -2.1811   3.7303   6.3130   6.7930

          k = 0.7000-0.1000 0.9000 (   607 PWs)   bands (ev):

    -0.3991   2.1982   4.7318   6.6747

          k = 0.6000 0.0000 0.8000 (   602 PWs)   bands (ev):

    -0.0777   2.0098   3.7462   7.2941

          k =-0.2000-1.0000-0.0000 (   612 PWs)   bands (ev):

     0.7200   0.7200   6.0825   6.0825

          k = 0.6000-0.2000 1.0000 (   609 PWs)   bands (ev):

    -1.2771   3.0920   4.7691   6.7004

          k = 0.5000-0.1000 0.9000 (   602 PWs)   bands (ev):

     0.1212   1.8555   4.4656   6.1117

          k =-0.4000-1.0000-0.0000 (   610 PWs)   bands (ev):

     1.2115   1.2115   4.9418   4.9418

     highest occupied level (ev):    13.0916

!    total energy              =     -23.05671926 Ry
     estimated scf accuracy    <          1.3E-10 Ry

     The total energy is the sum of the following terms:
     one-electron contribution =       7.94501141 Ry
     hartree contribution      =       1.91712638 Ry
     xc contribution           =      -7.34355475 Ry
     ewald contribution        =     -25.57530229 Ry

     convergence has been achieved in   6 iterations

     Forces acting on atoms (cartesian axes, Ry/au):

     atom    1 type  1   force =    -0.00000000   -0.00000000   -0.00000000
     atom    2 type  1   force =     0.00000000    0.00000000    0.00000000

     Total force =     0.000000     Total SCF correction =     0.000000


     Computing stress (Cartesian axis) and pressure

          total   stress  (Ry/bohr**3)                   (kbar)     P=     -126.57
  -0.00086037   0.00000000   0.00000000         -126.57        0.00        0.00
   0.00000000  -0.00086037   0.00000000            0.00     -126.57        0.00
   0.00000000   0.00000000  -0.00086037            0.00        0.00     -126.57


     Writing all to output data dir ./Diamond.save/
 
     init_run     :      0.68s CPU      0.72s WALL (       1 calls)
     electrons    :      4.34s CPU      4.82s WALL (       1 calls)
     forces       :      0.05s CPU      0.05s WALL (       1 calls)
     stress       :      0.31s CPU      0.31s WALL (       1 calls)

     Called by init_run:
     wfcinit      :      0.32s CPU      0.34s WALL (       1 calls)
     potinit      :      0.01s CPU      0.01s WALL (       1 calls)
     hinit0       :      0.33s CPU      0.34s WALL (       1 calls)

     Called by electrons:
     c_bands      :      3.73s CPU      4.17s WALL (       6 calls)
     sum_band     :      0.54s CPU      0.56s WALL (       6 calls)
     v_of_rho     :      0.02s CPU      0.02s WALL (       7 calls)
     newd         :      0.04s CPU      0.04s WALL (       7 calls)
     mix_rho      :      0.01s CPU      0.01s WALL (       6 calls)

     Called by c_bands:
     init_us_2    :      0.25s CPU      0.28s WALL (     705 calls)
     init_us_2:cp :      0.23s CPU      0.27s WALL (     705 calls)
     ccgdiagg     :      2.88s CPU      3.22s WALL (     282 calls)
     wfcrot       :      0.95s CPU      1.01s WALL (     282 calls)

     Called by *cgdiagg:
     h_psi        :      3.07s CPU      3.37s WALL (    3656 calls)
     s_psi        :      0.17s CPU      0.19s WALL (    7030 calls)

     Called by h_psi:
     h_psi:calbec :      0.17s CPU      0.19s WALL (    3656 calls)
     vloc_psi     :      2.64s CPU      2.89s WALL (    3656 calls)
     add_vuspsi   :      0.10s CPU      0.12s WALL (    3656 calls)
     hs_1psi      :      2.48s CPU      2.76s WALL (    3374 calls)
     s_1psi       :      0.25s CPU      0.28s WALL (    3374 calls)

     General routines
     calbec       :      0.22s CPU      0.26s WALL (    7547 calls)
     fft          :      0.01s CPU      0.03s WALL (      36 calls)
     ffts         :      0.00s CPU      0.00s WALL (       6 calls)
     fftw         :      2.54s CPU      2.77s WALL (   10508 calls)
 
     Parallel routines
 
     PWSCF        :      5.71s CPU      6.71s WALL

 
   This run was terminated on:  17: 9:31  14Mar2022            

=------------------------------------------------------------------------------=
   JOB DONE.
=------------------------------------------------------------------------------=
