
     Program PWSCF v.7.0 starts on 14Mar2022 at 17: 9:32 

     This program is part of the open-source Quantum ESPRESSO suite
     for quantum simulation of materials; please cite
         "P. Giannozzi et al., J. Phys.:Condens. Matter 21 395502 (2009);
         "P. Giannozzi et al., J. Phys.:Condens. Matter 29 465901 (2017);
         "P. Giannozzi et al., J. Chem. Phys. 152 154105 (2020);
          URL http://www.quantum-espresso.org", 
     in publications or presentations arising from this work. More details at
     http://www.quantum-espresso.org/quote

     Parallel version (MPI), running on     1 processors

     MPI processes distributed on     1 nodes
     91918 MiB available memory on the printing compute node when the environment starts
 
     Waiting for input...
     Reading input from standard input
Warning: card &CELL ignored
Warning: card  CELL_DYNAMICS = 'BFGS', ignored
Warning: card  PRESS=0.1D0, ignored
Warning: card / ignored
     Message from routine read_cards :
     DEPRECATED: no units specified in ATOMIC_POSITIONS card
     Message from routine read_cards :
     ATOMIC_POSITIONS: units set to alat

     Current dimensions of program PWSCF are:
     Max number of different atomic species (ntypx) = 10
     Max number of k-points (npk) =  40000
     Max angular momentum in pseudopotentials (lmaxx) =  4

     Subspace diagonalization in iterative solution of the eigenvalue problem:
     a serial algorithm will be used

 
     G-vector sticks info
     --------------------
     sticks:   dense  smooth     PW     G-vecs:    dense   smooth      PW
     Sum         433     433    151                 5985     5985    1139
 
     Using Slab Decomposition
 


     bravais-lattice index     =            2
     lattice parameter (alat)  =       6.7400  a.u.
     unit-cell volume          =      76.5455 (a.u.)^3
     number of atoms/cell      =            2
     number of atomic types    =            1
     number of electrons       =         8.00
     number of Kohn-Sham states=            4
     kinetic-energy cutoff     =      70.0000  Ry
     charge density cutoff     =     280.0000  Ry
     scf convergence threshold =      1.0E-08
     mixing beta               =       0.7000
     number of iterations used =            8  plain     mixing
     Exchange-correlation= SLA  PZ   NOGX NOGC
                           (   1   1   0   0   0   0   0)

     celldm(1)=   6.740000  celldm(2)=   0.000000  celldm(3)=   0.000000
     celldm(4)=   0.000000  celldm(5)=   0.000000  celldm(6)=   0.000000

     crystal axes: (cart. coord. in units of alat)
               a(1) = (  -0.500000   0.000000   0.500000 )  
               a(2) = (   0.000000   0.500000   0.500000 )  
               a(3) = (  -0.500000   0.500000   0.000000 )  

     reciprocal axes: (cart. coord. in units 2 pi/alat)
               b(1) = ( -1.000000 -1.000000  1.000000 )  
               b(2) = (  1.000000  1.000000  1.000000 )  
               b(3) = ( -1.000000  1.000000 -1.000000 )  


     PseudoPot. # 1 for C  read from file:
     ../C_LDA.UPF
     MD5 check sum: 407c1fe918d93b14b177d5600f28733c
     Pseudo is Ultrasoft + core correction, Zval =  4.0
     Generated by new atomic code, or converted to UPF format
     Using radial grid of  721 points,  4 beta functions with: 
                l(1) =   0
                l(2) =   0
                l(3) =   1
                l(4) =   1
     Q(r) pseudized with  8 coefficients,  rinner =    1.100   1.100   1.100


     atomic species   valence    mass     pseudopotential
        C              4.00    12.01100     C ( 1.00)

     48 Sym. Ops., with inversion, found (24 have fractional translation)



   Cartesian axes

     site n.     atom                  positions (alat units)
         1           C   tau(   1) = (   0.0000000   0.0000000   0.0000000  )
         2           C   tau(   2) = (   0.2500000   0.2500000   0.2500000  )

     number of k points=    47
                       cart. coord. in units 2pi/alat
        k(    1) = (   0.0000000   0.0000000   0.0000000), wk =   0.0020000
        k(    2) = (  -0.1000000   0.1000000  -0.1000000), wk =   0.0160000
        k(    3) = (  -0.2000000   0.2000000  -0.2000000), wk =   0.0160000
        k(    4) = (  -0.3000000   0.3000000  -0.3000000), wk =   0.0160000
        k(    5) = (  -0.4000000   0.4000000  -0.4000000), wk =   0.0160000
        k(    6) = (   0.5000000  -0.5000000   0.5000000), wk =   0.0080000
        k(    7) = (   0.0000000   0.2000000   0.0000000), wk =   0.0120000
        k(    8) = (  -0.1000000   0.3000000  -0.1000000), wk =   0.0480000
        k(    9) = (  -0.2000000   0.4000000  -0.2000000), wk =   0.0480000
        k(   10) = (  -0.3000000   0.5000000  -0.3000000), wk =   0.0480000
        k(   11) = (   0.6000000  -0.4000000   0.6000000), wk =   0.0480000
        k(   12) = (   0.5000000  -0.3000000   0.5000000), wk =   0.0480000
        k(   13) = (   0.4000000  -0.2000000   0.4000000), wk =   0.0480000
        k(   14) = (   0.3000000  -0.1000000   0.3000000), wk =   0.0480000
        k(   15) = (   0.2000000   0.0000000   0.2000000), wk =   0.0240000
        k(   16) = (   0.0000000   0.4000000   0.0000000), wk =   0.0120000
        k(   17) = (  -0.1000000   0.5000000  -0.1000000), wk =   0.0480000
        k(   18) = (  -0.2000000   0.6000000  -0.2000000), wk =   0.0480000
        k(   19) = (   0.7000000  -0.3000000   0.7000000), wk =   0.0480000
        k(   20) = (   0.6000000  -0.2000000   0.6000000), wk =   0.0480000
        k(   21) = (   0.5000000  -0.1000000   0.5000000), wk =   0.0480000
        k(   22) = (   0.4000000   0.0000000   0.4000000), wk =   0.0240000
        k(   23) = (  -0.0000000   0.6000000  -0.0000000), wk =   0.0120000
        k(   24) = (  -0.1000000   0.7000000  -0.1000000), wk =   0.0480000
        k(   25) = (   0.8000000  -0.2000000   0.8000000), wk =   0.0480000
        k(   26) = (   0.7000000  -0.1000000   0.7000000), wk =   0.0480000
        k(   27) = (   0.6000000   0.0000000   0.6000000), wk =   0.0240000
        k(   28) = (   0.0000000   0.8000000   0.0000000), wk =   0.0120000
        k(   29) = (   0.9000000  -0.1000000   0.9000000), wk =   0.0480000
        k(   30) = (   0.8000000   0.0000000   0.8000000), wk =   0.0240000
        k(   31) = (   0.0000000  -1.0000000   0.0000000), wk =   0.0060000
        k(   32) = (  -0.2000000   0.4000000   0.0000000), wk =   0.0480000
        k(   33) = (  -0.3000000   0.5000000  -0.1000000), wk =   0.0960000
        k(   34) = (   0.6000000  -0.4000000   0.8000000), wk =   0.0960000
        k(   35) = (   0.5000000  -0.3000000   0.7000000), wk =   0.0480000
        k(   36) = (  -0.2000000   0.6000000   0.0000000), wk =   0.0480000
        k(   37) = (   0.7000000  -0.3000000   0.9000000), wk =   0.0960000
        k(   38) = (   0.6000000  -0.2000000   0.8000000), wk =   0.0960000
        k(   39) = (   0.5000000  -0.1000000   0.7000000), wk =   0.0960000
        k(   40) = (   0.4000000   0.0000000   0.6000000), wk =   0.0480000
        k(   41) = (   0.8000000  -0.2000000   1.0000000), wk =   0.0480000
        k(   42) = (   0.7000000  -0.1000000   0.9000000), wk =   0.0960000
        k(   43) = (   0.6000000   0.0000000   0.8000000), wk =   0.0480000
        k(   44) = (  -0.2000000  -1.0000000  -0.0000000), wk =   0.0240000
        k(   45) = (   0.6000000  -0.2000000   1.0000000), wk =   0.0480000
        k(   46) = (   0.5000000  -0.1000000   0.9000000), wk =   0.0480000
        k(   47) = (  -0.4000000  -1.0000000  -0.0000000), wk =   0.0240000

     Dense  grid:     5985 G-vectors     FFT dimensions: (  25,  25,  25)

     Estimated max dynamical RAM per process >      10.91 MB

     Initial potential from superposition of free atoms

     starting charge       7.9999, renormalised to       8.0000
     Starting wfcs are    8 randomized atomic wfcs

     total cpu time spent up to now is        1.2 secs

     Self-consistent Calculation

     iteration #  1     ecut=    70.00 Ry     beta= 0.70
     CG style diagonalization
     ethr =  1.00E-02,  avg # of iterations =  3.0

     total cpu time spent up to now is        2.1 secs

     total energy              =     -23.04058252 Ry
     estimated scf accuracy    <       0.13276468 Ry

     iteration #  2     ecut=    70.00 Ry     beta= 0.70
     CG style diagonalization
     ethr =  1.66E-03,  avg # of iterations =  3.6

     total cpu time spent up to now is        3.0 secs

     total energy              =     -23.05652518 Ry
     estimated scf accuracy    <       0.00140229 Ry

     iteration #  3     ecut=    70.00 Ry     beta= 0.70
     CG style diagonalization
     ethr =  1.75E-05,  avg # of iterations =  4.0

     total cpu time spent up to now is        4.0 secs

     total energy              =     -23.05701048 Ry
     estimated scf accuracy    <       0.00005320 Ry

     iteration #  4     ecut=    70.00 Ry     beta= 0.70
     CG style diagonalization
     ethr =  6.65E-07,  avg # of iterations =  4.1

     total cpu time spent up to now is        5.0 secs

     total energy              =     -23.05703122 Ry
     estimated scf accuracy    <       0.00000300 Ry

     iteration #  5     ecut=    70.00 Ry     beta= 0.70
     CG style diagonalization
     ethr =  3.75E-08,  avg # of iterations =  3.9

     total cpu time spent up to now is        6.0 secs

     total energy              =     -23.05703248 Ry
     estimated scf accuracy    <       0.00000007 Ry

     iteration #  6     ecut=    70.00 Ry     beta= 0.70
     CG style diagonalization
     ethr =  8.37E-10,  avg # of iterations =  4.3

     total cpu time spent up to now is        7.0 secs

     End of self-consistent calculation

          k = 0.0000 0.0000 0.0000 (   749 PWs)   bands (ev):

    -8.2165  13.0911  13.0911  13.0911

          k =-0.1000 0.1000-0.1000 (   743 PWs)   bands (ev):

    -7.9402  11.4346  12.6456  12.6456

          k =-0.2000 0.2000-0.2000 (   769 PWs)   bands (ev):

    -7.1162   8.2577  11.7718  11.7718

          k =-0.3000 0.3000-0.3000 (   763 PWs)   bands (ev):

    -5.7626   4.8791  10.9840  10.9840

          k =-0.4000 0.4000-0.4000 (   763 PWs)   bands (ev):

    -3.9433   1.7498  10.4742  10.4742

          k = 0.5000-0.5000 0.5000 (   754 PWs)   bands (ev):

    -2.3797  -0.2636  10.3002  10.3002

          k = 0.0000 0.2000 0.0000 (   753 PWs)   bands (ev):

    -7.8483  11.8656  11.8656  12.2521

          k =-0.1000 0.3000-0.1000 (   769 PWs)   bands (ev):

    -7.2070   9.3648  10.9000  11.7785

          k =-0.2000 0.4000-0.2000 (   764 PWs)   bands (ev):

    -6.0297   6.1175  10.1566  10.9136

          k =-0.3000 0.5000-0.3000 (   766 PWs)   bands (ev):

    -4.3571   2.9295   9.7824  10.0464

          k = 0.6000-0.4000 0.6000 (   757 PWs)   bands (ev):

    -2.4546   0.3036   9.4128   9.8120

          k = 0.5000-0.3000 0.5000 (   759 PWs)   bands (ev):

    -3.0546   1.0531   9.1180  10.2241

          k = 0.4000-0.2000 0.4000 (   763 PWs)   bands (ev):

    -4.9651   3.9717   9.2146  10.9534

          k = 0.3000-0.1000 0.3000 (   762 PWs)   bands (ev):

    -6.4805   7.2291   9.7208  11.8604

          k = 0.2000 0.0000 0.2000 (   763 PWs)   bands (ev):

    -7.4814  10.2004  10.7654  12.6186

          k = 0.0000 0.4000 0.0000 (   753 PWs)   bands (ev):

    -6.7509   9.8688   9.8688  10.0938

          k =-0.1000 0.5000-0.1000 (   756 PWs)   bands (ev):

    -5.7571   7.3329   9.0808   9.4917

          k =-0.2000 0.6000-0.2000 (   759 PWs)   bands (ev):

    -4.2558   4.3836   8.4368   8.6965

          k = 0.7000-0.3000 0.7000 (   757 PWs)   bands (ev):

    -2.3751   1.6348   7.4387   8.7619

          k = 0.6000-0.2000 0.6000 (   753 PWs)   bands (ev):

    -1.8094   0.9615   6.7660   9.2590

          k = 0.5000-0.1000 0.5000 (   763 PWs)   bands (ev):

    -3.6672   3.4962   6.5387  10.1062

          k = 0.4000 0.0000 0.4000 (   766 PWs)   bands (ev):

    -5.3155   6.2078   7.0994  11.1125

          k =-0.0000 0.6000-0.0000 (   753 PWs)   bands (ev):

    -4.9499   7.1450   8.2100   8.2100

          k =-0.1000 0.7000-0.1000 (   764 PWs)   bands (ev):

    -3.6317   5.1777   7.1183   7.7398

          k = 0.8000-0.2000 0.8000 (   758 PWs)   bands (ev):

    -1.8822   2.9911   5.5876   7.7366

          k = 0.7000-0.1000 0.7000 (   749 PWs)   bands (ev):

    -0.4900   1.5129   4.4438   8.1965

          k = 0.6000 0.0000 0.6000 (   756 PWs)   bands (ev):

    -1.9570   3.0809   4.2269   9.0483

          k = 0.0000 0.8000 0.0000 (   753 PWs)   bands (ev):

    -2.5007   3.8109   7.1575   7.1575

          k = 0.9000-0.1000 0.9000 (   761 PWs)   bands (ev):

    -0.9196   2.1875   6.0408   7.0414

          k = 0.8000 0.0000 0.8000 (   746 PWs)   bands (ev):

     0.5791   1.1418   4.2869   7.4053

          k = 0.0000-1.0000 0.0000 (   740 PWs)   bands (ev):

     0.4872   0.4872   6.7990   6.7990

          k =-0.2000 0.4000 0.0000 (   766 PWs)   bands (ev):

    -6.3892   8.1275   8.8773  11.2097

          k =-0.3000 0.5000-0.1000 (   759 PWs)   bands (ev):

    -5.0485   5.3080   8.0277  10.3133

          k = 0.6000-0.4000 0.8000 (   759 PWs)   bands (ev):

    -3.2548   2.3415   7.8012   9.4416

          k = 0.5000-0.3000 0.7000 (   754 PWs)   bands (ev):

    -1.7359   0.4091   7.8015   9.0528

          k =-0.2000 0.6000 0.0000 (   758 PWs)   bands (ev):

    -4.6004   6.1374   7.2903   8.7730

          k = 0.7000-0.3000 0.9000 (   755 PWs)   bands (ev):

    -2.9682   3.7942   6.4339   7.9196

          k = 0.6000-0.2000 0.8000 (   751 PWs)   bands (ev):

    -1.1503   1.4957   5.8015   7.7521

          k = 0.5000-0.1000 0.7000 (   755 PWs)   bands (ev):

    -1.7383   2.2327   5.3256   8.3298

          k = 0.4000 0.0000 0.6000 (   760 PWs)   bands (ev):

    -3.5726   4.5368   5.6032   9.3172

          k = 0.8000-0.2000 1.0000 (   754 PWs)   bands (ev):

    -2.1811   3.7302   6.3125   6.7924

          k = 0.7000-0.1000 0.9000 (   752 PWs)   bands (ev):

    -0.3990   2.1981   4.7314   6.6741

          k = 0.6000 0.0000 0.8000 (   750 PWs)   bands (ev):

    -0.0777   2.0098   3.7458   7.2934

          k =-0.2000-1.0000-0.0000 (   754 PWs)   bands (ev):

     0.7200   0.7200   6.0820   6.0820

          k = 0.6000-0.2000 1.0000 (   750 PWs)   bands (ev):

    -1.2771   3.0919   4.7688   6.6999

          k = 0.5000-0.1000 0.9000 (   746 PWs)   bands (ev):

     0.1212   1.8554   4.4653   6.1113

          k =-0.4000-1.0000-0.0000 (   752 PWs)   bands (ev):

     1.2115   1.2115   4.9414   4.9414

     highest occupied level (ev):    13.0911

!    total energy              =     -23.05703253 Ry
     estimated scf accuracy    <          7.5E-11 Ry

     The total energy is the sum of the following terms:
     one-electron contribution =       7.94461986 Ry
     hartree contribution      =       1.91722076 Ry
     xc contribution           =      -7.34357086 Ry
     ewald contribution        =     -25.57530229 Ry

     convergence has been achieved in   6 iterations

     Forces acting on atoms (cartesian axes, Ry/au):

     atom    1 type  1   force =     0.00000000    0.00000000    0.00000000
     atom    2 type  1   force =    -0.00000000   -0.00000000   -0.00000000

     Total force =     0.000000     Total SCF correction =     0.000000


     Computing stress (Cartesian axis) and pressure

          total   stress  (Ry/bohr**3)                   (kbar)     P=     -129.32
  -0.00087910   0.00000000   0.00000000         -129.32        0.00        0.00
   0.00000000  -0.00087910  -0.00000000            0.00     -129.32       -0.00
   0.00000000  -0.00000000  -0.00087910            0.00       -0.00     -129.32


     Writing all to output data dir ./Diamond.save/
 
     init_run     :      0.77s CPU      0.82s WALL (       1 calls)
     electrons    :      5.33s CPU      5.83s WALL (       1 calls)
     forces       :      0.06s CPU      0.06s WALL (       1 calls)
     stress       :      0.38s CPU      0.38s WALL (       1 calls)

     Called by init_run:
     wfcinit      :      0.39s CPU      0.41s WALL (       1 calls)
     potinit      :      0.01s CPU      0.01s WALL (       1 calls)
     hinit0       :      0.35s CPU      0.36s WALL (       1 calls)

     Called by electrons:
     c_bands      :      4.58s CPU      5.04s WALL (       6 calls)
     sum_band     :      0.67s CPU      0.70s WALL (       6 calls)
     v_of_rho     :      0.03s CPU      0.03s WALL (       7 calls)
     newd         :      0.05s CPU      0.05s WALL (       7 calls)
     mix_rho      :      0.01s CPU      0.01s WALL (       6 calls)

     Called by c_bands:
     init_us_2    :      0.31s CPU      0.35s WALL (     705 calls)
     init_us_2:cp :      0.29s CPU      0.33s WALL (     705 calls)
     ccgdiagg     :      3.54s CPU      3.91s WALL (     282 calls)
     wfcrot       :      1.16s CPU      1.22s WALL (     282 calls)

     Called by *cgdiagg:
     h_psi        :      3.85s CPU      4.18s WALL (    3644 calls)
     s_psi        :      0.20s CPU      0.22s WALL (    7006 calls)

     Called by h_psi:
     h_psi:calbec :      0.20s CPU      0.22s WALL (    3644 calls)
     vloc_psi     :      3.35s CPU      3.63s WALL (    3644 calls)
     add_vuspsi   :      0.13s CPU      0.14s WALL (    3644 calls)
     hs_1psi      :      3.08s CPU      3.39s WALL (    3362 calls)
     s_1psi       :      0.28s CPU      0.31s WALL (    3362 calls)

     General routines
     calbec       :      0.28s CPU      0.31s WALL (    7523 calls)
     fft          :      0.02s CPU      0.03s WALL (      36 calls)
     ffts         :      0.00s CPU      0.00s WALL (       6 calls)
     fftw         :      3.24s CPU      3.50s WALL (   10484 calls)
 
     Parallel routines
 
     PWSCF        :      6.88s CPU      7.92s WALL

 
   This run was terminated on:  17: 9:40  14Mar2022            

=------------------------------------------------------------------------------=
   JOB DONE.
=------------------------------------------------------------------------------=
