
     Program PWSCF v.6.4.1 starts on 23Apr2022 at 17:21: 8 

     This program is part of the open-source Quantum ESPRESSO suite
     for quantum simulation of materials; please cite
         "P. Giannozzi et al., J. Phys.:Condens. Matter 21 395502 (2009);
         "P. Giannozzi et al., J. Phys.:Condens. Matter 29 465901 (2017);
          URL http://www.quantum-espresso.org", 
     in publications or presentations arising from this work. More details at
     http://www.quantum-espresso.org/quote

     Parallel version (MPI & OpenMP), running on      68 processor cores
     Number of MPI processes:                68
     Threads/MPI process:                     1

     MPI processes distributed on     1 nodes
     R & G space division:  proc/nbgrp/npool/nimage =      68
     Waiting for input...
     Reading input from standard input

     Current dimensions of program PWSCF are:
     Max number of different atomic species (ntypx) = 10
     Max number of k-points (npk) =  40000
     Max angular momentum in pseudopotentials (lmaxx) =  3

     Subspace diagonalization in iterative solution of the eigenvalue problem:
     one sub-group per band group will be used
     scalapack distributed-memory algorithm (size of sub-group:  5*  5 procs)

 
     Parallelization info
     --------------------
     sticks:   dense  smooth     PW     G-vecs:    dense   smooth      PW
     Min          29      29      8                  856      856     133
     Max          31      31      9                  860      860     138
     Sum        1981    1981    583                58383    58383    9185
 


     bravais-lattice index     =            5
     lattice parameter (alat)  =      12.0000  a.u.
     unit-cell volume          =    1221.8805 (a.u.)^3
     number of atoms/cell      =           10
     number of atomic types    =            3
     number of electrons       =        64.00
     number of Kohn-Sham states=           32
     kinetic-energy cutoff     =      50.0000  Ry
     charge density cutoff     =     200.0000  Ry
     convergence threshold     =      1.0E-08
     mixing beta               =       0.7000
     number of iterations used =            8  plain     mixing
     Exchange-correlation      = SLA  PW   PBE  PBE ( 1  4  3  4 0 0)
     nstep                     =           50


     celldm(1)=  12.000000  celldm(2)=   0.000000  celldm(3)=   0.000000
     celldm(4)=   0.500000  celldm(5)=   0.000000  celldm(6)=   0.000000

     crystal axes: (cart. coord. in units of alat)
               a(1) = (   0.500000  -0.288675   0.816497 )  
               a(2) = (   0.000000   0.577350   0.816497 )  
               a(3) = (  -0.500000  -0.288675   0.816497 )  

     reciprocal axes: (cart. coord. in units 2 pi/alat)
               b(1) = (  1.000000 -0.577350  0.408248 )  
               b(2) = (  0.000000  1.154701  0.408248 )  
               b(3) = ( -1.000000 -0.577350  0.408248 )  


     PseudoPot. # 1 for Ca read from file:
     ./Ca_PBE.UPF
     MD5 check sum: 403a4c14b9e4d4dfdc3024c9a3812218
     Pseudo is Ultrasoft + core correction, Zval = 10.0
     Generated by new atomic code, or converted to UPF format
     Using radial grid of  845 points,  6 beta functions with: 
                l(1) =   0
                l(2) =   0
                l(3) =   1
                l(4) =   1
                l(5) =   2
                l(6) =   2
     Q(r) pseudized with  8 coefficients,  rinner =    1.500   1.500   1.500
                                                       1.500   1.500

     PseudoPot. # 2 for C  read from file:
     ./C_PBE.UPF
     MD5 check sum: d1aef80898a10debaa0f26306b886e00
     Pseudo is Ultrasoft + core correction, Zval =  4.0
     Generated by new atomic code, or converted to UPF format
     Using radial grid of  721 points,  4 beta functions with: 
                l(1) =   0
                l(2) =   0
                l(3) =   1
                l(4) =   1
     Q(r) pseudized with  8 coefficients,  rinner =    1.100   1.100   1.100


     PseudoPot. # 3 for O  read from file:
     ./O_PBE.UPF
     MD5 check sum: 734c27235a0248c51dbae37a1fbe46ec
     Pseudo is Ultrasoft + core correction, Zval =  6.0
     Generated by new atomic code, or converted to UPF format
     Using radial grid of  737 points,  5 beta functions with: 
                l(1) =   0
                l(2) =   0
                l(3) =   1
                l(4) =   1
                l(5) =   2
     Q(r) pseudized with  8 coefficients,  rinner =    0.900   0.900   0.900
                                                       0.900   0.900

     atomic species   valence    mass     pseudopotential
        Ca            10.00    40.07800     Ca( 1.00)
        C              4.00    12.01070     C ( 1.00)
        O              6.00    16.00000     O ( 1.00)

     12 Sym. Ops., with inversion, found ( 6 have fractional translation)



   Cartesian axes

     site n.     atom                  positions (alat units)
         1           Ca  tau(   1) = (   0.0000000  -0.0000000   1.2247449  )
         2           Ca  tau(   2) = (   0.0000000   0.0000000   0.0000000  )
         3           C   tau(   3) = (   0.0000000  -0.0000000   0.6123724  )
         4           C   tau(   4) = (  -0.0000000  -0.0000000   1.8371173  )
         5           O   tau(   5) = (   0.1293055   0.3533865   1.4288690  )
         6           O   tau(   6) = (   0.2413889  -0.2886751   1.4288690  )
         7           O   tau(   7) = (  -0.3706945  -0.0647114   1.4288690  )
         8           O   tau(   8) = (  -0.2413889   0.2886751   1.0206207  )
         9           O   tau(   9) = (   0.3706945   0.0647114   1.0206207  )
        10           O   tau(  10) = (  -0.1293055  -0.3533865   1.0206207  )

     number of k points=    85
                       cart. coord. in units 2pi/alat
        k(    1) = (   0.0000000   0.0000000   0.0000000), wk =   0.0027435
        k(    2) = (  -0.1111111  -0.0641500   0.0453609), wk =   0.0164609
        k(    3) = (  -0.2222222  -0.1283001   0.0907218), wk =   0.0164609
        k(    4) = (  -0.3333333  -0.1924501   0.1360828), wk =   0.0164609
        k(    5) = (  -0.4444444  -0.2566001   0.1814437), wk =   0.0164609
        k(    6) = (  -0.1111111   0.0641500   0.0907218), wk =   0.0164609
        k(    7) = (  -0.2222222  -0.0000000   0.1360828), wk =   0.0329218
        k(    8) = (  -0.3333333  -0.0641500   0.1814437), wk =   0.0329218
        k(    9) = (  -0.4444444  -0.1283001   0.2268046), wk =   0.0329218
        k(   10) = (   0.4444444   0.3849002  -0.1360828), wk =   0.0329218
        k(   11) = (   0.3333333   0.3207501  -0.0907218), wk =   0.0329218
        k(   12) = (   0.2222222   0.2566001  -0.0453609), wk =   0.0329218
        k(   13) = (   0.1111111   0.1924501   0.0000000), wk =   0.0164609
        k(   14) = (  -0.2222222   0.1283001   0.1814437), wk =   0.0164609
        k(   15) = (  -0.3333333   0.0641500   0.2268046), wk =   0.0329218
        k(   16) = (  -0.4444444  -0.0000000   0.2721655), wk =   0.0329218
        k(   17) = (   0.4444444   0.5132002  -0.0907218), wk =   0.0329218
        k(   18) = (   0.3333333   0.4490502  -0.0453609), wk =   0.0329218
        k(   19) = (   0.2222222   0.3849002   0.0000000), wk =   0.0164609
        k(   20) = (  -0.3333333   0.1924501   0.2721655), wk =   0.0164609
        k(   21) = (  -0.4444444   0.1283001   0.3175264), wk =   0.0329218
        k(   22) = (   0.4444444   0.6415003  -0.0453609), wk =   0.0329218
        k(   23) = (   0.3333333   0.5773503   0.0000000), wk =   0.0164609
        k(   24) = (  -0.4444444   0.2566001   0.3628874), wk =   0.0164609
        k(   25) = (   0.4444444   0.7698004   0.0000000), wk =   0.0164609
        k(   26) = (  -0.0000000  -0.0000000   0.1360828), wk =   0.0054870
        k(   27) = (  -0.1111111  -0.0641500   0.1814437), wk =   0.0164609
        k(   28) = (  -0.2222222  -0.1283001   0.2268046), wk =   0.0164609
        k(   29) = (  -0.3333333  -0.1924501   0.2721655), wk =   0.0164609
        k(   30) = (   0.5555556   0.3207501  -0.0907218), wk =   0.0164609
        k(   31) = (   0.4444444   0.2566001  -0.0453609), wk =   0.0164609
        k(   32) = (   0.3333333   0.1924501   0.0000000), wk =   0.0164609
        k(   33) = (   0.2222222   0.1283001   0.0453609), wk =   0.0164609
        k(   34) = (  -0.1111111   0.0641500   0.2268046), wk =   0.0164609
        k(   35) = (  -0.2222222  -0.0000000   0.2721655), wk =   0.0329218
        k(   36) = (  -0.3333333  -0.0641500   0.3175264), wk =   0.0329218
        k(   37) = (   0.5555556   0.4490502  -0.0453609), wk =   0.0329218
        k(   38) = (   0.4444444   0.3849002   0.0000000), wk =   0.0329218
        k(   39) = (   0.3333333   0.3207501   0.0453609), wk =   0.0329218
        k(   40) = (   0.2222222   0.2566001   0.0907218), wk =   0.0329218
        k(   41) = (  -0.2222222   0.1283001   0.3175264), wk =   0.0164609
        k(   42) = (  -0.3333333   0.0641500   0.3628874), wk =   0.0329218
        k(   43) = (   0.5555556   0.5773503   0.0000000), wk =   0.0329218
        k(   44) = (   0.4444444   0.5132002   0.0453609), wk =   0.0329218
        k(   45) = (   0.3333333   0.4490502   0.0907218), wk =   0.0329218
        k(   46) = (   0.2222222   0.3849002   0.1360828), wk =   0.0329218
        k(   47) = (  -0.3333333   0.1924501   0.4082483), wk =   0.0164609
        k(   48) = (   0.5555556   0.7056503   0.0453609), wk =   0.0329218
        k(   49) = (   0.4444444   0.6415003   0.0907218), wk =   0.0329218
        k(   50) = (   0.3333333   0.5773503   0.1360828), wk =   0.0329218
        k(   51) = (   0.2222222   0.5132002   0.1814437), wk =   0.0329218
        k(   52) = (   0.5555556  -0.3207501  -0.3175264), wk =   0.0164609
        k(   53) = (   0.4444444  -0.3849002  -0.2721655), wk =   0.0329218
        k(   54) = (   0.3333333  -0.4490502  -0.2268046), wk =   0.0329218
        k(   55) = (   0.4444444  -0.2566001  -0.2268046), wk =   0.0164609
        k(   56) = (   0.3333333  -0.3207501  -0.1814437), wk =   0.0329218
        k(   57) = (   0.3333333  -0.1924501  -0.1360828), wk =   0.0164609
        k(   58) = (  -0.0000000  -0.0000000   0.2721655), wk =   0.0054870
        k(   59) = (  -0.1111111  -0.0641500   0.3175264), wk =   0.0164609
        k(   60) = (  -0.2222222  -0.1283001   0.3628874), wk =   0.0164609
        k(   61) = (   0.6666667   0.3849002   0.0000000), wk =   0.0164609
        k(   62) = (   0.5555556   0.3207501   0.0453609), wk =   0.0164609
        k(   63) = (   0.4444444   0.2566001   0.0907218), wk =   0.0164609
        k(   64) = (  -0.1111111   0.0641500   0.3628874), wk =   0.0164609
        k(   65) = (  -0.2222222  -0.0000000   0.4082483), wk =   0.0329218
        k(   66) = (   0.6666667   0.5132002   0.0453609), wk =   0.0329218
        k(   67) = (   0.5555556   0.4490502   0.0907218), wk =   0.0329218
        k(   68) = (   0.4444444   0.3849002   0.1360828), wk =   0.0329218
        k(   69) = (  -0.2222222   0.1283001   0.4536092), wk =   0.0164609
        k(   70) = (   0.6666667   0.6415003   0.0907218), wk =   0.0329218
        k(   71) = (   0.5555556   0.5773503   0.1360828), wk =   0.0329218
        k(   72) = (   0.4444444   0.5132002   0.1814437), wk =   0.0329218
        k(   73) = (   0.6666667  -0.3849002  -0.2721655), wk =   0.0164609
        k(   74) = (   0.5555556  -0.4490502  -0.2268046), wk =   0.0329218
        k(   75) = (   0.5555556  -0.3207501  -0.1814437), wk =   0.0164609
        k(   76) = (   0.0000000   0.0000000   0.4082483), wk =   0.0054870
        k(   77) = (  -0.1111111  -0.0641500   0.4536092), wk =   0.0164609
        k(   78) = (   0.7777778   0.4490502   0.0907218), wk =   0.0164609
        k(   79) = (   0.6666667   0.3849002   0.1360828), wk =   0.0164609
        k(   80) = (  -0.1111111   0.0641500   0.4989701), wk =   0.0164609
        k(   81) = (   0.7777778   0.5773503   0.1360828), wk =   0.0329218
        k(   82) = (   0.6666667   0.5132002   0.1814437), wk =   0.0329218
        k(   83) = (   0.7777778  -0.4490502  -0.2268046), wk =   0.0164609
        k(   84) = (  -0.0000000  -0.0000000   0.5443311), wk =   0.0054870
        k(   85) = (   0.8888889   0.5132002   0.1814437), wk =   0.0164609

     Dense  grid:    58383 G-vectors     FFT dimensions: (  60,  60,  60)

     Estimated max dynamical RAM per process >      21.22 MB

     Estimated total dynamical RAM >       1.41 GB

     Check: negative core charge=   -0.000002

     Initial potential from superposition of free atoms

     starting charge   63.98899, renormalised to   64.00000
     Starting wfcs are   52 randomized atomic wfcs

     total cpu time spent up to now is       13.3 secs

     Self-consistent Calculation

     iteration #  1     ecut=    50.00 Ry     beta= 0.70
     CG style diagonalization
     ethr =  1.00E-02,  avg # of iterations =  2.1

     total cpu time spent up to now is       31.3 secs

     total energy              =    -365.08376964 Ry
     Harris-Foulkes estimate   =    -366.86966120 Ry
     estimated scf accuracy    <       2.42145814 Ry

     iteration #  2     ecut=    50.00 Ry     beta= 0.70
     CG style diagonalization
     ethr =  3.78E-03,  avg # of iterations =  4.8

     total cpu time spent up to now is       68.0 secs

     total energy              =    -364.88675772 Ry
     Harris-Foulkes estimate   =    -368.37463174 Ry
     estimated scf accuracy    <      10.13339559 Ry

     iteration #  3     ecut=    50.00 Ry     beta= 0.70
     CG style diagonalization
     ethr =  3.78E-03,  avg # of iterations =  4.3

     total cpu time spent up to now is      100.7 secs

     total energy              =    -366.36659910 Ry
     Harris-Foulkes estimate   =    -366.39254236 Ry
     estimated scf accuracy    <       0.05615853 Ry

     iteration #  4     ecut=    50.00 Ry     beta= 0.70
     CG style diagonalization
     ethr =  8.77E-05,  avg # of iterations =  4.4

     total cpu time spent up to now is      133.8 secs

     total energy              =    -366.40472773 Ry
     Harris-Foulkes estimate   =    -366.40808134 Ry
     estimated scf accuracy    <       0.01048376 Ry

     iteration #  5     ecut=    50.00 Ry     beta= 0.70
     CG style diagonalization
     ethr =  1.64E-05,  avg # of iterations =  3.9

     total cpu time spent up to now is      163.0 secs

     total energy              =    -366.40768955 Ry
     Harris-Foulkes estimate   =    -366.40768200 Ry
     estimated scf accuracy    <       0.00015317 Ry

     iteration #  6     ecut=    50.00 Ry     beta= 0.70
     CG style diagonalization
     ethr =  2.39E-07,  avg # of iterations =  5.3

     total cpu time spent up to now is      203.0 secs

     total energy              =    -366.40790784 Ry
     Harris-Foulkes estimate   =    -366.40795374 Ry
     estimated scf accuracy    <       0.00011111 Ry

     iteration #  7     ecut=    50.00 Ry     beta= 0.70
     CG style diagonalization
     ethr =  1.74E-07,  avg # of iterations =  3.8

     total cpu time spent up to now is      231.8 secs

     total energy              =    -366.40793734 Ry
     Harris-Foulkes estimate   =    -366.40794090 Ry
     estimated scf accuracy    <       0.00001289 Ry

     iteration #  8     ecut=    50.00 Ry     beta= 0.70
     CG style diagonalization
     ethr =  2.01E-08,  avg # of iterations =  3.7

     total cpu time spent up to now is      259.7 secs

     total energy              =    -366.40793951 Ry
     Harris-Foulkes estimate   =    -366.40793990 Ry
     estimated scf accuracy    <       0.00000162 Ry

     iteration #  9     ecut=    50.00 Ry     beta= 0.70
     CG style diagonalization
     ethr =  2.53E-09,  avg # of iterations =  3.8

     total cpu time spent up to now is      289.2 secs

     total energy              =    -366.40793995 Ry
     Harris-Foulkes estimate   =    -366.40794002 Ry
     estimated scf accuracy    <       0.00000019 Ry

     iteration # 10     ecut=    50.00 Ry     beta= 0.70
     CG style diagonalization
     ethr =  2.95E-10,  avg # of iterations =  4.4

     total cpu time spent up to now is      322.7 secs

     End of self-consistent calculation

          k = 0.0000 0.0000 0.0000 (  7391 PWs)   bands (ev):

   -38.5637 -38.5618 -19.5578 -19.5337 -19.4773 -19.4773 -19.4513 -19.4513
   -15.8677 -15.5781 -14.6254 -14.6254 -14.4755 -14.4755  -6.3270  -6.1708
    -2.5497  -2.5497  -2.4662  -2.4662  -1.6790  -0.5460   0.2868   0.2868
     0.4490   0.4490   0.5459   0.5459   0.8262   1.4031   1.4853   1.4853

          k =-0.1111-0.0642 0.0454 (  7315 PWs)   bands (ev):

   -38.5636 -38.5618 -19.5570 -19.5344 -19.4767 -19.4767 -19.4524 -19.4521
   -15.8553 -15.5889 -14.6210 -14.6172 -14.4846 -14.4812  -6.3239  -6.1693
    -2.5582  -2.5449  -2.4636  -2.4532  -1.6447  -0.5998   0.2899   0.2963
     0.3873   0.3943   0.5775   0.5921   0.8693   1.3827   1.4475   1.4753

          k =-0.2222-0.1283 0.0907 (  7309 PWs)   bands (ev):

   -38.5634 -38.5620 -19.5548 -19.5365 -19.4750 -19.4749 -19.4555 -19.4546
   -15.8220 -15.6167 -14.6085 -14.5983 -14.5071 -14.4968  -6.3119  -6.1697
    -2.5743  -2.5287  -2.4631  -2.4255  -1.5471  -0.7272   0.2458   0.2747
     0.3015   0.3440   0.6359   0.6875   0.9471   1.2976   1.3963   1.4519

          k =-0.3333-0.1925 0.1361 (  7297 PWs)   bands (ev):

   -38.5632 -38.5623 -19.5515 -19.5397 -19.4722 -19.4721 -19.4596 -19.4585
   -15.7775 -15.6521 -14.5910 -14.5802 -14.5316 -14.5182  -6.2866  -6.1816
    -2.5812  -2.5149  -2.4619  -2.4043  -1.4005  -0.8815   0.1217   0.1630
     0.3255   0.3743   0.7063   0.7655   0.9970   1.1693   1.3810   1.4287

          k =-0.4444-0.2566 0.1814 (  7294 PWs)   bands (ev):

   -38.5629 -38.5626 -19.5476 -19.5435 -19.4687 -19.4682 -19.4639 -19.4629
   -15.7320 -15.6904 -14.5737 -14.5700 -14.5464 -14.5392  -6.2493  -6.2101
    -2.5679  -2.5380  -2.4328  -2.4064  -1.2266  -1.0487   0.0599   0.0807
     0.3618   0.3859   0.7678   0.7923   1.0188   1.0665   1.3898   1.4090

          k =-0.1111 0.0642 0.0907 (  7327 PWs)   bands (ev):

   -38.5636 -38.5619 -19.5569 -19.5348 -19.4780 -19.4749 -19.4541 -19.4509
   -15.8524 -15.5915 -14.6232 -14.6120 -14.4902 -14.4786  -6.3234  -6.1709
    -2.5685  -2.5328  -2.4640  -2.4515  -1.6351  -0.6136   0.2870   0.2996
     0.3826   0.4172   0.5418   0.6253   0.8745   1.3753   1.4374   1.4630

          k =-0.2222-0.0000 0.1361 (  7319 PWs)   bands (ev):

   -38.5635 -38.5620 -19.5554 -19.5365 -19.4780 -19.4722 -19.4574 -19.4516
   -15.8273 -15.6123 -14.6163 -14.5955 -14.5096 -14.4878  -6.3153  -6.1714
    -2.5825  -2.5187  -2.4661  -2.4270  -1.5631  -0.7128   0.2766   0.2895
     0.3177   0.3742   0.5805   0.6966   0.9359   1.3126   1.3800   1.4465

          k =-0.3333-0.0642 0.1814 (  7315 PWs)   bands (ev):

   -38.5633 -38.5622 -19.5527 -19.5393 -19.4767 -19.4687 -19.4617 -19.4541
   -15.7883 -15.6427 -14.6041 -14.5768 -14.5337 -14.5045  -6.2945  -6.1793
    -2.5838  -2.5138  -2.4680  -2.4005  -1.4401  -0.8485   0.1645   0.2028
     0.3302   0.3834   0.6561   0.7672   0.9903   1.1931   1.3547   1.4288

          k =-0.4444-0.1283 0.2268 (  7302 PWs)   bands (ev):

   -38.5630 -38.5625 -19.5492 -19.5428 -19.4742 -19.4668 -19.4642 -19.4578
   -15.7456 -15.6763 -14.5928 -14.5675 -14.5477 -14.5214  -6.2598  -6.2020
    -2.5674  -2.5423  -2.4442  -2.3916  -1.2844  -0.9960   0.0773   0.1014
     0.3731   0.3956   0.7247   0.7932   1.0220   1.0932   1.3561   1.4135

          k = 0.4444 0.3849-0.1361 (  7300 PWs)   bands (ev):

   -38.5628 -38.5627 -19.5465 -19.5452 -19.4713 -19.4700 -19.4622 -19.4601
   -15.7127 -15.7060 -14.5855 -14.5762 -14.5396 -14.5320  -6.2376  -6.2189
    -2.5841  -2.5311  -2.4172  -2.4065  -1.1570  -1.1177   0.0420   0.0640
     0.3727   0.4119   0.7375   0.7983   1.0405   1.0726   1.3678   1.4006

          k = 0.3333 0.3208-0.0907 (  7296 PWs)   bands (ev):

   -38.5631 -38.5624 -19.5501 -19.5414 -19.4745 -19.4670 -19.4652 -19.4563
   -15.7538 -15.6699 -14.5943 -14.5711 -14.5435 -14.5189  -6.2752  -6.1849
    -2.6071  -2.4994  -2.4346  -2.4067  -1.3253  -0.9568   0.0560   0.1218
     0.3339   0.4081   0.6847   0.8123   1.0208   1.1609   1.3631   1.4051

          k = 0.2222 0.2566-0.0454 (  7313 PWs)   bands (ev):

   -38.5633 -38.5621 -19.5533 -19.5380 -19.4766 -19.4708 -19.4604 -19.4535
   -15.7975 -15.6356 -14.6077 -14.5789 -14.5298 -14.5007  -6.3034  -6.1676
    -2.6053  -2.5030  -2.4435  -2.4199  -1.4777  -0.8082   0.1482   0.2197
     0.3048   0.3720   0.6242   0.7716   0.9897   1.2781   1.3659   1.4203

          k = 0.1111 0.1925 0.0000 (  7325 PWs)   bands (ev):

   -38.5635 -38.5619 -19.5558 -19.5356 -19.4773 -19.4742 -19.4557 -19.4520
   -15.8348 -15.6060 -14.6178 -14.6003 -14.5036 -14.4865  -6.3186  -6.1655
    -2.5838  -2.5264  -2.4485  -2.4426  -1.5898  -0.6787   0.2814   0.2921
     0.3029   0.3508   0.5807   0.6807   0.9276   1.3582   1.4105   1.4453

          k =-0.2222 0.1283 0.1814 (  7323 PWs)   bands (ev):

   -38.5634 -38.5620 -19.5549 -19.5379 -19.4798 -19.4686 -19.4608 -19.4500
   -15.8120 -15.6241 -14.6180 -14.5796 -14.5286 -14.4867  -6.3135  -6.1702
    -2.6108  -2.4947  -2.4623  -2.4103  -1.5249  -0.7752   0.2678   0.2834
     0.3511   0.3728   0.5339   0.7593   0.9700   1.2982   1.3092   1.4228

          k =-0.3333 0.0642 0.2268 (  7288 PWs)   bands (ev):

   -38.5633 -38.5622 -19.5533 -19.5403 -19.4801 -19.4650 -19.4644 -19.4505
   -15.7822 -15.6460 -14.6129 -14.5627 -14.5510 -14.4952  -6.3010  -6.1729
    -2.6223  -2.4916  -2.4566  -2.3837  -1.4391  -0.8776   0.1942   0.2378
     0.3554   0.3978   0.5720   0.8204   1.0030   1.2005   1.2823   1.4091

          k =-0.4444-0.0000 0.2722 (  7288 PWs)   bands (ev):

   -38.5630 -38.5624 -19.5507 -19.5431 -19.4788 -19.4687 -19.4609 -19.4528
   -15.7477 -15.6708 -14.6076 -14.5760 -14.5429 -14.5063  -6.2737  -6.1887
    -2.6058  -2.5284  -2.4334  -2.3683  -1.3193  -0.9853   0.1012   0.1375
     0.4027   0.4248   0.6412   0.8143   1.0307   1.1217   1.2819   1.4045

          k = 0.4444 0.5132-0.0907 (  7300 PWs)   bands (ev):

   -38.5628 -38.5626 -19.5475 -19.5460 -19.4759 -19.4724 -19.4575 -19.4564
   -15.7161 -15.6966 -14.6029 -14.5895 -14.5311 -14.5159  -6.2354  -6.2188
    -2.5825  -2.5581  -2.4138  -2.3747  -1.1831  -1.0997   0.0480   0.0542
     0.4136   0.4568   0.6970   0.7587   1.0724   1.0929   1.2943   1.4013

          k = 0.3333 0.4491-0.0454 (  7300 PWs)   bands (ev):

   -38.5629 -38.5625 -19.5488 -19.5440 -19.4755 -19.4714 -19.4611 -19.4549
   -15.7267 -15.6883 -14.5997 -14.5902 -14.5274 -14.5199  -6.2549  -6.1984
    -2.6159  -2.5103  -2.4090  -2.3977  -1.2307  -1.0474   0.0137   0.0735
     0.3688   0.4659   0.6701   0.7919   1.0494   1.1735   1.2928   1.4003

          k = 0.2222 0.3849 0.0000 (  7293 PWs)   bands (ev):

   -38.5631 -38.5623 -19.5512 -19.5406 -19.4768 -19.4660 -19.4660 -19.4535
   -15.7622 -15.6615 -14.6037 -14.5751 -14.5388 -14.5100  -6.2852  -6.1747
    -2.6244  -2.4854  -2.4196  -2.4187  -1.3653  -0.9210   0.0512   0.1434
     0.3265   0.4233   0.6376   0.8166   1.0272   1.2750   1.2786   1.4041

          k =-0.3333 0.1925 0.2722 (  7275 PWs)   bands (ev):

   -38.5632 -38.5623 -19.5530 -19.5421 -19.4819 -19.4675 -19.4610 -19.4489
   -15.7630 -15.6588 -14.6140 -14.5736 -14.5444 -14.4967  -6.3011  -6.1674
    -2.6529  -2.4651  -2.4592  -2.3566  -1.4004  -0.9469   0.1976   0.2482
     0.3871   0.4125   0.5314   0.8884   0.9758   1.2004   1.2031   1.3903

          k =-0.4444 0.1283 0.3175 (  7275 PWs)   bands (ev):

   -38.5631 -38.5624 -19.5517 -19.5443 -19.4819 -19.4703 -19.4579 -19.4495
   -15.7397 -15.6740 -14.6145 -14.5899 -14.5304 -14.5028  -6.2876  -6.1728
    -2.6531  -2.4975  -2.4299  -2.3385  -1.3308  -1.0162   0.1425   0.1882
     0.4218   0.4686   0.5634   0.8400   0.9919   1.1473   1.2151   1.3868

          k = 0.4444 0.6415-0.0454 (  7278 PWs)   bands (ev):

   -38.5629 -38.5625 -19.5496 -19.5461 -19.4801 -19.4728 -19.4557 -19.4520
   -15.7197 -15.6883 -14.6133 -14.6001 -14.5216 -14.5092  -6.2595  -6.1939
    -2.6179  -2.5487  -2.4084  -2.3413  -1.2405  -1.0742   0.0743   0.0961
     0.4516   0.5211   0.6295   0.7233   1.0683   1.1095   1.2277   1.3941

          k = 0.3333 0.5774 0.0000 (  7290 PWs)   bands (ev):

   -38.5627 -38.5627 -19.5475 -19.5469 -19.4766 -19.4746 -19.4560 -19.4546
   -15.7044 -15.7040 -14.6067 -14.6022 -14.5196 -14.5155  -6.2256  -6.2252
    -2.5947  -2.5602  -2.4026  -2.3647  -1.1430  -1.1415   0.0277   0.0475
     0.4215   0.5234   0.6635   0.7209   1.0760   1.1416   1.2475   1.3983

          k =-0.4444 0.2566 0.3629 (  7259 PWs)   bands (ev):

   -38.5630 -38.5624 -19.5519 -19.5454 -19.4832 -19.4714 -19.4559 -19.4482
   -15.7289 -15.6804 -14.6214 -14.5953 -14.5195 -14.5062  -6.2924  -6.1646
    -2.6777  -2.4694  -2.4404  -2.3180  -1.3201  -1.0537   0.1622   0.2160
     0.4151   0.5282   0.5445   0.7966   0.9752   1.1214   1.2239   1.3727

          k = 0.4444 0.7698 0.0000 (  7266 PWs)   bands (ev):

   -38.5630 -38.5624 -19.5512 -19.5460 -19.4826 -19.4723 -19.4551 -19.4491
   -15.7221 -15.6847 -14.6217 -14.5989 -14.5138 -14.5107  -6.2820  -6.1723
    -2.6643  -2.5029  -2.4193  -2.3189  -1.2883  -1.0696   0.1266   0.1688
     0.4419   0.5561   0.5893   0.7127   1.0180   1.1163   1.2164   1.3801

          k =-0.0000-0.0000 0.1361 (  7315 PWs)   bands (ev):

   -38.5636 -38.5618 -19.5573 -19.5346 -19.4766 -19.4766 -19.4521 -19.4521
   -15.8587 -15.5866 -14.6209 -14.6209 -14.4800 -14.4800  -6.3241  -6.1773
    -2.5454  -2.5454  -2.4662  -2.4662  -1.6459  -0.5873   0.2892   0.2892
     0.4377   0.4377   0.5770   0.5770   0.8386   1.3778   1.4544   1.4544

          k =-0.1111-0.0642 0.1814 (  7325 PWs)   bands (ev):

   -38.5635 -38.5619 -19.5562 -19.5360 -19.4770 -19.4740 -19.4549 -19.4522
   -15.8414 -15.6017 -14.6148 -14.6103 -14.4922 -14.4874  -6.3184  -6.1801
    -2.5488  -2.5382  -2.4764  -2.4440  -1.5933  -0.6622   0.2899   0.2985
     0.3638   0.4361   0.5754   0.6478   0.8860   1.3302   1.3909   1.4501

          k =-0.2222-0.1283 0.2268 (  7313 PWs)   bands (ev):

   -38.5633 -38.5621 -19.5539 -19.5385 -19.4762 -19.4706 -19.4591 -19.4541
   -15.8063 -15.6296 -14.6018 -14.5933 -14.5123 -14.5055  -6.3012  -6.1855
    -2.5400  -2.5368  -2.4897  -2.4132  -1.4868  -0.7953   0.2473   0.2523
     0.3248   0.3944   0.6421   0.7272   0.9566   1.2112   1.3536   1.4308

          k =-0.3333-0.1925 0.2722 (  7296 PWs)   bands (ev):

   -38.5631 -38.5624 -19.5505 -19.5417 -19.4743 -19.4665 -19.4641 -19.4571
   -15.7638 -15.6624 -14.5918 -14.5734 -14.5355 -14.5234  -6.2692  -6.2022
    -2.5537  -2.5274  -2.4787  -2.3943  -1.3433  -0.9435   0.1441   0.1485
     0.3667   0.3870   0.7052   0.8041   0.9994   1.0953   1.3423   1.4104

          k = 0.5556 0.3208-0.0907 (  7300 PWs)   bands (ev):

   -38.5628 -38.5627 -19.5466 -19.5454 -19.4717 -19.4687 -19.4625 -19.4604
   -15.7221 -15.6978 -14.5875 -14.5560 -14.5555 -14.5327  -6.2324  -6.2278
    -2.5925  -2.5048  -2.4434  -2.3991  -1.1818  -1.1018   0.0670   0.0926
     0.3673   0.4100   0.7207   0.8440   1.0322   1.0462   1.3520   1.3915

          k = 0.4444 0.2566-0.0454 (  7302 PWs)   bands (ev):

   -38.5630 -38.5625 -19.5490 -19.5427 -19.4739 -19.4668 -19.4651 -19.4573
   -15.7377 -15.6839 -14.5907 -14.5622 -14.5529 -14.5243  -6.2683  -6.1899
    -2.6199  -2.4808  -2.4205  -2.4199  -1.2709  -1.0186   0.0532   0.1133
     0.3325   0.4151   0.6869   0.8460   1.0187   1.1363   1.3692   1.3724

          k = 0.3333 0.1925 0.0000 (  7315 PWs)   bands (ev):

   -38.5633 -38.5622 -19.5524 -19.5391 -19.4768 -19.4689 -19.4624 -19.4537
   -15.7821 -15.6478 -14.6045 -14.5676 -14.5439 -14.5049  -6.2983  -6.1679
    -2.6215  -2.4877  -2.4294  -2.4217  -1.4327  -0.8627   0.1225   0.1932
     0.3072   0.3772   0.6279   0.8113   1.0059   1.2527   1.3681   1.3851

          k = 0.2222 0.1283 0.0454 (  7319 PWs)   bands (ev):

   -38.5635 -38.5620 -19.5552 -19.5363 -19.4782 -19.4723 -19.4578 -19.4515
   -15.8240 -15.6147 -14.6171 -14.5906 -14.5151 -14.4878  -6.3161  -6.1643
    -2.5996  -2.5134  -2.4428  -2.4351  -1.5607  -0.7204   0.2550   0.2790
     0.3219   0.3317   0.5716   0.7233   0.9524   1.3422   1.4071   1.4087

          k =-0.1111 0.0642 0.2268 (  7319 PWs)   bands (ev):

   -38.5635 -38.5620 -19.5558 -19.5369 -19.4777 -19.4719 -19.4570 -19.4514
   -15.8330 -15.6092 -14.6169 -14.5999 -14.5034 -14.4849  -6.3165  -6.1846
    -2.5682  -2.5141  -2.4753  -2.4418  -1.5656  -0.6994   0.2945   0.2963
     0.3910   0.4261   0.5653   0.6854   0.9010   1.3177   1.3426   1.4278

          k =-0.2222-0.0000 0.2722 (  7315 PWs)   bands (ev):

   -38.5633 -38.5621 -19.5543 -19.5390 -19.4781 -19.4683 -19.4610 -19.4517
   -15.8059 -15.6305 -14.6107 -14.5828 -14.5244 -14.4939  -6.3053  -6.1878
    -2.5775  -2.5037  -2.4811  -2.4144  -1.4870  -0.8046   0.2713   0.2890
     0.3375   0.4347   0.5779   0.7591   0.9595   1.2176   1.2993   1.4115

          k =-0.3333-0.0642 0.3175 (  7296 PWs)   bands (ev):

   -38.5631 -38.5623 -19.5517 -19.5419 -19.4772 -19.4658 -19.4640 -19.4536
   -15.7692 -15.6574 -14.6035 -14.5644 -14.5477 -14.5076  -6.2795  -6.1987
    -2.5688  -2.5303  -2.4638  -2.3895  -1.3708  -0.9307   0.1856   0.1951
     0.3722   0.4277   0.6382   0.8253   1.0025   1.1089   1.2815   1.3965

          k = 0.5556 0.4491-0.0454 (  7300 PWs)   bands (ev):

   -38.5629 -38.5626 -19.5484 -19.5450 -19.4750 -19.4704 -19.4600 -19.4565
   -15.7321 -15.6858 -14.6002 -14.5674 -14.5474 -14.5184  -6.2410  -6.2226
    -2.5894  -2.5239  -2.4384  -2.3841  -1.2337  -1.0609   0.0928   0.1146
     0.4049   0.4273   0.6820   0.8354   1.0425   1.0619   1.2858   1.3856

          k = 0.4444 0.3849 0.0000 (  7300 PWs)   bands (ev):

   -38.5629 -38.5626 -19.5481 -19.5448 -19.4750 -19.4711 -19.4605 -19.4560
   -15.7176 -15.6984 -14.5986 -14.5790 -14.5362 -14.5222  -6.2551  -6.2009
    -2.6255  -2.4879  -2.4197  -2.3982  -1.2028  -1.0903   0.0428   0.0983
     0.3656   0.4494   0.6721   0.8376   1.0277   1.1454   1.2947   1.3768

          k = 0.3333 0.3208 0.0454 (  7296 PWs)   bands (ev):

   -38.5631 -38.5623 -19.5511 -19.5413 -19.4776 -19.4668 -19.4645 -19.4532
   -15.7554 -15.6669 -14.6035 -14.5723 -14.5432 -14.5103  -6.2855  -6.1735
    -2.6369  -2.4742  -2.4237  -2.4072  -1.3498  -0.9501   0.0653   0.1492
     0.3301   0.4189   0.6301   0.8421   1.0244   1.2480   1.2923   1.3764

          k = 0.2222 0.2566 0.0907 (  7315 PWs)   bands (ev):

   -38.5633 -38.5621 -19.5536 -19.5384 -19.4786 -19.4686 -19.4619 -19.4516
   -15.7953 -15.6367 -14.6122 -14.5726 -14.5376 -14.4960  -6.3057  -6.1654
    -2.6193  -2.4936  -2.4432  -2.4110  -1.4776  -0.8197   0.1618   0.2326
     0.3144   0.3747   0.5906   0.7923   0.9963   1.2915   1.3419   1.3994

          k =-0.2222 0.1283 0.3175 (  7288 PWs)   bands (ev):

   -38.5633 -38.5622 -19.5538 -19.5407 -19.4797 -19.4646 -19.4642 -19.4503
   -15.7880 -15.6441 -14.6112 -14.5660 -14.5455 -14.4935  -6.3036  -6.1862
    -2.6095  -2.4814  -2.4740  -2.3942  -1.4439  -0.8741   0.2657   0.2995
     0.3873   0.4074   0.5583   0.8182   0.9906   1.1760   1.2220   1.3932

          k =-0.3333 0.0642 0.3629 (  7297 PWs)   bands (ev):

   -38.5631 -38.5623 -19.5523 -19.5430 -19.4800 -19.4678 -19.4608 -19.4507
   -15.7604 -15.6631 -14.6085 -14.5677 -14.5493 -14.5007  -6.2894  -6.1890
    -2.6166  -2.5079  -2.4451  -2.3691  -1.3666  -0.9653   0.2115   0.2374
     0.4009   0.4561   0.5793   0.8603   0.9896   1.1217   1.1972   1.3805

          k = 0.5556 0.5774 0.0000 (  7293 PWs)   bands (ev):

   -38.5629 -38.5625 -19.5500 -19.5454 -19.4787 -19.4715 -19.4574 -19.4526
   -15.7321 -15.6820 -14.6079 -14.5855 -14.5353 -14.5083  -6.2601  -6.2044
    -2.5946  -2.5539  -2.4179  -2.3595  -1.2665  -1.0516   0.1268   0.1350
     0.4536   0.4747   0.6311   0.7927   1.0507   1.0867   1.2111   1.3773

          k = 0.4444 0.5132 0.0454 (  7296 PWs)   bands (ev):

   -38.5627 -38.5627 -19.5475 -19.5472 -19.4762 -19.4746 -19.4559 -19.4548
   -15.7079 -15.7019 -14.6074 -14.5948 -14.5262 -14.5139  -6.2313  -6.2233
    -2.6045  -2.5461  -2.4007  -2.3713  -1.1555  -1.1408   0.0502   0.0766
     0.4318   0.5026   0.6555   0.7579   1.0592   1.1361   1.2389   1.3758

          k = 0.3333 0.4491 0.0907 (  7286 PWs)   bands (ev):

   -38.5629 -38.5625 -19.5494 -19.5441 -19.4771 -19.4717 -19.4598 -19.4534
   -15.7273 -15.6861 -14.6051 -14.5919 -14.5271 -14.5147  -6.2604  -6.1926
    -2.6269  -2.5087  -2.4027  -2.3902  -1.2454  -1.0436   0.0225   0.0865
     0.3836   0.4747   0.6436   0.7977   1.0479   1.1929   1.2760   1.3761

          k = 0.2222 0.3849 0.1361 (  7296 PWs)   bands (ev):

   -38.5631 -38.5623 -19.5511 -19.5413 -19.4777 -19.4669 -19.4642 -19.4533
   -15.7584 -15.6638 -14.6052 -14.5739 -14.5419 -14.5082  -6.2823  -6.1783
    -2.6186  -2.5002  -2.4340  -2.3918  -1.3534  -0.9383   0.0667   0.1415
     0.3482   0.4206   0.6399   0.8163   1.0274   1.1901   1.3344   1.3924

          k =-0.3333 0.1925 0.4082 (  7275 PWs)   bands (ev):

   -38.5631 -38.5624 -19.5521 -19.5446 -19.4815 -19.4699 -19.4578 -19.4494
   -15.7431 -15.6743 -14.6107 -14.5844 -14.5351 -14.5026  -6.2912  -6.1807
    -2.6493  -2.4821  -2.4463  -2.3439  -1.3362  -1.0223   0.2046   0.2552
     0.4142   0.4817   0.5723   0.8704   0.9381   1.1348   1.1695   1.3632

          k = 0.5556 0.7057 0.0454 (  7273 PWs)   bands (ev):

   -38.5630 -38.5625 -19.5511 -19.5459 -19.4814 -19.4720 -19.4557 -19.4499
   -15.7260 -15.6846 -14.6145 -14.5945 -14.5241 -14.5075  -6.2785  -6.1837
    -2.6480  -2.5102  -2.4207  -2.3335  -1.2846  -1.0682   0.1493   0.1863
     0.4518   0.5322   0.6027   0.7475   1.0028   1.1222   1.1924   1.3596

          k = 0.4444 0.6415 0.0907 (  7292 PWs)   bands (ev):

   -38.5629 -38.5626 -19.5493 -19.5468 -19.4795 -19.4739 -19.4547 -19.4521
   -15.7138 -15.6930 -14.6129 -14.6027 -14.5178 -14.5120  -6.2530  -6.2010
    -2.6147  -2.5557  -2.3989  -2.3449  -1.2174  -1.0998   0.0773   0.0943
     0.4755   0.5510   0.6407   0.6749   1.0650   1.1141   1.2296   1.3667

          k = 0.3333 0.5774 0.1361 (  7296 PWs)   bands (ev):

   -38.5627 -38.5627 -19.5474 -19.5470 -19.4761 -19.4751 -19.4556 -19.4549
   -15.7043 -15.7041 -14.6056 -14.6034 -14.5186 -14.5165  -6.2255  -6.2253
    -2.5872  -2.5702  -2.3918  -2.3731  -1.1427  -1.1419   0.0322   0.0420
     0.4451   0.4953   0.6796   0.7073   1.0851   1.1131   1.2989   1.3693

          k = 0.2222 0.5132 0.1814 (  7300 PWs)   bands (ev):

   -38.5629 -38.5626 -19.5481 -19.5447 -19.4752 -19.4714 -19.4600 -19.4562
   -15.7228 -15.6920 -14.5987 -14.5891 -14.5301 -14.5195  -6.2464  -6.2074
    -2.5907  -2.5436  -2.4084  -2.3905  -1.2089  -1.0668   0.0268   0.0588
     0.4010   0.4364   0.6989   0.7689   1.0596   1.1097   1.3554   1.3797

          k = 0.5556-0.3208-0.3175 (  7266 PWs)   bands (ev):

   -38.5630 -38.5624 -19.5513 -19.5461 -19.4824 -19.4722 -19.4551 -19.4490
   -15.7212 -15.6871 -14.6216 -14.5937 -14.5167 -14.5113  -6.2861  -6.1720
    -2.6735  -2.4729  -2.4356  -2.3228  -1.2889  -1.0810   0.1509   0.2084
     0.4335   0.5368   0.5819   0.7646   0.9700   1.1321   1.2235   1.3420

          k = 0.4444-0.3849-0.2722 (  7273 PWs)   bands (ev):

   -38.5630 -38.5625 -19.5508 -19.5457 -19.4816 -19.4723 -19.4558 -19.4499
   -15.7218 -15.6865 -14.6187 -14.5962 -14.5177 -14.5112  -6.2787  -6.1759
    -2.6615  -2.4977  -2.4167  -2.3335  -1.2770  -1.0705   0.1065   0.1589
     0.4517   0.5065   0.5717   0.7916   0.9950   1.1621   1.2293   1.3498

          k = 0.3333-0.4491-0.2268 (  7293 PWs)   bands (ev):

   -38.5629 -38.5625 -19.5496 -19.5450 -19.4791 -19.4722 -19.4576 -19.4524
   -15.7246 -15.6860 -14.6103 -14.5959 -14.5251 -14.5103  -6.2620  -6.1910
    -2.6247  -2.5302  -2.4067  -2.3605  -1.2496  -1.0540   0.0491   0.0940
     0.4431   0.4624   0.6282   0.7774   1.0503   1.1401   1.2891   1.3665

          k = 0.4444-0.2566-0.2268 (  7275 PWs)   bands (ev):

   -38.5631 -38.5624 -19.5516 -19.5442 -19.4819 -19.4704 -19.4580 -19.4494
   -15.7352 -15.6778 -14.6154 -14.5897 -14.5267 -14.5068  -6.2912  -6.1654
    -2.6726  -2.4565  -2.4435  -2.3426  -1.3253  -1.0289   0.1274   0.1943
     0.4207   0.4209   0.5652   0.9241   0.9286   1.1987   1.2409   1.3384

          k = 0.3333-0.3208-0.1814 (  7297 PWs)   bands (ev):

   -38.5631 -38.5623 -19.5517 -19.5425 -19.4805 -19.4686 -19.4611 -19.4506
   -15.7502 -15.6681 -14.6109 -14.5806 -14.5377 -14.5039  -6.2899  -6.1692
    -2.6511  -2.4807  -2.4320  -2.3670  -1.3526  -0.9733   0.1030   0.1742
     0.3756   0.4202   0.5871   0.8628   1.0111   1.2072   1.2759   1.3597

          k = 0.3333-0.1925-0.1361 (  7288 PWs)   bands (ev):

   -38.5633 -38.5622 -19.5530 -19.5400 -19.4802 -19.4650 -19.4649 -19.4504
   -15.7769 -15.6499 -14.6123 -14.5588 -14.5553 -14.4974  -6.3034  -6.1629
    -2.6449  -2.4721  -2.4435  -2.3886  -1.4333  -0.8885   0.1570   0.2246
     0.3348   0.3791   0.5681   0.8483   1.0099   1.2741   1.2943   1.3624

          k =-0.0000-0.0000 0.2722 (  7309 PWs)   bands (ev):

   -38.5634 -38.5620 -19.5557 -19.5373 -19.4744 -19.4744 -19.4545 -19.4545
   -15.8329 -15.6113 -14.6080 -14.6080 -14.4931 -14.4931  -6.3152  -6.1954
    -2.5334  -2.5334  -2.4672  -2.4672  -1.5514  -0.7003   0.2968   0.2968
     0.4147   0.4147   0.6574   0.6574   0.8756   1.3098   1.3666   1.3666

          k =-0.1111-0.0642 0.3175 (  7313 PWs)   bands (ev):

   -38.5633 -38.5621 -19.5545 -19.5390 -19.4758 -19.4703 -19.4590 -19.4534
   -15.8125 -15.6283 -14.6051 -14.5924 -14.5102 -14.4982  -6.3064  -6.2011
    -2.5444  -2.5117  -2.4901  -2.4388  -1.4880  -0.7845   0.2925   0.3092
     0.3471   0.4557   0.6141   0.7528   0.9239   1.2351   1.2972   1.3667

          k =-0.2222-0.1283 0.3629 (  7293 PWs)   bands (ev):

   -38.5631 -38.5623 -19.5523 -19.5416 -19.4759 -19.4656 -19.4643 -19.4538
   -15.7794 -15.6525 -14.6003 -14.5731 -14.5325 -14.5104  -6.2842  -6.2090
    -2.5500  -2.5096  -2.4935  -2.4078  -1.3889  -0.9078   0.2392   0.2532
     0.3531   0.4793   0.5966   0.8478   0.9831   1.1109   1.2709   1.3510

          k = 0.6667 0.3849 0.0000 (  7300 PWs)   bands (ev):

   -38.5629 -38.5625 -19.5495 -19.5446 -19.4749 -19.4698 -19.4608 -19.4554
   -15.7433 -15.6780 -14.6007 -14.5546 -14.5538 -14.5199  -6.2477  -6.2268
    -2.5901  -2.4882  -2.4708  -2.3905  -1.2696  -1.0359   0.1415   0.1797
     0.4084   0.4432   0.6360   0.8991   1.0214   1.0407   1.2685   1.3367

          k = 0.5556 0.3208 0.0454 (  7300 PWs)   bands (ev):

   -38.5628 -38.5626 -19.5477 -19.5463 -19.4754 -19.4720 -19.4582 -19.4561
   -15.7099 -15.7054 -14.6034 -14.5722 -14.5379 -14.5228  -6.2542  -6.2061
    -2.6337  -2.4557  -2.4485  -2.3893  -1.1684  -1.1423   0.0782   0.1351
     0.3919   0.4466   0.6477   0.8904   0.9909   1.1338   1.2843   1.3226

          k = 0.4444 0.2566 0.0907 (  7288 PWs)   bands (ev):

   -38.5630 -38.5624 -19.5505 -19.5430 -19.4787 -19.4690 -19.4613 -19.4526
   -15.7386 -15.6793 -14.6049 -14.5777 -14.5381 -14.5131  -6.2828  -6.1743
    -2.6547  -2.4498  -2.4381  -2.3868  -1.3067  -1.0139   0.0795   0.1550
     0.3490   0.4279   0.6175   0.8857   1.0020   1.2287   1.2955   1.3131

          k =-0.1111 0.0642 0.3629 (  7315 PWs)   bands (ev):

   -38.5633 -38.5622 -19.5538 -19.5403 -19.4759 -19.4681 -19.4609 -19.4535
   -15.7999 -15.6401 -14.6027 -14.5821 -14.5225 -14.4992  -6.3030  -6.2075
    -2.5588  -2.4918  -2.4876  -2.4377  -1.4457  -0.8358   0.2961   0.3138
     0.3885   0.4021   0.6580   0.7880   0.9471   1.2057   1.2334   1.3380

          k =-0.2222-0.0000 0.4082 (  7296 PWs)   bands (ev):

   -38.5631 -38.5623 -19.5524 -19.5425 -19.4766 -19.4653 -19.4639 -19.4531
   -15.7737 -15.6592 -14.5998 -14.5651 -14.5435 -14.5062  -6.2886  -6.2118
    -2.5674  -2.5148  -2.4635  -2.4109  -1.3716  -0.9334   0.2701   0.2857
     0.3618   0.4641   0.6284   0.8686   0.9940   1.0962   1.2044   1.3230

          k = 0.6667 0.5132 0.0454 (  7286 PWs)   bands (ev):

   -38.5629 -38.5625 -19.5503 -19.5450 -19.4763 -19.4703 -19.4595 -19.4537
   -15.7433 -15.6787 -14.6014 -14.5654 -14.5467 -14.5138  -6.2593  -6.2228
    -2.5733  -2.5409  -2.4341  -2.3888  -1.2792  -1.0379   0.1862   0.2076
     0.4146   0.5084   0.6009   0.8840   1.0347   1.0472   1.2010   1.3139

          k = 0.5556 0.4491 0.0907 (  7296 PWs)   bands (ev):

   -38.5627 -38.5627 -19.5479 -19.5475 -19.4757 -19.4742 -19.4557 -19.4550
   -15.7156 -15.6976 -14.6077 -14.5805 -14.5328 -14.5169  -6.2439  -6.2204
    -2.6191  -2.5135  -2.4109  -2.3799  -1.1788  -1.1395   0.1033   0.1459
     0.4653   0.4686   0.6188   0.8422   1.0079   1.1374   1.2231   1.3120

          k = 0.4444 0.3849 0.1361 (  7293 PWs)   bands (ev):

   -38.5629 -38.5625 -19.5497 -19.5451 -19.4788 -19.4720 -19.4578 -19.4524
   -15.7205 -15.6914 -14.6104 -14.5885 -14.5263 -14.5148  -6.2694  -6.1859
    -2.6504  -2.4862  -2.4127  -2.3704  -1.2461  -1.0757   0.0685   0.1328
     0.4116   0.4630   0.6138   0.8472   1.0026   1.2132   1.2455   1.3182

          k =-0.2222 0.1283 0.4536 (  7288 PWs)   bands (ev):

   -38.5630 -38.5624 -19.5517 -19.5441 -19.4778 -19.4678 -19.4606 -19.4524
   -15.7555 -15.6730 -14.5980 -14.5630 -14.5510 -14.5074  -6.2867  -6.2094
    -2.5988  -2.4983  -2.4545  -2.3912  -1.3278  -0.9977   0.2547   0.3072
     0.4052   0.4164   0.6677   0.9155   0.9524   1.0910   1.1486   1.3056

          k = 0.6667 0.6415 0.0907 (  7293 PWs)   bands (ev):

   -38.5629 -38.5625 -19.5506 -19.5459 -19.4781 -19.4711 -19.4573 -19.4523
   -15.7333 -15.6867 -14.5996 -14.5812 -14.5366 -14.5120  -6.2712  -6.2110
    -2.6050  -2.5260  -2.4252  -2.3721  -1.2684  -1.0680   0.2054   0.2307
     0.4470   0.4814   0.6599   0.8188   1.0034   1.1022   1.1537   1.2962

          k = 0.5556 0.5774 0.1361 (  7287 PWs)   bands (ev):

   -38.5628 -38.5626 -19.5490 -19.5474 -19.4773 -19.4746 -19.4547 -19.4531
   -15.7144 -15.6970 -14.6042 -14.5963 -14.5245 -14.5147  -6.2426  -6.2232
    -2.5855  -2.5728  -2.3920  -2.3688  -1.2002  -1.1262   0.1329   0.1354
     0.5040   0.5276   0.6370   0.7195   1.0743   1.0774   1.2165   1.3010

          k = 0.4444 0.5132 0.1814 (  7287 PWs)   bands (ev):

   -38.5628 -38.5626 -19.5486 -19.5471 -19.4776 -19.4751 -19.4549 -19.4530
   -15.7077 -15.6998 -14.6105 -14.6009 -14.5186 -14.5146  -6.2431  -6.2113
    -2.6133  -2.5511  -2.3838  -2.3683  -1.1825  -1.1274   0.0630   0.0889
     0.4931   0.5128   0.6237   0.7235   1.0553   1.1288   1.2830   1.3126

          k = 0.6667-0.3849-0.2722 (  7278 PWs)   bands (ev):

   -38.5629 -38.5625 -19.5503 -19.5468 -19.4792 -19.4722 -19.4556 -19.4517
   -15.7203 -15.6951 -14.6071 -14.5847 -14.5289 -14.5138  -6.2743  -6.2005
    -2.6375  -2.4915  -2.4348  -2.3546  -1.2467  -1.1043   0.1821   0.2383
     0.4379   0.5145   0.6475   0.7968   0.9659   1.1405   1.1759   1.2759

          k = 0.5556-0.4491-0.2268 (  7292 PWs)   bands (ev):

   -38.5629 -38.5626 -19.5496 -19.5471 -19.4791 -19.4736 -19.4548 -19.4520
   -15.7114 -15.6990 -14.6124 -14.5910 -14.5213 -14.5160  -6.2634  -6.2004
    -2.6375  -2.5143  -2.4088  -2.3535  -1.2180  -1.1231   0.1272   0.1705
     0.4766   0.5575   0.5775   0.7704   0.9932   1.1579   1.2168   1.2826

          k = 0.5556-0.3208-0.1814 (  7278 PWs)   bands (ev):

   -38.5629 -38.5625 -19.5498 -19.5463 -19.4796 -19.4726 -19.4559 -19.4518
   -15.7132 -15.6975 -14.6154 -14.5855 -14.5231 -14.5169  -6.2728  -6.1866
    -2.6598  -2.4671  -2.4318  -2.3545  -1.2352  -1.1095   0.1117   0.1765
     0.4535   0.4685   0.5877   0.8933   0.9263   1.2155   1.2376   1.2590

          k = 0.0000 0.0000 0.4082 (  7297 PWs)   bands (ev):

   -38.5632 -38.5623 -19.5531 -19.5411 -19.4711 -19.4711 -19.4581 -19.4581
   -15.7937 -15.6491 -14.5881 -14.5881 -14.5132 -14.5132  -6.2997  -6.2214
    -2.5163  -2.5163  -2.4719  -2.4719  -1.4079  -0.8605   0.3111   0.3111
     0.3875   0.3875   0.7756   0.7756   0.9362   1.2163   1.2358   1.2358

          k =-0.1111-0.0642 0.4536 (  7296 PWs)   bands (ev):

   -38.5631 -38.5624 -19.5518 -19.5430 -19.4732 -19.4658 -19.4637 -19.4560
   -15.7726 -15.6662 -14.5890 -14.5695 -14.5331 -14.5156  -6.2879  -6.2283
    -2.5338  -2.5052  -2.4840  -2.4402  -1.3428  -0.9429   0.3068   0.3178
     0.3381   0.4280   0.7276   0.8891   0.9816   1.1048   1.1910   1.2392

          k = 0.7778 0.4491 0.0907 (  7300 PWs)   bands (ev):

   -38.5629 -38.5625 -19.5502 -19.5453 -19.4742 -19.4696 -19.4605 -19.4549
   -15.7451 -15.6834 -14.5937 -14.5546 -14.5506 -14.5205  -6.2619  -6.2364
    -2.5644  -2.5164  -2.4555  -2.4077  -1.2661  -1.0451   0.2367   0.2675
     0.3788   0.4973   0.6477   0.9685   0.9861   1.0446   1.1839   1.2316

          k = 0.6667 0.3849 0.1361 (  7290 PWs)   bands (ev):

   -38.5627 -38.5627 -19.5484 -19.5477 -19.4755 -19.4736 -19.4558 -19.4547
   -15.7192 -15.6978 -14.6055 -14.5725 -14.5353 -14.5198  -6.2519  -6.2239
    -2.6181  -2.4930  -2.4348  -2.3796  -1.1879  -1.1422   0.1560   0.2090
     0.4354   0.5427   0.5720   0.9122   0.9472   1.1509   1.2062   1.2320

          k =-0.1111 0.0642 0.4990 (  7302 PWs)   bands (ev):

   -38.5630 -38.5625 -19.5508 -19.5443 -19.4727 -19.4652 -19.4638 -19.4569
   -15.7574 -15.6808 -14.5823 -14.5604 -14.5450 -14.5198  -6.2828  -6.2354
    -2.5434  -2.5014  -2.4704  -2.4422  -1.2904  -1.0002   0.3013   0.3405
     0.3718   0.3726   0.7918   0.9260   1.0050   1.0521   1.1414   1.2062

          k = 0.7778 0.5774 0.1361 (  7300 PWs)   bands (ev):

   -38.5629 -38.5626 -19.5496 -19.5462 -19.4737 -19.4697 -19.4595 -19.4558
   -15.7352 -15.6954 -14.5841 -14.5651 -14.5437 -14.5236  -6.2660  -6.2393
    -2.5526  -2.5343  -2.4378  -2.4189  -1.2311  -1.0804   0.2729   0.2792
     0.3951   0.4346   0.7583   0.9044   1.0260   1.0599   1.1287   1.1964

          k = 0.6667 0.5132 0.1814 (  7296 PWs)   bands (ev):

   -38.5627 -38.5627 -19.5484 -19.5481 -19.4749 -19.4740 -19.4554 -19.4549
   -15.7145 -15.7049 -14.5962 -14.5814 -14.5296 -14.5226  -6.2482  -6.2356
    -2.5895  -2.5379  -2.4118  -2.3885  -1.1753  -1.1549   0.1932   0.2194
     0.4501   0.5061   0.6734   0.8081   1.0253   1.1123   1.1865   1.2099

          k = 0.7778-0.4491-0.2268 (  7300 PWs)   bands (ev):

   -38.5628 -38.5626 -19.5488 -19.5474 -19.4743 -19.4713 -19.4573 -19.4559
   -15.7191 -15.7080 -14.5854 -14.5727 -14.5370 -14.5254  -6.2635  -6.2359
    -2.5824  -2.5109  -2.4425  -2.4011  -1.1900  -1.1319   0.2431   0.2902
     0.3987   0.4501   0.7674   0.8583   1.0059   1.1199   1.1248   1.1758

          k =-0.0000-0.0000 0.5443 (  7294 PWs)   bands (ev):

   -38.5629 -38.5626 -19.5496 -19.5454 -19.4669 -19.4669 -19.4624 -19.4624
   -15.7461 -15.6959 -14.5637 -14.5637 -14.5377 -14.5377  -6.2775  -6.2503
    -2.4979  -2.4979  -2.4822  -2.4822  -1.2327  -1.0443   0.3323   0.3323
     0.3588   0.3588   0.9214   0.9214   1.0177   1.0808   1.0808   1.1143

          k = 0.8889 0.5132 0.1814 (  7300 PWs)   bands (ev):

   -38.5628 -38.5627 -19.5483 -19.5471 -19.4695 -19.4684 -19.4612 -19.4596
   -15.7268 -15.7109 -14.5684 -14.5579 -14.5446 -14.5369  -6.2634  -6.2570
    -2.5276  -2.5144  -2.4625  -2.4478  -1.1745  -1.1172   0.3109   0.3307
     0.3509   0.3888   0.8751   0.9507   1.0313   1.0618   1.0942   1.0959

     highest occupied level (ev):     1.4853

!    total energy              =    -366.40794004 Ry
     Harris-Foulkes estimate   =    -366.40794005 Ry
     estimated scf accuracy    <          9.6E-09 Ry

     The total energy is the sum of the following terms:

     one-electron contribution =    -166.42441489 Ry
     hartree contribution      =     105.51368048 Ry
     xc contribution           =     -72.64377031 Ry
     ewald contribution        =    -232.85343533 Ry

     convergence has been achieved in  10 iterations

     Forces acting on atoms (cartesian axes, Ry/au):

     atom    1 type  1   force =    -0.00000000   -0.00000000   -0.00000000
     atom    2 type  1   force =     0.00000000    0.00000000    0.00000000
     atom    3 type  2   force =    -0.00000000    0.00000000   -0.00000000
     atom    4 type  2   force =     0.00000000   -0.00000000   -0.00000000
     atom    5 type  3   force =    -0.12156665    0.21055961    0.00000000
     atom    6 type  3   force =     0.24313329   -0.00000000   -0.00000000
     atom    7 type  3   force =    -0.12156665   -0.21055961   -0.00000000
     atom    8 type  3   force =    -0.24313329    0.00000000   -0.00000000
     atom    9 type  3   force =     0.12156665    0.21055961    0.00000000
     atom   10 type  3   force =     0.12156665   -0.21055961   -0.00000000

     Total force =     0.595553     Total SCF correction =     0.000006


     Computing stress (Cartesian axis) and pressure

          total   stress  (Ry/bohr**3)                   (kbar)     P= -287.55
  -0.00283244   0.00000000  -0.00000000       -416.67      0.00     -0.00
  -0.00000000  -0.00283244  -0.00000000         -0.00   -416.67     -0.00
  -0.00000000  -0.00000000  -0.00019938         -0.00     -0.00    -29.33


     BFGS Geometry Optimization

     number of scf cycles    =   1
     number of bfgs steps    =   0

     enthalpy new            =    -366.4079400433 Ry

     new trust radius        =       0.4950461072 bohr
     new conv_thr            =       0.0000000100 Ry

     new unit-cell volume =   1049.70355 a.u.^3 (   155.55002 Ang^3 )
     density =      2.13695 g/cm^3

CELL_PARAMETERS (alat= 12.00000000)
   0.464594454  -0.268233733   0.812426840
   0.000000000   0.536467466   0.812426840
  -0.464594454  -0.268233733   0.812426840

ATOMIC_POSITIONS (crystal)
Ca       0.500000000   0.500000000   0.500000000
Ca       0.000000000   0.000000000   0.000000000
C        0.250000000   0.250000000   0.250000000
C        0.750000000   0.750000000   0.750000000
O        0.488349961   1.011650039   0.250000000
O        1.011650039   0.250000000   0.488349961
O        0.250000000   0.488349961   1.011650039
O       -0.011650039   0.750000000   0.511650039
O        0.750000000   0.511650039  -0.011650039
O        0.511650039  -0.011650039   0.750000000



     Writing output data file CCO.save/
     NEW-OLD atomic charge density approx. for the potential

     Check: negative core charge=   -0.000002
     extrapolated charge   53.50425, renormalised to   64.00000

     total cpu time spent up to now is      326.5 secs

     Self-consistent Calculation

     iteration #  1     ecut=    50.00 Ry     beta= 0.70
     CG style diagonalization
     c_bands:  2 eigenvalues not converged
     c_bands:  3 eigenvalues not converged
     c_bands:  5 eigenvalues not converged
     c_bands:  4 eigenvalues not converged
     c_bands:  5 eigenvalues not converged
     c_bands:  3 eigenvalues not converged
     c_bands:  5 eigenvalues not converged
     c_bands:  5 eigenvalues not converged
     c_bands:  5 eigenvalues not converged
     c_bands:  3 eigenvalues not converged
     c_bands:  5 eigenvalues not converged
     c_bands:  4 eigenvalues not converged
     c_bands:  5 eigenvalues not converged
     c_bands:  3 eigenvalues not converged
     c_bands:  4 eigenvalues not converged
     c_bands:  5 eigenvalues not converged
     c_bands:  3 eigenvalues not converged
     c_bands:  1 eigenvalues not converged
     c_bands:  2 eigenvalues not converged
     c_bands:  3 eigenvalues not converged
     c_bands:  3 eigenvalues not converged
     c_bands:  4 eigenvalues not converged
     c_bands:  4 eigenvalues not converged
     c_bands:  2 eigenvalues not converged
     c_bands:  5 eigenvalues not converged
     c_bands:  3 eigenvalues not converged
     c_bands:  5 eigenvalues not converged
     c_bands:  4 eigenvalues not converged
     c_bands:  4 eigenvalues not converged
     c_bands:  3 eigenvalues not converged
     c_bands:  5 eigenvalues not converged
     c_bands:  3 eigenvalues not converged
     c_bands:  4 eigenvalues not converged
     c_bands:  5 eigenvalues not converged
     c_bands:  5 eigenvalues not converged
     c_bands:  2 eigenvalues not converged
     c_bands:  2 eigenvalues not converged
     c_bands:  3 eigenvalues not converged
     c_bands:  3 eigenvalues not converged
     c_bands:  4 eigenvalues not converged
     c_bands:  5 eigenvalues not converged
     c_bands:  5 eigenvalues not converged
     c_bands:  3 eigenvalues not converged
     c_bands:  4 eigenvalues not converged
     c_bands:  4 eigenvalues not converged
     c_bands:  2 eigenvalues not converged
     c_bands:  5 eigenvalues not converged
     c_bands:  4 eigenvalues not converged
     c_bands:  3 eigenvalues not converged
     c_bands:  5 eigenvalues not converged
     c_bands:  3 eigenvalues not converged
     c_bands:  4 eigenvalues not converged
     c_bands:  5 eigenvalues not converged
     c_bands:  4 eigenvalues not converged
     c_bands:  5 eigenvalues not converged
     c_bands:  2 eigenvalues not converged
     c_bands:  4 eigenvalues not converged
     c_bands:  4 eigenvalues not converged
     c_bands:  2 eigenvalues not converged
     c_bands:  2 eigenvalues not converged
     c_bands:  4 eigenvalues not converged
     c_bands:  3 eigenvalues not converged
     c_bands:  2 eigenvalues not converged
     c_bands:  2 eigenvalues not converged
     c_bands:  2 eigenvalues not converged
     c_bands:  4 eigenvalues not converged
     c_bands:  4 eigenvalues not converged
     c_bands:  1 eigenvalues not converged
     c_bands:  2 eigenvalues not converged
     c_bands:  1 eigenvalues not converged
     c_bands:  2 eigenvalues not converged
     ethr =  1.00E-06,  avg # of iterations = 13.3

     total cpu time spent up to now is      428.0 secs

     total energy              =    -360.67175338 Ry
     Harris-Foulkes estimate   =    -388.11970135 Ry
     estimated scf accuracy    <       5.77920069 Ry

     iteration #  2     ecut=    50.00 Ry     beta= 0.70
     CG style diagonalization
     ethr =  9.03E-03,  avg # of iterations =  5.4

     total cpu time spent up to now is      469.0 secs

     total energy              =    -364.90149307 Ry
     Harris-Foulkes estimate   =    -373.54788713 Ry
     estimated scf accuracy    <      26.43832014 Ry

     iteration #  3     ecut=    50.00 Ry     beta= 0.70
     CG style diagonalization
     ethr =  9.03E-03,  avg # of iterations =  4.2

     total cpu time spent up to now is      500.8 secs

     total energy              =    -367.21172173 Ry
     Harris-Foulkes estimate   =    -367.66749048 Ry
     estimated scf accuracy    <       1.79309750 Ry

     iteration #  4     ecut=    50.00 Ry     beta= 0.70
     CG style diagonalization
     ethr =  2.80E-03,  avg # of iterations =  3.1

     total cpu time spent up to now is      524.4 secs

     total energy              =    -367.16283606 Ry
     Harris-Foulkes estimate   =    -367.33036798 Ry
     estimated scf accuracy    <       0.79432267 Ry

     iteration #  5     ecut=    50.00 Ry     beta= 0.70
     CG style diagonalization
     ethr =  1.24E-03,  avg # of iterations =  3.1

     total cpu time spent up to now is      548.1 secs

     total energy              =    -367.09654168 Ry
     Harris-Foulkes estimate   =    -367.20906251 Ry
     estimated scf accuracy    <       0.29624528 Ry

     iteration #  6     ecut=    50.00 Ry     beta= 0.70
     CG style diagonalization
     ethr =  4.63E-04,  avg # of iterations =  3.7

     total cpu time spent up to now is      576.4 secs

     total energy              =    -367.15277648 Ry
     Harris-Foulkes estimate   =    -367.15493173 Ry
     estimated scf accuracy    <       0.00452989 Ry

     iteration #  7     ecut=    50.00 Ry     beta= 0.70
     CG style diagonalization
     ethr =  7.08E-06,  avg # of iterations =  4.7

     total cpu time spent up to now is      612.9 secs

     total energy              =    -367.15885643 Ry
     Harris-Foulkes estimate   =    -367.15933142 Ry
     estimated scf accuracy    <       0.00115251 Ry

     iteration #  8     ecut=    50.00 Ry     beta= 0.70
     CG style diagonalization
     ethr =  1.80E-06,  avg # of iterations =  3.7

     total cpu time spent up to now is      641.4 secs

     total energy              =    -367.15893948 Ry
     Harris-Foulkes estimate   =    -367.15924575 Ry
     estimated scf accuracy    <       0.00050464 Ry

     iteration #  9     ecut=    50.00 Ry     beta= 0.70
     CG style diagonalization
     ethr =  7.88E-07,  avg # of iterations =  4.1

     total cpu time spent up to now is      672.6 secs

     total energy              =    -367.15910341 Ry
     Harris-Foulkes estimate   =    -367.15913756 Ry
     estimated scf accuracy    <       0.00014789 Ry

     iteration # 10     ecut=    50.00 Ry     beta= 0.70
     CG style diagonalization
     ethr =  2.31E-07,  avg # of iterations =  3.3

     total cpu time spent up to now is      698.0 secs

     total energy              =    -367.15909908 Ry
     Harris-Foulkes estimate   =    -367.15911557 Ry
     estimated scf accuracy    <       0.00004416 Ry

     iteration # 11     ecut=    50.00 Ry     beta= 0.70
     CG style diagonalization
     ethr =  6.90E-08,  avg # of iterations =  3.6

     total cpu time spent up to now is      725.5 secs

     total energy              =    -367.15910698 Ry
     Harris-Foulkes estimate   =    -367.15910737 Ry
     estimated scf accuracy    <       0.00000122 Ry

     iteration # 12     ecut=    50.00 Ry     beta= 0.70
     CG style diagonalization
     ethr =  1.90E-09,  avg # of iterations =  4.0

     total cpu time spent up to now is      756.1 secs

     total energy              =    -367.15910737 Ry
     Harris-Foulkes estimate   =    -367.15910746 Ry
     estimated scf accuracy    <       0.00000029 Ry

     iteration # 13     ecut=    50.00 Ry     beta= 0.70
     CG style diagonalization
     ethr =  4.57E-10,  avg # of iterations =  3.4

     total cpu time spent up to now is      782.0 secs

     total energy              =    -367.15910739 Ry
     Harris-Foulkes estimate   =    -367.15910741 Ry
     estimated scf accuracy    <       0.00000007 Ry

     iteration # 14     ecut=    50.00 Ry     beta= 0.70
     CG style diagonalization
     ethr =  1.04E-10,  avg # of iterations =  3.6

     total cpu time spent up to now is      809.7 secs

     End of self-consistent calculation

          k = 0.0000 0.0000 0.0000 (  7391 PWs)   bands (ev):

   -36.9405 -36.9364 -17.9922 -17.9190 -17.8954 -17.8954 -17.8485 -17.8485
   -16.8896 -16.6199 -14.4598 -14.4598 -14.2725 -14.2725  -4.7099  -4.6300
    -2.2772  -2.2772  -2.2471  -2.2471  -1.8903  -0.7730   1.1852   1.1852
     1.4630   1.4630   1.4745   1.4745   2.3521   2.4975   2.4975   2.8178

          k =-0.1196-0.0690 0.0456 (  7315 PWs)   bands (ev):

   -36.9404 -36.9365 -17.9883 -17.9208 -17.8980 -17.8947 -17.8543 -17.8503
   -16.8685 -16.6320 -14.4542 -14.4490 -14.2858 -14.2788  -4.6917  -4.6337
    -2.2991  -2.2814  -2.2391  -2.2295  -1.8478  -0.8132   1.1849   1.1939
     1.3830   1.3933   1.5237   1.5352   2.3590   2.4559   2.5080   2.7968

          k =-0.2392-0.1381 0.0912 (  7309 PWs)   bands (ev):

   -36.9400 -36.9369 -17.9781 -17.9256 -17.9052 -17.8935 -17.8647 -17.8564
   -16.8181 -16.6599 -14.4387 -14.4246 -14.3176 -14.2965  -4.6496  -4.6377
    -2.3372  -2.2764  -2.2386  -2.1982  -1.7324  -0.9151   1.1850   1.2079
     1.2448   1.2673   1.6090   1.6281   2.3150   2.3561   2.5790   2.7506

          k =-0.3587-0.2071 0.1368 (  7297 PWs)   bands (ev):

   -36.9395 -36.9374 -17.9650 -17.9321 -17.9125 -17.8946 -17.8714 -17.8659
   -16.7652 -16.6870 -14.4171 -14.4026 -14.3489 -14.3217  -4.6301  -4.6114
    -2.3626  -2.2787  -2.2384  -2.1759  -1.5681  -1.0489   1.0775   1.1334
     1.2017   1.2414   1.6929   1.7307   2.2313   2.2443   2.6616   2.7140

          k =-0.4783-0.2762 0.1824 (  7294 PWs)   bands (ev):

   -36.9388 -36.9381 -17.9517 -17.9402 -17.9116 -17.9020 -17.8740 -17.8729
   -16.7283 -16.7068 -14.3975 -14.3928 -14.3617 -14.3476  -4.6115  -4.5989
    -2.3576  -2.3219  -2.2050  -2.1781  -1.3832  -1.2051   1.0039   1.0330
     1.2240   1.2441   1.7626   1.7814   2.1664   2.1681   2.7005   2.7045

          k =-0.1196 0.0690 0.0912 (  7327 PWs)   bands (ev):

   -36.9404 -36.9366 -17.9880 -17.9227 -17.9005 -17.8910 -17.8575 -17.8476
   -16.8650 -16.6345 -14.4548 -14.4447 -14.2906 -14.2777  -4.6917  -4.6364
    -2.3075  -2.2736  -2.2399  -2.2251  -1.8371  -0.8233   1.1866   1.1945
     1.3668   1.4308   1.4762   1.5757   2.3522   2.4750   2.4778   2.7896

          k =-0.2392 0.0000 0.1368 (  7319 PWs)   bands (ev):

   -36.9401 -36.9368 -17.9811 -17.9293 -17.9056 -17.8875 -17.8667 -17.8499
   -16.8272 -16.6560 -14.4445 -14.4246 -14.3156 -14.2898  -4.6614  -4.6416
    -2.3347  -2.2716  -2.2405  -2.1974  -1.7519  -0.9013   1.1866   1.1985
     1.2753   1.3525   1.5262   1.6557   2.2953   2.4023   2.5435   2.7514

          k =-0.3587-0.0690 0.1824 (  7315 PWs)   bands (ev):

   -36.9396 -36.9373 -17.9704 -17.9371 -17.9108 -17.8883 -17.8741 -17.8562
   -16.7782 -16.6807 -14.4285 -14.4024 -14.3453 -14.3105  -4.6361  -4.6239
    -2.3525  -2.2823  -2.2409  -2.1724  -1.6110  -1.0174   1.1062   1.1676
     1.2155   1.2832   1.6171   1.7409   2.1987   2.3100   2.6325   2.7149

          k =-0.4783-0.1381 0.2279 (  7302 PWs)   bands (ev):

   -36.9390 -36.9379 -17.9585 -17.9420 -17.9139 -17.9001 -17.8728 -17.8632
   -16.7402 -16.6975 -14.4154 -14.3913 -14.3601 -14.3315  -4.6146  -4.6046
    -2.3473  -2.3279  -2.2158  -2.1658  -1.4411  -1.1541   1.0143   1.0482
     1.2429   1.2709   1.7001   1.7843   2.1392   2.2231   2.6860   2.7059

          k = 0.4783 0.4142-0.1368 (  7300 PWs)   bands (ev):

   -36.9385 -36.9383 -17.9486 -17.9462 -17.9173 -17.9060 -17.8718 -17.8652
   -16.7189 -16.7112 -14.4096 -14.3969 -14.3531 -14.3434  -4.6109  -4.5905
    -2.3766  -2.3128  -2.1933  -2.1778  -1.3136  -1.2696   0.9711   1.0074
     1.2419   1.2748   1.7246   1.7935   2.1471   2.1836   2.6949   2.7147

          k = 0.3587 0.3452-0.0912 (  7296 PWs)   bands (ev):

   -36.9392 -36.9377 -17.9579 -17.9363 -17.9243 -17.8947 -17.8764 -17.8594
   -16.7368 -16.7031 -14.4167 -14.3974 -14.3570 -14.3265  -4.6287  -4.5868
    -2.3960  -2.2695  -2.2149  -2.1750  -1.4890  -1.1157   0.9842   1.0829
     1.2136   1.2762   1.6674   1.7971   2.1718   2.2439   2.6917   2.7029

          k = 0.2392 0.2762-0.0456 (  7313 PWs)   bands (ev):

   -36.9398 -36.9371 -17.9700 -17.9284 -17.9195 -17.8867 -17.8770 -17.8531
   -16.7818 -16.6802 -14.4337 -14.4046 -14.3435 -14.3039  -4.6393  -4.6143
    -2.3798  -2.2608  -2.2207  -2.1887  -1.6550  -0.9833   1.0913   1.1864
     1.2035   1.2687   1.5921   1.7318   2.2438   2.3383   2.6356   2.7191

          k = 0.1196 0.2071 0.0000 (  7325 PWs)   bands (ev):

   -36.9402 -36.9367 -17.9814 -17.9230 -17.9075 -17.8904 -17.8656 -17.8499
   -16.8341 -16.6516 -14.4480 -14.4294 -14.3105 -14.2863  -4.6590  -4.6378
    -2.3394  -2.2740  -2.2246  -2.2117  -1.7823  -0.8752   1.1781   1.2070
     1.2654   1.3427   1.5329   1.6237   2.3244   2.4214   2.5473   2.7646

          k =-0.2392 0.1381 0.1824 (  7323 PWs)   bands (ev):

   -36.9399 -36.9370 -17.9782 -17.9405 -17.9100 -17.8790 -17.8729 -17.8454
   -16.8040 -16.6711 -14.4428 -14.4071 -14.3367 -14.2913  -4.6505  -4.6427
    -2.3656  -2.2625  -2.2333  -2.1727  -1.7094  -0.9492   1.1693   1.1995
     1.2853   1.3586   1.4825   1.7244   2.2110   2.4249   2.5488   2.7179

          k =-0.3587 0.0690 0.2279 (  7288 PWs)   bands (ev):

   -36.9396 -36.9373 -17.9712 -17.9529 -17.9141 -17.8816 -17.8713 -17.8468
   -16.7651 -16.6921 -14.4349 -14.3868 -14.3625 -14.3031  -4.6510  -4.6106
    -2.3858  -2.2698  -2.2309  -2.1453  -1.6117  -1.0358   1.0924   1.1969
     1.2553   1.3299   1.5276   1.7982   2.1059   2.3658   2.6256   2.6815

          k =-0.4783 0.0000 0.2735 (  7288 PWs)   bands (ev):

   -36.9391 -36.9377 -17.9627 -17.9576 -17.9190 -17.8944 -17.8646 -17.8518
   -16.7332 -16.7041 -14.4292 -14.3933 -14.3598 -14.3166  -4.6318  -4.5908
    -2.3769  -2.3146  -2.2170  -2.1329  -1.4774  -1.1366   1.0014   1.0848
     1.2841   1.3300   1.6040   1.7931   2.0775   2.2843   2.6731   2.6895

          k = 0.4783 0.5523-0.0912 (  7300 PWs)   bands (ev):

   -36.9386 -36.9383 -17.9570 -17.9518 -17.9233 -17.9077 -17.8606 -17.8569
   -16.7184 -16.7066 -14.4259 -14.4079 -14.3457 -14.3268  -4.5992  -4.5965
    -2.3753  -2.3332  -2.2021  -2.1416  -1.3322  -1.2526   0.9665   0.9719
     1.2977   1.3336   1.6688   1.7358   2.1332   2.2156   2.6926   2.7097

          k = 0.3587 0.4833-0.0456 (  7300 PWs)   bands (ev):

   -36.9388 -36.9380 -17.9566 -17.9429 -17.9283 -17.9072 -17.8674 -17.8537
   -16.7142 -16.7128 -14.4207 -14.4151 -14.3393 -14.3303  -4.6178  -4.5757
    -2.4115  -2.2794  -2.1981  -2.1646  -1.3897  -1.1976   0.9226   1.0108
     1.2554   1.3362   1.6468   1.7745   2.1687   2.2136   2.6844   2.7253

          k = 0.2392 0.4142 0.0000 (  7293 PWs)   bands (ev):

   -36.9394 -36.9375 -17.9613 -17.9347 -17.9301 -17.8935 -17.8761 -17.8517
   -16.7403 -16.7016 -14.4253 -14.4038 -14.3506 -14.3172  -4.6351  -4.5815
    -2.4120  -2.2496  -2.2021  -2.1862  -1.5330  -1.0815   0.9685   1.1047
     1.2174   1.3046   1.6094   1.7971   2.1787   2.2845   2.6823   2.7049

          k =-0.3587 0.2071 0.2735 (  7275 PWs)   bands (ev):

   -36.9395 -36.9374 -17.9700 -17.9683 -17.9165 -17.8823 -17.8635 -17.8428
   -16.7358 -16.7121 -14.4348 -14.3856 -14.3653 -14.3070  -4.6633  -4.5813
    -2.4204  -2.2535  -2.2317  -2.1122  -1.5700  -1.0912   1.0572   1.2223
     1.3026   1.3171   1.4947   1.8828   1.9688   2.3707   2.6349   2.6593

          k =-0.4783 0.1381 0.3191 (  7275 PWs)   bands (ev):

   -36.9392 -36.9377 -17.9782 -17.9632 -17.9200 -17.8885 -17.8570 -17.8440
   -16.7234 -16.7110 -14.4375 -14.4006 -14.3482 -14.3147  -4.6566  -4.5611
    -2.4249  -2.2832  -2.2178  -2.0943  -1.4914  -1.1546   0.9940   1.1510
     1.3386   1.3548   1.5276   1.7934   1.9993   2.3246   2.6190   2.7066

          k = 0.4783 0.6904-0.0456 (  7278 PWs)   bands (ev):

   -36.9388 -36.9380 -17.9739 -17.9568 -17.9252 -17.8996 -17.8531 -17.8490
   -16.7192 -16.7039 -14.4361 -14.4144 -14.3357 -14.3219  -4.6276  -4.5669
    -2.3903  -2.3418  -2.2034  -2.1003  -1.3912  -1.2169   0.9455   1.0297
     1.3607   1.4000   1.5903   1.6704   2.0871   2.2636   2.6503   2.7231

          k = 0.3587 0.6213 0.0000 (  7290 PWs)   bands (ev):

   -36.9384 -36.9384 -17.9630 -17.9497 -17.9285 -17.9097 -17.8573 -17.8515
   -16.7102 -16.7098 -14.4265 -14.4241 -14.3308 -14.3285  -4.5927  -4.5926
    -2.3925  -2.3297  -2.1984  -2.1282  -1.2957  -1.2872   0.9397   0.9519
     1.3163   1.3948   1.6312   1.6846   2.1574   2.2100   2.6923   2.7142

          k =-0.4783 0.2762 0.3647 (  7259 PWs)   bands (ev):

   -36.9392 -36.9377 -17.9903 -17.9624 -17.9204 -17.8862 -17.8523 -17.8411
   -16.7385 -16.6915 -14.4477 -14.4008 -14.3374 -14.3187  -4.6699  -4.5374
    -2.4525  -2.2519  -2.2331  -2.0707  -1.4807  -1.1838   0.9824   1.1980
     1.3260   1.4115   1.5064   1.7260   1.9906   2.3283   2.5799   2.7315

          k = 0.4783 0.8285 0.0000 (  7266 PWs)   bands (ev):

   -36.9390 -36.9378 -17.9884 -17.9602 -17.9225 -17.8906 -17.8509 -17.8430
   -16.7357 -16.6896 -14.4476 -14.4063 -14.3308 -14.3227  -4.6582  -4.5401
    -2.4391  -2.2913  -2.2129  -2.0728  -1.4444  -1.2018   0.9579   1.1275
     1.3616   1.4516   1.5264   1.6478   2.0349   2.3036   2.5944   2.7388

          k =-0.0000 0.0000 0.1368 (  7315 PWs)   bands (ev):

   -36.9404 -36.9365 -17.9911 -17.9228 -17.8941 -17.8941 -17.8500 -17.8500
   -16.8797 -16.6268 -14.4541 -14.4541 -14.2780 -14.2780  -4.7118  -4.6372
    -2.2748  -2.2748  -2.2463  -2.2463  -1.8519  -0.8042   1.1909   1.1909
     1.4121   1.4121   1.5430   1.5430   2.3618   2.4656   2.4656   2.7983

          k =-0.1196-0.0690 0.1824 (  7325 PWs)   bands (ev):

   -36.9402 -36.9367 -17.9870 -17.9275 -17.8957 -17.8920 -17.8561 -17.8526
   -16.8545 -16.6415 -14.4436 -14.4429 -14.2910 -14.2902  -4.6957  -4.6426
    -2.2847  -2.2817  -2.2522  -2.2211  -1.7887  -0.8615   1.1971   1.1974
     1.3368   1.4189   1.5129   1.6261   2.3636   2.3788   2.4923   2.7697

          k =-0.2392-0.1381 0.2279 (  7313 PWs)   bands (ev):

   -36.9398 -36.9371 -17.9781 -17.9349 -17.8967 -17.8928 -17.8662 -17.8591
   -16.8075 -16.6656 -14.4250 -14.4233 -14.3179 -14.3120  -4.6596  -4.6396
    -2.2997  -2.2890  -2.2627  -2.1917  -1.6632  -0.9710   1.1874   1.2086
     1.2273   1.3171   1.5827   1.7133   2.2534   2.3089   2.5725   2.7308

          k =-0.3587-0.2071 0.2735 (  7296 PWs)   bands (ev):

   -36.9392 -36.9377 -17.9677 -17.9408 -17.9006 -17.8940 -17.8776 -17.8635
   -16.7636 -16.6846 -14.4128 -14.3996 -14.3408 -14.3385  -4.6300  -4.6190
    -2.3314  -2.3042  -2.2390  -2.1773  -1.5019  -1.1050   1.0965   1.1055
     1.2399   1.2611   1.6668   1.8000   2.1426   2.2295   2.6450   2.7111

          k = 0.5979 0.3452-0.0912 (  7300 PWs)   bands (ev):

   -36.9385 -36.9383 -17.9576 -17.9455 -17.9112 -17.8916 -17.8825 -17.8648
   -16.7352 -16.6979 -14.4111 -14.3787 -14.3632 -14.3477  -4.6227  -4.5896
    -2.3843  -2.2844  -2.2029  -2.1862  -1.3309  -1.2593   0.9974   1.0495
     1.2326   1.2691   1.7030   1.8563   2.0896   2.1904   2.6734   2.7155

          k = 0.4783 0.2762-0.0456 (  7302 PWs)   bands (ev):

   -36.9390 -36.9379 -17.9535 -17.9482 -17.9199 -17.8861 -17.8819 -17.8621
   -16.7194 -16.7162 -14.4152 -14.3763 -14.3747 -14.3337  -4.6325  -4.5756
    -2.4125  -2.2510  -2.2098  -2.1812  -1.4330  -1.1705   0.9748   1.0808
     1.2031   1.2751   1.6737   1.8532   2.1138   2.2312   2.6772   2.7127

          k = 0.3587 0.2071 0.0000 (  7315 PWs)   bands (ev):

   -36.9396 -36.9373 -17.9655 -17.9378 -17.9195 -17.8846 -17.8779 -17.8550
   -16.7608 -16.6930 -14.4293 -14.3904 -14.3604 -14.3099  -4.6419  -4.5956
    -2.4014  -2.2540  -2.2059  -2.1869  -1.6062  -1.0289   1.0579   1.1639
     1.2032   1.2529   1.6035   1.7859   2.1928   2.3234   2.6623   2.6972

          k = 0.2392 0.1381 0.0456 (  7319 PWs)   bands (ev):

   -36.9401 -36.9368 -17.9783 -17.9275 -17.9111 -17.8872 -17.8696 -17.8491
   -16.8170 -16.6619 -14.4454 -14.4184 -14.3241 -14.2893  -4.6436  -4.6413
    -2.3589  -2.2706  -2.2134  -2.2039  -1.7492  -0.9080   1.1798   1.1961
     1.2446   1.3155   1.5285   1.6723   2.2872   2.4170   2.5644   2.7451

          k =-0.1196 0.0690 0.2279 (  7319 PWs)   bands (ev):

   -36.9401 -36.9368 -17.9861 -17.9324 -17.8995 -17.8852 -17.8620 -17.8482
   -16.8449 -16.6487 -14.4446 -14.4311 -14.3046 -14.2873  -4.6953  -4.6498
    -2.3078  -2.2618  -2.2499  -2.2126  -1.7580  -0.8904   1.1982   1.2038
     1.3479   1.3964   1.5330   1.6590   2.3078   2.4332   2.4435   2.7503

          k =-0.2392 0.0000 0.2735 (  7315 PWs)   bands (ev):

   -36.9398 -36.9371 -17.9801 -17.9415 -17.9031 -17.8804 -17.8704 -17.8501
   -16.8080 -16.6690 -14.4342 -14.4111 -14.3295 -14.3004  -4.6673  -4.6514
    -2.3258  -2.2704  -2.2498  -2.1841  -1.6659  -0.9761   1.1826   1.2204
     1.2671   1.3900   1.5270   1.7400   2.1996   2.3626   2.5319   2.7143

          k =-0.3587-0.0690 0.3191 (  7296 PWs)   bands (ev):

   -36.9393 -36.9376 -17.9723 -17.9487 -17.9061 -17.8863 -17.8726 -17.8549
   -16.7675 -16.6860 -14.4241 -14.3895 -14.3562 -14.3183  -4.6363  -4.6340
    -2.3305  -2.3065  -2.2366  -2.1643  -1.5323  -1.0886   1.1196   1.1406
     1.2562   1.3400   1.5908   1.8146   2.0974   2.2755   2.6165   2.6950

          k = 0.5979 0.4833-0.0456 (  7300 PWs)   bands (ev):

   -36.9387 -36.9381 -17.9649 -17.9509 -17.9107 -17.8975 -17.8699 -17.8584
   -16.7405 -16.6938 -14.4221 -14.3795 -14.3674 -14.3310  -4.6232  -4.6000
    -2.3786  -2.2913  -2.2153  -2.1633  -1.3821  -1.2157   1.0203   1.0524
     1.2771   1.3103   1.6516   1.8340   2.0764   2.2069   2.6582   2.7058

          k = 0.4783 0.4142 0.0000 (  7300 PWs)   bands (ev):

   -36.9387 -36.9381 -17.9592 -17.9520 -17.9191 -17.8973 -17.8705 -17.8571
   -16.7257 -16.7033 -14.4239 -14.3929 -14.3542 -14.3330  -4.6298  -4.5709
    -2.4203  -2.2557  -2.1996  -2.1750  -1.3615  -1.2358   0.9501   1.0504
     1.2429   1.3155   1.6538   1.8403   2.0938   2.2171   2.6630   2.7237

          k = 0.3587 0.3452 0.0456 (  7296 PWs)   bands (ev):

   -36.9393 -36.9376 -17.9603 -17.9494 -17.9221 -17.8895 -17.8747 -17.8524
   -16.7302 -16.7098 -14.4266 -14.3946 -14.3583 -14.3185  -4.6412  -4.5723
    -2.4242  -2.2473  -2.1892  -2.1849  -1.5168  -1.1045   0.9733   1.1175
     1.2157   1.2965   1.6059   1.8346   2.1259   2.2928   2.6683   2.7058

          k = 0.2392 0.2762 0.0912 (  7315 PWs)   bands (ev):

   -36.9398 -36.9371 -17.9706 -17.9384 -17.9170 -17.8811 -17.8788 -17.8491
   -16.7772 -16.6842 -14.4370 -14.3981 -14.3503 -14.3006  -4.6445  -4.6097
    -2.3901  -2.2616  -2.2133  -2.1786  -1.6556  -0.9903   1.0877   1.1876
     1.2245   1.2889   1.5513   1.7585   2.2035   2.3685   2.6309   2.7060

          k =-0.2392 0.1381 0.3191 (  7288 PWs)   bands (ev):

   -36.9396 -36.9373 -17.9769 -17.9543 -17.9081 -17.8761 -17.8703 -17.8457
   -16.7816 -16.6871 -14.4315 -14.3918 -14.3533 -14.3024  -4.6626  -4.6458
    -2.3633  -2.2509  -2.2507  -2.1529  -1.6188  -1.0318   1.1554   1.2387
     1.3166   1.3484   1.5244   1.8000   2.0836   2.3775   2.5509   2.6753

          k =-0.3587 0.0690 0.3647 (  7297 PWs)   bands (ev):

   -36.9393 -36.9376 -17.9713 -17.9648 -17.9119 -17.8839 -17.8631 -17.8468
   -16.7479 -16.7037 -14.4269 -14.3782 -14.3715 -14.3123  -4.6566  -4.6155
    -2.3776  -2.2848  -2.2282  -2.1284  -1.5304  -1.1123   1.0951   1.1944
     1.3059   1.3780   1.5371   1.8392   1.9936   2.3215   2.6214   2.6515

          k = 0.5979 0.6213 0.0000 (  7293 PWs)   bands (ev):

   -36.9389 -36.9380 -17.9665 -17.9655 -17.9157 -17.8962 -17.8579 -17.8506
   -16.7261 -16.7074 -14.4271 -14.3983 -14.3543 -14.3208  -4.6271  -4.6004
    -2.3636  -2.3384  -2.2073  -2.1233  -1.4175  -1.1975   1.0228   1.0674
     1.3502   1.3748   1.5894   1.7533   2.0547   2.2478   2.6574   2.6787

          k = 0.4783 0.5523 0.0456 (  7296 PWs)   bands (ev):

   -36.9384 -36.9384 -17.9628 -17.9586 -17.9191 -17.9073 -17.8578 -17.8524
   -16.7194 -16.7039 -14.4294 -14.4104 -14.3424 -14.3253  -4.6076  -4.5888
    -2.3990  -2.3161  -2.1903  -2.1396  -1.3007  -1.2917   0.9587   0.9921
     1.3228   1.3794   1.6266   1.7206   2.1319   2.2001   2.6767   2.7073

          k = 0.3587 0.4833 0.0912 (  7286 PWs)   bands (ev):

   -36.9389 -36.9380 -17.9600 -17.9517 -17.9239 -17.9054 -17.8643 -17.8509
   -16.7156 -16.7107 -14.4288 -14.4118 -14.3408 -14.3248  -4.6241  -4.5689
    -2.4198  -2.2837  -2.1766  -2.1679  -1.4041  -1.1911   0.9205   1.0255
     1.2715   1.3515   1.6171   1.7749   2.1386   2.2390   2.6710   2.7268

          k = 0.2392 0.4142 0.1368 (  7296 PWs)   bands (ev):

   -36.9393 -36.9376 -17.9614 -17.9456 -17.9226 -17.8946 -17.8719 -17.8519
   -16.7383 -16.7022 -14.4274 -14.3992 -14.3545 -14.3164  -4.6343  -4.5840
    -2.4010  -2.2773  -2.2072  -2.1623  -1.5183  -1.0959   0.9785   1.0991
     1.2357   1.3091   1.6092   1.7971   2.1424   2.2914   2.6834   2.6977

          k =-0.3587 0.2071 0.4103 (  7275 PWs)   bands (ev):

   -36.9392 -36.9377 -17.9793 -17.9677 -17.9153 -17.8840 -17.8563 -17.8438
   -16.7236 -16.7196 -14.4303 -14.3929 -14.3550 -14.3163  -4.6690  -4.5835
    -2.4169  -2.2466  -2.2459  -2.0986  -1.4982  -1.1591   1.0569   1.2299
     1.3281   1.3852   1.5256   1.8189   1.9373   2.3242   2.6072   2.6638

          k = 0.5979 0.7594 0.0456 (  7273 PWs)   bands (ev):

   -36.9390 -36.9379 -17.9832 -17.9635 -17.9185 -17.8901 -17.8525 -17.8449
   -16.7294 -16.7020 -14.4368 -14.4026 -14.3415 -14.3215  -4.6569  -4.5649
    -2.4207  -2.2927  -2.2121  -2.0901  -1.4401  -1.2031   1.0002   1.1409
     1.3714   1.4333   1.5396   1.6879   2.0173   2.2875   2.6057   2.7046

          k = 0.4783 0.6904 0.0912 (  7292 PWs)   bands (ev):

   -36.9387 -36.9381 -17.9747 -17.9593 -17.9221 -17.9018 -17.8514 -17.8489
   -16.7198 -16.7022 -14.4345 -14.4167 -14.3309 -14.3264  -4.6241  -4.5716
    -2.3904  -2.3468  -2.1901  -2.1070  -1.3663  -1.2413   0.9524   1.0221
     1.3816   1.4326   1.5906   1.6260   2.1014   2.2403   2.6503   2.7160

          k = 0.3587 0.6213 0.1368 (  7296 PWs)   bands (ev):

   -36.9384 -36.9384 -17.9606 -17.9544 -17.9226 -17.9136 -17.8556 -17.8528
   -16.7101 -16.7099 -14.4259 -14.4247 -14.3302 -14.3290  -4.5927  -4.5926
    -2.3803  -2.3502  -2.1762  -2.1424  -1.2935  -1.2892   0.9425   0.9486
     1.3346   1.3735   1.6452   1.6715   2.1721   2.1983   2.6975   2.7085

          k = 0.2392 0.5523 0.1824 (  7300 PWs)   bands (ev):

   -36.9387 -36.9381 -17.9534 -17.9474 -17.9230 -17.9113 -17.8641 -17.8573
   -16.7167 -16.7097 -14.4208 -14.4122 -14.3424 -14.3303  -4.6091  -4.5853
    -2.3789  -2.3290  -2.1835  -2.1641  -1.3638  -1.2190   0.9402   0.9906
     1.2802   1.3129   1.6757   1.7492   2.1577   2.2154   2.6971   2.7152

          k = 0.5979-0.3452-0.3191 (  7266 PWs)   bands (ev):

   -36.9390 -36.9378 -17.9909 -17.9615 -17.9194 -17.8871 -17.8514 -17.8433
   -16.7415 -16.6872 -14.4472 -14.3982 -14.3367 -14.3229  -4.6688  -4.5409
    -2.4512  -2.2463  -2.2338  -2.0783  -1.4469  -1.2108   0.9815   1.1844
     1.3353   1.4472   1.5127   1.6971   2.0023   2.3025   2.5762   2.7307

          k = 0.4783-0.4142-0.2735 (  7273 PWs)   bands (ev):

   -36.9390 -36.9379 -17.9845 -17.9594 -17.9212 -17.8920 -17.8535 -17.8449
   -16.7345 -16.6914 -14.4446 -14.4040 -14.3355 -14.3226  -4.6548  -4.5439
    -2.4414  -2.2836  -2.2041  -2.0924  -1.4339  -1.2046   0.9532   1.1173
     1.3573   1.3841   1.5423   1.7268   2.0339   2.2925   2.6018   2.7359

          k = 0.3587-0.4833-0.2279 (  7293 PWs)   bands (ev):

   -36.9389 -36.9380 -17.9674 -17.9558 -17.9236 -17.9024 -17.8579 -17.8496
   -16.7178 -16.7070 -14.4343 -14.4118 -14.3397 -14.3213  -4.6276  -4.5659
    -2.4069  -2.3182  -2.1895  -2.1267  -1.4044  -1.1988   0.9316   1.0316
     1.3273   1.3552   1.5969   1.7380   2.1030   2.2618   2.6588   2.7254

          k = 0.4783-0.2762-0.2279 (  7275 PWs)   bands (ev):

   -36.9392 -36.9377 -17.9817 -17.9609 -17.9196 -17.8865 -17.8587 -17.8445
   -16.7329 -16.6993 -14.4417 -14.3976 -14.3454 -14.3184  -4.6634  -4.5426
    -2.4529  -2.2475  -2.2175  -2.1016  -1.4886  -1.1643   0.9743   1.1765
     1.3028   1.3163   1.5365   1.8724   1.9585   2.3275   2.5986   2.7269

          k = 0.3587-0.3452-0.1824 (  7297 PWs)   bands (ev):

   -36.9393 -36.9376 -17.9672 -17.9610 -17.9200 -17.8890 -17.8653 -17.8468
   -16.7210 -16.7167 -14.4343 -14.3961 -14.3552 -14.3138  -4.6510  -4.5634
    -2.4304  -2.2656  -2.2058  -2.1303  -1.5180  -1.1193   0.9807   1.1426
     1.2619   1.3196   1.5554   1.8500   2.0430   2.3272   2.6408   2.7061

          k = 0.3587-0.2071-0.1368 (  7288 PWs)   bands (ev):

   -36.9396 -36.9373 -17.9672 -17.9552 -17.9172 -17.8811 -17.8734 -17.8468
   -16.7505 -16.7017 -14.4352 -14.3775 -14.3735 -14.3048  -4.6535  -4.5852
    -2.4185  -2.2550  -2.2084  -2.1518  -1.6075  -1.0449   1.0542   1.1882
     1.2514   1.2753   1.5333   1.8345   2.1031   2.3709   2.6587   2.6663

          k =-0.0000 0.0000 0.2735 (  7309 PWs)   bands (ev):

   -36.9400 -36.9369 -17.9877 -17.9330 -17.8904 -17.8904 -17.8544 -17.8544
   -16.8520 -16.6469 -14.4376 -14.4376 -14.2941 -14.2941  -4.7158  -4.6560
    -2.2683  -2.2683  -2.2446  -2.2446  -1.7438  -0.8938   1.2065   1.2065
     1.3665   1.3665   1.6414   1.6414   2.3751   2.3751   2.3909   2.7446

          k =-0.1196-0.0690 0.3191 (  7313 PWs)   bands (ev):

   -36.9398 -36.9371 -17.9839 -17.9395 -17.8938 -17.8842 -17.8641 -17.8533
   -16.8260 -16.6622 -14.4292 -14.4222 -14.3107 -14.3055  -4.7012  -4.6595
    -2.2844  -2.2629  -2.2587  -2.2163  -1.6699  -0.9623   1.2086   1.2188
     1.2984   1.4004   1.5831   1.7434   2.2554   2.3370   2.4646   2.7146

          k =-0.2392-0.1381 0.3647 (  7293 PWs)   bands (ev):

   -36.9394 -36.9375 -17.9782 -17.9468 -17.8962 -17.8800 -17.8771 -17.8550
   -16.7874 -16.6789 -14.4196 -14.4011 -14.3338 -14.3250  -4.6703  -4.6448
    -2.3138  -2.2678  -2.2536  -2.1926  -1.5539  -1.0689   1.1848   1.1904
[...]
    -1.4678  -1.4620  -1.3752  -1.2340  -0.9835  -0.8222   2.1607   2.2584
     2.5291   2.5842   2.7005   2.7964   3.0740   3.2436   4.2600   4.3200

          k = 0.5593 0.6458 0.0409 (  5095 PWs)   bands (ev):

   -33.7010 -33.7010 -17.0808 -17.0575 -15.1315 -15.0556 -14.9575 -14.8235
   -14.7192 -14.6816 -13.7723 -13.6647 -13.5190 -13.4374  -2.9772  -2.9239
    -1.5323  -1.4059  -1.3637  -1.2190  -0.8878  -0.8717   2.1145   2.1627
     2.4625   2.5385   2.6761   2.7359   3.1372   3.2032   4.3204   4.3666

          k = 0.4194 0.5651 0.0819 (  5104 PWs)   bands (ev):

   -33.7024 -33.6996 -17.1129 -17.0201 -15.1754 -15.0522 -14.9894 -14.7615
   -14.7252 -14.6450 -13.8409 -13.6287 -13.5455 -13.4036  -3.0105  -2.8870
    -1.5641  -1.3847  -1.3077  -1.2321  -0.9967  -0.8140   2.0642   2.2655
     2.4087   2.5261   2.6619   2.7724   3.1572   3.2127   4.2737   4.4146

          k = 0.2796 0.4843 0.1228 (  5106 PWs)   bands (ev):

   -33.7037 -33.6984 -17.1217 -17.0152 -15.1747 -15.0464 -14.9702 -14.7934
   -14.7050 -14.6438 -13.8203 -13.6348 -13.5417 -13.4231  -3.0374  -2.9493
    -1.5488  -1.3951  -1.3177  -1.2395  -1.1284  -0.7602   2.1560   2.3819
     2.4698   2.5279   2.6597   2.8456   3.1203   3.2625   4.2400   4.3496

          k =-0.4194 0.2422 0.3684 (  5106 PWs)   bands (ev):

   -33.7034 -33.6988 -17.1449 -17.0004 -15.1876 -15.1086 -14.7906 -14.7697
   -14.7540 -14.6668 -13.7990 -13.7811 -13.4435 -13.4352  -3.1373  -2.9405
    -1.5478  -1.3944  -1.3271  -1.2376  -1.0628  -0.8307   2.1341   2.3301
     2.5400   2.7121   2.7385   2.8615   3.0200   3.3103   4.1438   4.3256

          k = 0.6991 0.8880 0.0409 (  5116 PWs)   bands (ev):

   -33.7028 -33.6993 -17.1415 -16.9979 -15.1876 -15.1344 -14.8048 -14.7558
   -14.7253 -14.6834 -13.8425 -13.7651 -13.4430 -13.4103  -3.1034  -2.8815
    -1.5512  -1.4106  -1.3060  -1.2289  -0.9780  -0.8481   2.0386   2.2630
     2.5251   2.6853   2.7007   2.7475   3.0822   3.2591   4.1766   4.3989

          k = 0.5593 0.8072 0.0819 (  5106 PWs)   bands (ev):

   -33.7019 -33.7001 -17.1096 -17.0286 -15.1563 -15.0923 -14.8574 -14.8251
   -14.7281 -14.6902 -13.8080 -13.7027 -13.4794 -13.4229  -3.0135  -2.8870
    -1.5086  -1.4650  -1.3215  -1.2261  -0.9025  -0.8439   2.0388   2.1912
     2.5028   2.5700   2.6556   2.6801   3.1517   3.2222   4.2748   4.4102

          k = 0.4194 0.7265 0.1228 (  5104 PWs)   bands (ev):

   -33.7010 -33.7010 -17.0679 -17.0678 -15.1177 -15.1007 -14.9049 -14.8623
   -14.7078 -14.6805 -13.7394 -13.7361 -13.4602 -13.4586  -2.9330  -2.9327
    -1.5121  -1.4666  -1.3042  -1.2361  -0.8830  -0.8604   2.1292   2.1350
     2.4587   2.4673   2.6625   2.6808   3.1857   3.2073   4.3651   4.3669

          k = 0.2796 0.6458 0.1637 (  5113 PWs)   bands (ev):

   -33.7019 -33.7001 -17.0898 -17.0446 -15.1403 -15.0604 -14.9645 -14.8625
   -14.6855 -14.6567 -13.7718 -13.6651 -13.5148 -13.4446  -2.9725  -2.9265
    -1.5260  -1.4588  -1.2701  -1.2453  -0.9631  -0.8403   2.1237   2.2275
     2.4438   2.4685   2.6963   2.7605   3.1546   3.1989   4.3137   4.3744

          k = 0.6991-0.4036-0.2865 (  5104 PWs)   bands (ev):

   -33.7028 -33.6992 -17.1613 -16.9700 -15.2183 -15.1930 -14.7587 -14.7369
   -14.7288 -14.6034 -13.9010 -13.8415 -13.4008 -13.3807  -3.1356  -2.8161
    -1.5946  -1.3820  -1.2542  -1.2233  -0.9694  -0.8741   1.9480   2.2396
     2.5148   2.6706   2.7317   2.7640   3.1032   3.2394   4.1325   4.4549

          k = 0.5593-0.4843-0.2456 (  5101 PWs)   bands (ev):

   -33.7027 -33.6993 -17.1497 -16.9815 -15.2035 -15.1704 -14.8177 -14.7370
   -14.7205 -14.6304 -13.9042 -13.7644 -13.4420 -13.3767  -3.0959  -2.8224
    -1.5803  -1.3999  -1.2675  -1.2242  -0.9611  -0.8493   1.9507   2.2350
     2.4686   2.6652   2.6878   2.7398   3.1307   3.2291   4.1752   4.4604

          k = 0.4194-0.5651-0.2047 (  5113 PWs)   bands (ev):

   -33.7024 -33.6996 -17.1176 -17.0167 -15.1852 -15.0640 -14.9408 -14.7889
   -14.7072 -14.6541 -13.8561 -13.6444 -13.5287 -13.3966  -3.0198  -2.8784
    -1.5395  -1.4347  -1.2947  -1.2347  -0.9599  -0.8232   2.0389   2.2453
     2.4355   2.5493   2.6612   2.7372   3.1460   3.2350   4.2635   4.4227

          k = 0.5593-0.3229-0.2047 (  5101 PWs)   bands (ev):

   -33.7033 -33.6987 -17.1599 -16.9692 -15.2060 -15.1926 -14.7996 -14.7336
   -14.7321 -14.5999 -13.9066 -13.7829 -13.4336 -13.3786  -3.1191  -2.8298
    -1.5965  -1.3720  -1.2565  -1.2271  -1.0270  -0.8406   1.9571   2.2842
     2.4369   2.6961   2.7173   2.8304   3.0750   3.2552   4.1440   4.4467

          k = 0.4194-0.4036-0.1637 (  5109 PWs)   bands (ev):

   -33.7037 -33.6984 -17.1437 -16.9902 -15.2005 -15.1101 -14.8919 -14.7497
   -14.7193 -14.6335 -13.8769 -13.6723 -13.5117 -13.3917  -3.0840  -2.8928
    -1.5679  -1.3873  -1.2978  -1.2312  -1.0868  -0.7919   2.0541   2.3527
     2.4263   2.6412   2.6777   2.8742   3.0654   3.2795   4.1882   4.3947

          k = 0.4194-0.2422-0.1228 (  5098 PWs)   bands (ev):

   -33.7047 -33.6976 -17.1417 -16.9989 -15.1509 -15.1207 -14.8757 -14.7537
   -14.7330 -14.6791 -13.8055 -13.6807 -13.5131 -13.4285  -3.0942  -2.9662
    -1.5533  -1.3975  -1.3438  -1.2370  -1.1874  -0.7347   2.1693   2.4273
     2.4661   2.6547   2.6820   2.9403   3.0573   3.3315   4.1792   4.3056

          k = 0.0000-0.0000 0.2456 (  5121 PWs)   bands (ev):

   -33.7063 -33.6967 -17.0916 -17.0831 -15.1062 -15.1062 -14.8356 -14.8356
   -14.6650 -14.5818 -13.8313 -13.8313 -13.4339 -13.4339  -3.3104  -3.1111
    -1.5257  -1.5108  -1.5108  -1.3127  -1.3127  -0.5487   2.3996   2.3996
     2.7270   2.7270   3.0234   3.0234   3.4831   3.4831   3.8101   4.1312

          k =-0.1398-0.0807 0.2865 (  5119 PWs)   bands (ev):

   -33.7055 -33.6974 -17.0881 -17.0832 -15.1272 -15.0347 -14.9348 -14.7933
   -14.6777 -14.6134 -13.8416 -13.7059 -13.5194 -13.4233  -3.2650  -3.1163
    -1.5086  -1.4931  -1.4043  -1.3229  -1.3197  -0.6248   2.4211   2.4504
     2.6709   2.6946   2.9253   3.0311   3.3609   3.4292   3.9127   4.1334

          k =-0.2796-0.1614 0.3274 (  5107 PWs)   bands (ev):

   -33.7041 -33.6985 -17.0855 -17.0756 -15.1296 -15.0294 -14.9674 -14.7503
   -14.7353 -14.6386 -13.8054 -13.6099 -13.6025 -13.4314  -3.1770  -3.0720
    -1.4738  -1.4639  -1.3635  -1.3214  -1.2068  -0.7257   2.3884   2.5095
     2.5965   2.6202   2.7528   2.9779   3.1901   3.2997   4.0786   4.1863

          k = 0.8389 0.4843 0.0000 (  5112 PWs)   bands (ev):

   -33.7024 -33.6999 -17.0891 -17.0595 -15.1445 -15.0108 -14.9887 -14.8157
   -14.7118 -14.6407 -13.7795 -13.6206 -13.5837 -13.4370  -3.1048  -2.9739
    -1.5028  -1.4378  -1.3472  -1.2667  -1.0416  -0.8162   2.2329   2.3562
     2.5405   2.6176   2.7017   2.9791   3.0390   3.1829   4.1881   4.2838

          k = 0.6991 0.4036 0.0409 (  5122 PWs)   bands (ev):

   -33.7015 -33.7006 -17.1194 -17.0171 -15.1594 -15.1027 -14.8972 -14.8494
   -14.7055 -14.6219 -13.7565 -13.7397 -13.4796 -13.4465  -3.0778  -2.8775
    -1.5728  -1.3816  -1.3278  -1.2050  -0.9226  -0.9122   2.0468   2.2542
     2.4585   2.6532   2.7127   2.9407   3.0208   3.1520   4.2066   4.3865

          k = 0.5593 0.3229 0.0819 (  5097 PWs)   bands (ev):

   -33.7032 -33.6989 -17.1428 -16.9880 -15.1796 -15.1487 -14.8695 -14.7956
   -14.7171 -14.6076 -13.8398 -13.7136 -13.4777 -13.4148  -3.0846  -2.8651
    -1.5949  -1.3548  -1.2839  -1.2199  -1.0611  -0.8241   2.0029   2.3100
     2.4168   2.6790   2.6853   2.9422   3.0210   3.2212   4.1824   4.4129

          k =-0.1398 0.0807 0.3274 (  5106 PWs)   bands (ev):

   -33.7050 -33.6979 -17.0922 -17.0800 -15.1083 -15.0342 -14.9314 -14.8236
   -14.6624 -14.6388 -13.7904 -13.7045 -13.5192 -13.4576  -3.2526  -3.1401
    -1.4942  -1.4665  -1.3934  -1.3212  -1.3134  -0.6746   2.4306   2.4722
     2.6342   2.6784   2.9618   3.0640   3.3068   3.4304   3.9254   4.1102

          k =-0.2796 0.0000 0.3684 (  5092 PWs)   bands (ev):

   -33.7040 -33.6987 -17.0959 -17.0698 -15.1114 -15.0422 -14.9316 -14.7998
   -14.7029 -14.6578 -13.7634 -13.6681 -13.5469 -13.4656  -3.1792  -3.1224
    -1.4629  -1.4456  -1.3979  -1.3102  -1.2049  -0.7563   2.4206   2.4798
     2.5933   2.6291   2.8559   3.0254   3.1656   3.3446   4.0545   4.1398

          k = 0.8389 0.6458 0.0409 (  5112 PWs)   bands (ev):

   -33.7026 -33.6998 -17.0784 -17.0767 -15.1147 -15.0727 -14.9092 -14.7962
   -14.7344 -14.6712 -13.7545 -13.6715 -13.5379 -13.4575  -3.1046  -3.0381
    -1.4702  -1.4096  -1.4059  -1.2852  -1.0516  -0.8229   2.3061   2.3668
     2.6003   2.6056   2.7199   2.9393   3.0828   3.2266   4.1790   4.2297

          k = 0.6991 0.5651 0.0819 (  5106 PWs)   bands (ev):

   -33.7011 -33.7010 -17.1050 -17.0381 -15.1485 -15.0704 -14.9227 -14.8071
   -14.7146 -14.6702 -13.7763 -13.6926 -13.5107 -13.4355  -3.0688  -2.9188
    -1.5404  -1.3777  -1.3659  -1.2390  -0.9252  -0.8821   2.1159   2.2517
     2.5118   2.6248   2.6882   2.8517   3.0963   3.1628   4.2253   4.3520

          k = 0.5593 0.4843 0.1228 (  5105 PWs)   bands (ev):

   -33.7024 -33.6996 -17.1347 -16.9978 -15.1836 -15.1336 -14.8881 -14.7607
   -14.7230 -14.6293 -13.8576 -13.7093 -13.4829 -13.3978  -3.0713  -2.8483
    -1.5848  -1.3691  -1.2964  -1.2256  -0.9718  -0.8487   1.9915   2.2511
     2.4292   2.6445   2.6876   2.8151   3.1088   3.1975   4.2056   4.4333

          k =-0.2796 0.1614 0.4093 (  5096 PWs)   bands (ev):

   -33.7034 -33.6991 -17.1125 -17.0505 -15.1396 -14.9910 -14.9404 -14.8166
   -14.7154 -14.6598 -13.7640 -13.6465 -13.5532 -13.4715  -3.1506  -3.1121
    -1.4878  -1.4153  -1.3778  -1.2961  -1.1396  -0.8167   2.3905   2.4189
     2.6037   2.6232   2.8566   3.0392   3.0514   3.3352   4.1233   4.1270

          k = 0.8389 0.8072 0.0819 (  5108 PWs)   bands (ev):

   -33.7026 -33.6998 -17.1117 -17.0436 -15.1456 -15.0497 -14.8768 -14.8036
   -14.7336 -14.6839 -13.7612 -13.6950 -13.5038 -13.4662  -3.1125  -3.0333
    -1.4935  -1.4173  -1.3512  -1.2869  -1.0282  -0.8583   2.2691   2.3506
     2.5792   2.6514   2.7871   2.8668   3.0723   3.2618   4.1701   4.2352

          k = 0.6991 0.7265 0.1228 (  5107 PWs)   bands (ev):

   -33.7015 -33.7006 -17.0836 -17.0640 -15.1148 -15.0781 -14.8557 -14.8416
   -14.7296 -14.7243 -13.7430 -13.6921 -13.4986 -13.4651  -3.0090  -2.9932
    -1.4728  -1.4675  -1.3304  -1.2718  -0.9199  -0.8667   2.1777   2.2100
     2.5713   2.6005   2.7040   2.7410   3.1243   3.1909   4.2783   4.2993

          k = 0.5593 0.6458 0.1637 (  5107 PWs)   bands (ev):

   -33.7015 -33.7005 -17.0972 -17.0418 -15.1269 -15.0984 -14.9050 -14.7975
   -14.7257 -14.7069 -13.7794 -13.6984 -13.4896 -13.4339  -2.9984  -2.9028
    -1.5283  -1.4413  -1.2912  -1.2646  -0.8912  -0.8534   2.0693   2.1729
     2.4886   2.5677   2.6579   2.7014   3.1676   3.1883   4.2949   4.3912

          k = 0.8389-0.4843-0.2456 (  5104 PWs)   bands (ev):

   -33.7023 -33.6999 -17.1335 -17.0147 -15.1921 -15.0706 -14.8652 -14.7679
   -14.7362 -14.6433 -13.8244 -13.7368 -13.4776 -13.4191  -3.1406  -2.9435
    -1.5467  -1.3847  -1.2916  -1.2873  -0.9837  -0.8921   2.1488   2.3202
     2.5806   2.6933   2.7134   2.8594   3.0578   3.2451   4.1464   4.3189

          k = 0.6991-0.5651-0.2047 (  5112 PWs)   bands (ev):

   -33.7020 -33.7002 -17.1270 -17.0151 -15.1687 -15.1136 -14.8534 -14.7522
   -14.7292 -14.6920 -13.7834 -13.7745 -13.4516 -13.4308  -3.0927  -2.8950
    -1.5519  -1.3997  -1.2876  -1.2701  -0.9293  -0.8805   2.0669   2.2509
     2.5432   2.6512   2.6821   2.7890   3.1059   3.1997   4.1951   4.3804

          k = 0.6991-0.4036-0.1637 (  5107 PWs)   bands (ev):

   -33.7022 -33.6998 -17.1451 -16.9890 -15.1990 -15.1562 -14.8091 -14.7875
   -14.7226 -14.6080 -13.8312 -13.8139 -13.4189 -13.4140  -3.1152  -2.8387
    -1.5913  -1.3635  -1.2919  -1.2228  -0.9494  -0.8859   1.9859   2.2515
     2.4786   2.6820   2.7036   2.8400   3.0855   3.1886   4.1619   4.4281

          k =-0.0000 0.0000 0.3684 (  5112 PWs)   bands (ev):

   -33.7046 -33.6984 -17.0909 -17.0854 -15.0690 -15.0690 -14.8961 -14.8961
   -14.6493 -14.5950 -13.7489 -13.7489 -13.4933 -13.4933  -3.2920  -3.1663
    -1.4763  -1.4763  -1.3472  -1.3472  -1.3418  -0.7074   2.4576   2.4576
     2.6696   2.6696   3.0974   3.0974   3.3943   3.3943   3.8602   4.0667

          k =-0.1398-0.0807 0.4093 (  5098 PWs)   bands (ev):

   -33.7037 -33.6991 -17.0865 -17.0864 -15.0994 -14.9929 -14.9900 -14.8457
   -14.6600 -14.6165 -13.7721 -13.6377 -13.5843 -13.4710  -3.2500  -3.1611
    -1.4634  -1.4469  -1.3654  -1.3618  -1.2277  -0.7820   2.4649   2.4985
     2.6257   2.6287   3.0049   3.1249   3.2567   3.3529   3.9490   4.0788

          k = 0.9787 0.5651 0.0819 (  5102 PWs)   bands (ev):

   -33.7025 -33.7000 -17.0901 -17.0730 -15.1304 -15.0296 -14.9507 -14.7930
   -14.7116 -14.6349 -13.7851 -13.6186 -13.5944 -13.4493  -3.1793  -3.0873
    -1.4680  -1.4063  -1.3769  -1.3414  -1.0845  -0.8511   2.3830   2.4771
     2.5916   2.6165   2.8164   3.0837   3.0939   3.2421   4.0845   4.1657

          k = 0.8389 0.4843 0.1228 (  5109 PWs)   bands (ev):

   -33.7011 -33.7011 -17.1142 -17.0353 -15.1770 -15.0287 -14.9415 -14.7760
   -14.7313 -14.6349 -13.8161 -13.6803 -13.5262 -13.4200  -3.1295  -2.9550
    -1.5323  -1.3690  -1.3600  -1.2703  -0.9619  -0.8973   2.1828   2.3361
     2.5797   2.6581   2.6778   2.9386   3.0705   3.1764   4.1623   4.3038

          k =-0.1398 0.0807 0.4502 (  5094 PWs)   bands (ev):

   -33.7031 -33.6997 -17.0913 -17.0823 -15.0861 -14.9937 -14.9776 -14.8770
   -14.6444 -14.6359 -13.7339 -13.6217 -13.5954 -13.5032  -3.2323  -3.1858
    -1.4540  -1.4311  -1.3907  -1.3515  -1.1698  -0.8440   2.4847   2.5183
     2.5817   2.6234   3.0436   3.1565   3.2056   3.3393   3.9689   4.0530

          k = 0.9787 0.7265 0.1228 (  5103 PWs)   bands (ev):

   -33.7022 -33.7004 -17.0881 -17.0791 -15.0922 -15.0651 -14.9016 -14.8523
   -14.6759 -14.6598 -13.7231 -13.6833 -13.5349 -13.5000  -3.1684  -3.1490
    -1.4420  -1.4253  -1.3828  -1.3450  -1.0605  -0.9019   2.4427   2.4676
     2.5866   2.6036   2.9389   3.0281   3.1643   3.2581   4.0767   4.1060

          k = 0.8389 0.6458 0.1637 (  5100 PWs)   bands (ev):

   -33.7012 -33.7012 -17.0958 -17.0606 -15.1338 -15.0532 -14.8973 -14.7986
   -14.7265 -14.6842 -13.7608 -13.6773 -13.5273 -13.4595  -3.1131  -3.0358
    -1.4861  -1.4138  -1.3422  -1.3123  -0.9525  -0.9230   2.2827   2.3496
     2.6014   2.6261   2.7660   2.8830   3.1352   3.1832   4.1710   4.2322

          k = 0.9787-0.5651-0.2047 (  5101 PWs)   bands (ev):

   -33.7018 -33.7008 -17.1030 -17.0609 -15.1390 -14.9935 -14.9548 -14.8223
   -14.7022 -14.6429 -13.7739 -13.6086 -13.5961 -13.4638  -3.1706  -3.1013
    -1.4785  -1.3948  -1.3561  -1.3445  -0.9973  -0.9486   2.3844   2.4423
     2.5957   2.6175   2.8856   2.9995   3.1246   3.2480   4.0994   4.1453

          k = 0.0000-0.0000 0.4912 (  5100 PWs)   bands (ev):

   -33.7026 -33.7004 -17.0897 -17.0878 -15.0193 -15.0193 -14.9600 -14.9600
   -14.6308 -14.6119 -13.6582 -13.6582 -13.5701 -13.5701  -3.2618  -3.2191
    -1.4342  -1.4342  -1.3894  -1.3894  -1.1269  -0.9073   2.5277   2.5277
     2.6010   2.6010   3.1892   3.1892   3.2918   3.2918   3.9234   3.9945

          k = 1.1185 0.6458 0.1637 (  5110 PWs)   bands (ev):

   -33.7017 -33.7011 -17.0893 -17.0846 -15.0664 -15.0319 -14.9439 -14.9029
   -14.6443 -14.6279 -13.6980 -13.6466 -13.5768 -13.5300  -3.2237  -3.2015
    -1.4336  -1.4008  -1.4007  -1.3909  -1.0377  -0.9714   2.5147   2.5414
     2.5709   2.5816   3.0945   3.1526   3.2238   3.2651   3.9971   4.0216

     highest occupied level (ev):     4.4700

!    total energy              =    -367.43037134 Ry
     Harris-Foulkes estimate   =    -367.43037134 Ry
     estimated scf accuracy    <          1.3E-11 Ry

     The total energy is the sum of the following terms:

     one-electron contribution =    -148.27357370 Ry
     hartree contribution      =     103.50120765 Ry
     xc contribution           =     -75.26663046 Ry
     ewald contribution        =    -247.39137483 Ry

     convergence has been achieved in  12 iterations

     Forces acting on atoms (cartesian axes, Ry/au):

     atom    1 type  1   force =     0.00000000    0.00000000    0.00000000
     atom    2 type  1   force =     0.00000000   -0.00000000    0.00000000
     atom    3 type  2   force =     0.00000000    0.00000000    0.00000000
     atom    4 type  2   force =    -0.00000000    0.00000000   -0.00000000
     atom    5 type  3   force =    -0.00001745    0.00003022    0.00000000
     atom    6 type  3   force =     0.00003489   -0.00000000    0.00000000
     atom    7 type  3   force =    -0.00001745   -0.00003022   -0.00000000
     atom    8 type  3   force =    -0.00003489    0.00000000   -0.00000000
     atom    9 type  3   force =     0.00001745    0.00003022    0.00000000
     atom   10 type  3   force =     0.00001745   -0.00003022   -0.00000000

     Total force =     0.000085     Total SCF correction =     0.000004


     Computing stress (Cartesian axis) and pressure

          total   stress  (Ry/bohr**3)                   (kbar)     P=   -1.33
  -0.00001060   0.00000000  -0.00000000         -1.56      0.00     -0.00
   0.00000000  -0.00001060  -0.00000000          0.00     -1.56     -0.00
  -0.00000000  -0.00000000  -0.00000591         -0.00     -0.00     -0.87


     Writing output data file CCO.save/
 
     init_run     :     16.84s CPU     21.19s WALL (       2 calls)
     electrons    :   5965.88s CPU   6665.16s WALL (      15 calls)
     update_pot   :      1.49s CPU      1.68s WALL (      13 calls)
     forces       :     12.06s CPU     12.89s WALL (      15 calls)
     stress       :     26.12s CPU     26.67s WALL (      15 calls)

     Called by init_run:
     wfcinit      :     16.20s CPU     18.94s WALL (       2 calls)
     potinit      :      0.07s CPU      0.16s WALL (       2 calls)
     hinit0       :      0.46s CPU      1.38s WALL (       2 calls)

     Called by electrons:
     c_bands      :   5607.81s CPU   6281.00s WALL (     198 calls)
     sum_band     :    352.34s CPU    376.09s WALL (     198 calls)
     v_of_rho     :      3.16s CPU      3.47s WALL (     213 calls)
     newd         :      2.10s CPU      2.37s WALL (     213 calls)
     mix_rho      :      0.47s CPU      0.73s WALL (     198 calls)

     Called by c_bands:
     init_us_2    :     11.37s CPU     13.48s WALL (   36380 calls)
     ccgdiagg     :   4587.03s CPU   5068.98s WALL (   17211 calls)
     wfcrot       :   1025.09s CPU   1202.84s WALL (   16106 calls)

     Called by sum_band:
     sum_band:bec :      4.18s CPU      4.75s WALL (   16830 calls)
     addusdens    :      1.89s CPU      2.26s WALL (     198 calls)

     Called by *cgdiagg:
     h_psi        :   3882.35s CPU   4208.02s WALL ( 1894493 calls)
     s_psi        :    327.48s CPU    379.38s WALL ( 3772880 calls)
     cdiaghg      :    329.96s CPU    458.38s WALL (   16106 calls)

     Called by h_psi:
     h_psi:pot    :   3819.27s CPU   4133.68s WALL ( 1894493 calls)
     h_psi:calbec :    404.57s CPU    443.51s WALL ( 1894493 calls)
     vloc_psi     :   3130.43s CPU   3381.12s WALL ( 1894493 calls)
     add_vuspsi   :    210.52s CPU    235.84s WALL ( 1894493 calls)
     hs_1psi      :   3551.05s CPU   3865.73s WALL ( 1878387 calls)
     s_1psi       :    494.75s CPU    571.67s WALL ( 1878387 calls)

     General routines
     calbec       :    604.54s CPU    688.27s WALL ( 3796085 calls)
     fft          :      3.23s CPU      3.89s WALL (    2731 calls)
     ffts         :      0.23s CPU      0.24s WALL (     198 calls)
     fftw         :   3270.25s CPU   3522.25s WALL ( 5332918 calls)
 
     Parallel routines
     fft_scatt_xy :    159.19s CPU    170.80s WALL ( 5335847 calls)
     fft_scatt_yz :   2361.15s CPU   2546.58s WALL ( 5335847 calls)
 
     PWSCF        :      1h40m CPU      1h52m WALL

 
   This run was terminated on:  19:13:28  23Apr2022            

=------------------------------------------------------------------------------=
   JOB DONE.
=------------------------------------------------------------------------------=
