
     Program PWSCF v.7.0 starts on 11Apr2022 at  8:29:23 

     This program is part of the open-source Quantum ESPRESSO suite
     for quantum simulation of materials; please cite
         "P. Giannozzi et al., J. Phys.:Condens. Matter 21 395502 (2009);
         "P. Giannozzi et al., J. Phys.:Condens. Matter 29 465901 (2017);
         "P. Giannozzi et al., J. Chem. Phys. 152 154105 (2020);
          URL http://www.quantum-espresso.org", 
     in publications or presentations arising from this work. More details at
     http://www.quantum-espresso.org/quote

     Parallel version (MPI), running on     1 processors

     MPI processes distributed on     1 nodes
     90740 MiB available memory on the printing compute node when the environment starts
 
     Waiting for input...
     Reading input from standard input
Warning: card &CELL ignored
Warning: card  CELL_DYNAMICS = 'BFGS', ignored
Warning: card  PRESS=0.1D0, ignored
Warning: card / ignored

     Current dimensions of program PWSCF are:
     Max number of different atomic species (ntypx) = 10
     Max number of k-points (npk) =  40000
     Max angular momentum in pseudopotentials (lmaxx) =  4

     File ./PTO2.update deleted, as requested

     File ./PTO2.bfgs deleted, as requested
     Message from routine setup:
     using ibrav=0 with symmetry is DISCOURAGED, use correct ibrav instead

     Subspace diagonalization in iterative solution of the eigenvalue problem:
     a serial algorithm will be used

 
     G-vector sticks info
     --------------------
     sticks:   dense  smooth     PW     G-vecs:    dense   smooth      PW
     Sum        1685    1685    481                54705    54705    8193
 
     Using Slab Decomposition
 


     bravais-lattice index     =            0
     lattice parameter (alat)  =       7.2573  a.u.
     unit-cell volume          =     404.8486 (a.u.)^3
     number of atoms/cell      =            5
     number of atomic types    =            3
     number of electrons       =        44.00
     number of Kohn-Sham states=           22
     kinetic-energy cutoff     =     100.0000  Ry
     charge density cutoff     =     400.0000  Ry
     scf convergence threshold =      1.0E-08
     mixing beta               =       0.7000
     number of iterations used =            8  plain     mixing
     energy convergence thresh.=      1.0E-04
     force convergence thresh. =      1.0E-03
     Exchange-correlation= SLA  PZ   NOGX NOGC
                           (   1   1   0   0   0   0   0)
     nstep                     =           50


     celldm(1)=   7.257304  celldm(2)=   0.000000  celldm(3)=   0.000000
     celldm(4)=   0.000000  celldm(5)=   0.000000  celldm(6)=   0.000000

     crystal axes: (cart. coord. in units of alat)
               a(1) = (   1.000000   0.000000   0.000000 )  
               a(2) = (   0.000000   1.004010   0.000000 )  
               a(3) = (   0.000000   0.000000   1.054942 )  

     reciprocal axes: (cart. coord. in units 2 pi/alat)
               b(1) = (  1.000000  0.000000  0.000000 )  
               b(2) = (  0.000000  0.996006  0.000000 )  
               b(3) = (  0.000000  0.000000  0.947919 )  


     PseudoPot. # 1 for Pb read from file:
     ./Pb_LDA.UPF
     MD5 check sum: 062a37469794d955244864f8fe2e5624
     Pseudo is Ultrasoft + core correction, Zval = 14.0
     Generated by new atomic code, or converted to UPF format
     Using radial grid of  899 points,  6 beta functions with: 
                l(1) =   0
                l(2) =   0
                l(3) =   1
                l(4) =   1
                l(5) =   2
                l(6) =   2
     Q(r) pseudized with  6 coefficients,  rinner =    1.000   1.000   1.000
                                                       1.000   1.000

     PseudoPot. # 2 for Ti read from file:
     ./Ti_LDA.UPF
     MD5 check sum: 0d9f225c038fe889ca2a701dcc8d72cb
     Pseudo is Ultrasoft + core correction, Zval = 12.0
     Generated by new atomic code, or converted to UPF format
     Using radial grid of  851 points,  6 beta functions with: 
                l(1) =   0
                l(2) =   0
                l(3) =   1
                l(4) =   1
                l(5) =   2
                l(6) =   2
     Q(r) pseudized with  6 coefficients,  rinner =    1.000   1.000   1.000
                                                       1.000   1.000

     PseudoPot. # 3 for O  read from file:
     ./O_LDA.UPF
     MD5 check sum: 194b818514d2a7dbb603bb78519a4f40
     Pseudo is Ultrasoft + core correction, Zval =  6.0
     Generated by new atomic code, or converted to UPF format
     Using radial grid of  737 points,  5 beta functions with: 
                l(1) =   0
                l(2) =   0
                l(3) =   1
                l(4) =   1
                l(5) =   2
     Q(r) pseudized with  8 coefficients,  rinner =    0.900   0.900   0.900
                                                       0.900   0.900

     atomic species   valence    mass     pseudopotential
        Pb            14.00   207.20000     Pb( 1.00)
        Ti            12.00    47.88000     Ti( 1.00)
        O              6.00    16.00000     O ( 1.00)

      4 Sym. Ops. (no inversion) found



   Cartesian axes

     site n.     atom                  positions (alat units)
         1           Pb  tau(   1) = (   0.0000000   0.0000000   1.0604178  )
         2           Ti  tau(   2) = (   0.5000000   0.5020050   0.5691544  )
         3           O   tau(   3) = (   0.5000000   0.5020050   0.1049443  )
         4           O   tau(   4) = (   0.5000000   0.0000000   0.6451514  )
         5           O   tau(   5) = (   0.0000000   0.5020050   0.6451514  )

     number of k points=    48
                       cart. coord. in units 2pi/alat
        k(    1) = (   0.0000000   0.0000000   0.0000000), wk =   0.0081633
        k(    2) = (   0.0000000   0.0000000   0.1895838), wk =   0.0163265
        k(    3) = (   0.0000000   0.0000000   0.3791677), wk =   0.0163265
        k(    4) = (   0.0000000   0.1422866   0.0000000), wk =   0.0163265
        k(    5) = (   0.0000000   0.1422866   0.1895838), wk =   0.0326531
        k(    6) = (   0.0000000   0.1422866   0.3791677), wk =   0.0326531
        k(    7) = (   0.0000000   0.2845731   0.0000000), wk =   0.0163265
        k(    8) = (   0.0000000   0.2845731   0.1895838), wk =   0.0326531
        k(    9) = (   0.0000000   0.2845731   0.3791677), wk =   0.0326531
        k(   10) = (   0.0000000   0.4268597   0.0000000), wk =   0.0163265
        k(   11) = (   0.0000000   0.4268597   0.1895838), wk =   0.0326531
        k(   12) = (   0.0000000   0.4268597   0.3791677), wk =   0.0326531
        k(   13) = (   0.1428571   0.0000000   0.0000000), wk =   0.0163265
        k(   14) = (   0.1428571   0.0000000   0.1895838), wk =   0.0326531
        k(   15) = (   0.1428571   0.0000000   0.3791677), wk =   0.0326531
        k(   16) = (   0.1428571   0.1422866   0.0000000), wk =   0.0326531
        k(   17) = (   0.1428571   0.1422866   0.1895838), wk =   0.0653061
        k(   18) = (   0.1428571   0.1422866   0.3791677), wk =   0.0653061
        k(   19) = (   0.1428571   0.2845731   0.0000000), wk =   0.0326531
        k(   20) = (   0.1428571   0.2845731   0.1895838), wk =   0.0653061
        k(   21) = (   0.1428571   0.2845731   0.3791677), wk =   0.0653061
        k(   22) = (   0.1428571   0.4268597   0.0000000), wk =   0.0326531
        k(   23) = (   0.1428571   0.4268597   0.1895838), wk =   0.0653061
        k(   24) = (   0.1428571   0.4268597   0.3791677), wk =   0.0653061
        k(   25) = (   0.2857143   0.0000000   0.0000000), wk =   0.0163265
        k(   26) = (   0.2857143   0.0000000   0.1895838), wk =   0.0326531
        k(   27) = (   0.2857143   0.0000000   0.3791677), wk =   0.0326531
        k(   28) = (   0.2857143   0.1422866   0.0000000), wk =   0.0326531
        k(   29) = (   0.2857143   0.1422866   0.1895838), wk =   0.0653061
        k(   30) = (   0.2857143   0.1422866   0.3791677), wk =   0.0653061
        k(   31) = (   0.2857143   0.2845731   0.0000000), wk =   0.0326531
        k(   32) = (   0.2857143   0.2845731   0.1895838), wk =   0.0653061
        k(   33) = (   0.2857143   0.2845731   0.3791677), wk =   0.0653061
        k(   34) = (   0.2857143   0.4268597   0.0000000), wk =   0.0326531
        k(   35) = (   0.2857143   0.4268597   0.1895838), wk =   0.0653061
        k(   36) = (   0.2857143   0.4268597   0.3791677), wk =   0.0653061
        k(   37) = (   0.4285714   0.0000000   0.0000000), wk =   0.0163265
        k(   38) = (   0.4285714   0.0000000   0.1895838), wk =   0.0326531
        k(   39) = (   0.4285714   0.0000000   0.3791677), wk =   0.0326531
        k(   40) = (   0.4285714   0.1422866   0.0000000), wk =   0.0326531
        k(   41) = (   0.4285714   0.1422866   0.1895838), wk =   0.0653061
        k(   42) = (   0.4285714   0.1422866   0.3791677), wk =   0.0653061
        k(   43) = (   0.4285714   0.2845731   0.0000000), wk =   0.0326531
        k(   44) = (   0.4285714   0.2845731   0.1895838), wk =   0.0653061
        k(   45) = (   0.4285714   0.2845731   0.3791677), wk =   0.0653061
        k(   46) = (   0.4285714   0.4268597   0.0000000), wk =   0.0326531
        k(   47) = (   0.4285714   0.4268597   0.1895838), wk =   0.0653061
        k(   48) = (   0.4285714   0.4268597   0.3791677), wk =   0.0653061

     Dense  grid:    54705 G-vectors     FFT dimensions: (  48,  48,  50)

     Estimated max dynamical RAM per process >     326.88 MB

     Check: negative core charge=   -0.000003

     Initial potential from superposition of free atoms

     starting charge      42.9982, renormalised to      44.0000

     negative rho (up, down):  1.703E-02 0.000E+00
     Starting wfcs are   31 randomized atomic wfcs

     total cpu time spent up to now is       18.7 secs

     Self-consistent Calculation

     iteration #  1     ecut=   100.00 Ry     beta= 0.70
     CG style diagonalization
     ethr =  1.00E-02,  avg # of iterations =  2.2

     negative rho (up, down):  1.432E-02 0.000E+00

     total cpu time spent up to now is       52.8 secs

     total energy              =    -380.06126890 Ry
     estimated scf accuracy    <       1.02627054 Ry

     iteration #  2     ecut=   100.00 Ry     beta= 0.70
     CG style diagonalization
     ethr =  2.33E-03,  avg # of iterations =  4.9

     negative rho (up, down):  1.504E-02 0.000E+00

     total cpu time spent up to now is      116.0 secs

     total energy              =    -379.78404911 Ry
     estimated scf accuracy    <       3.78243934 Ry

     iteration #  3     ecut=   100.00 Ry     beta= 0.70
     CG style diagonalization
     ethr =  2.33E-03,  avg # of iterations =  4.5

     negative rho (up, down):  1.562E-02 0.000E+00

     total cpu time spent up to now is      174.4 secs

     total energy              =    -380.54790731 Ry
     estimated scf accuracy    <       0.24646787 Ry

     iteration #  4     ecut=   100.00 Ry     beta= 0.70
     CG style diagonalization
     ethr =  5.60E-04,  avg # of iterations =  3.4

     negative rho (up, down):  1.566E-02 0.000E+00

     total cpu time spent up to now is      218.9 secs

     total energy              =    -380.56155424 Ry
     estimated scf accuracy    <       0.04993274 Ry

     iteration #  5     ecut=   100.00 Ry     beta= 0.70
     CG style diagonalization
     ethr =  1.13E-04,  avg # of iterations =  3.8

     negative rho (up, down):  1.565E-02 0.000E+00

     total cpu time spent up to now is      269.6 secs

     total energy              =    -380.57584422 Ry
     estimated scf accuracy    <       0.00499170 Ry

     iteration #  6     ecut=   100.00 Ry     beta= 0.70
     CG style diagonalization
     ethr =  1.13E-05,  avg # of iterations =  4.1

     negative rho (up, down):  1.565E-02 0.000E+00

     total cpu time spent up to now is      322.9 secs

     total energy              =    -380.57744300 Ry
     estimated scf accuracy    <       0.00699562 Ry

     iteration #  7     ecut=   100.00 Ry     beta= 0.70
     CG style diagonalization
     ethr =  1.13E-05,  avg # of iterations =  3.2

     negative rho (up, down):  1.566E-02 0.000E+00

     total cpu time spent up to now is      364.5 secs

     total energy              =    -380.57703944 Ry
     estimated scf accuracy    <       0.00244456 Ry

     iteration #  8     ecut=   100.00 Ry     beta= 0.70
     CG style diagonalization
     ethr =  5.56E-06,  avg # of iterations =  3.7

     negative rho (up, down):  1.568E-02 0.000E+00

     total cpu time spent up to now is      411.8 secs

     total energy              =    -380.57753195 Ry
     estimated scf accuracy    <       0.00000862 Ry

     iteration #  9     ecut=   100.00 Ry     beta= 0.70
     CG style diagonalization
     c_bands:  1 eigenvalues not converged
     c_bands:  1 eigenvalues not converged
     c_bands:  1 eigenvalues not converged
     c_bands:  1 eigenvalues not converged
     c_bands:  1 eigenvalues not converged
     c_bands:  1 eigenvalues not converged
     ethr =  1.96E-08,  avg # of iterations =  8.2

     negative rho (up, down):  1.571E-02 0.000E+00

     total cpu time spent up to now is      515.9 secs

     total energy              =    -380.57758784 Ry
     estimated scf accuracy    <       0.00002066 Ry

     iteration # 10     ecut=   100.00 Ry     beta= 0.70
     CG style diagonalization
     ethr =  1.96E-08,  avg # of iterations =  3.7

     negative rho (up, down):  1.575E-02 0.000E+00

     total cpu time spent up to now is      562.9 secs

     total energy              =    -380.57758775 Ry
     estimated scf accuracy    <       0.00000908 Ry

     iteration # 11     ecut=   100.00 Ry     beta= 0.70
     CG style diagonalization
     ethr =  1.96E-08,  avg # of iterations =  3.1

     negative rho (up, down):  1.581E-02 0.000E+00

     total cpu time spent up to now is      602.4 secs

     total energy              =    -380.57758577 Ry
     estimated scf accuracy    <       0.00000584 Ry

     iteration # 12     ecut=   100.00 Ry     beta= 0.70
     CG style diagonalization
     ethr =  1.33E-08,  avg # of iterations =  4.0

     negative rho (up, down):  1.580E-02 0.000E+00

     total cpu time spent up to now is      653.3 secs

     total energy              =    -380.57758743 Ry
     estimated scf accuracy    <       0.00000072 Ry

     iteration # 13     ecut=   100.00 Ry     beta= 0.70
     CG style diagonalization
     ethr =  1.64E-09,  avg # of iterations =  6.4

     negative rho (up, down):  1.580E-02 0.000E+00

     total cpu time spent up to now is      736.1 secs

     total energy              =    -380.57758862 Ry
     estimated scf accuracy    <       0.00000002 Ry

     iteration # 14     ecut=   100.00 Ry     beta= 0.70
     CG style diagonalization
     c_bands:  1 eigenvalues not converged
     c_bands:  1 eigenvalues not converged
     c_bands:  1 eigenvalues not converged
     c_bands:  1 eigenvalues not converged
     ethr =  5.48E-11,  avg # of iterations = 10.7

     negative rho (up, down):  1.581E-02 0.000E+00

     total cpu time spent up to now is      873.3 secs

     total energy              =    -380.57758866 Ry
     estimated scf accuracy    <       0.00000001 Ry

     iteration # 15     ecut=   100.00 Ry     beta= 0.70
     CG style diagonalization
     ethr =  3.28E-11,  avg # of iterations =  4.8

     negative rho (up, down):  1.581E-02 0.000E+00

     total cpu time spent up to now is      935.3 secs

     total energy              =    -380.57758889 Ry
     estimated scf accuracy    <       0.00000001 Ry

     iteration # 16     ecut=   100.00 Ry     beta= 0.70
     CG style diagonalization
     ethr =  3.09E-11,  avg # of iterations =  3.7

     negative rho (up, down):  1.581E-02 0.000E+00

     total cpu time spent up to now is      981.5 secs

     End of self-consistent calculation

          k = 0.0000 0.0000 0.0000 (  6861 PWs)   bands (ev):

   -45.0915 -21.7744 -21.6947 -21.6904  -7.1259  -5.9651  -5.7038  -4.3427
    -4.3414  -4.3013  -4.1821  -4.0731   4.9092   6.7735   6.8052   7.1575
     8.7630   8.7702   9.0000   9.3495   9.4998   9.5062

          k = 0.0000 0.0000 0.1896 (  6840 PWs)   bands (ev):

   -45.0913 -21.7907 -21.6941 -21.6897  -6.9840  -5.9230  -5.6549  -4.3550
    -4.3538  -4.3003  -4.1739  -4.1258   4.2524   6.8143   6.8421   7.4803
     8.5739   8.5864   8.9432   9.2347   9.5912   9.5949

          k = 0.0000 0.0000 0.3792 (  6832 PWs)   bands (ev):

   -45.0909 -21.8169 -21.6930 -21.6887  -6.7372  -5.8493  -5.5818  -4.3748
    -4.3737  -4.2986  -4.2174  -4.1616   3.5821   6.8174   6.8608   6.8803
     8.3730   8.3970   8.8550   9.6852   9.6866  10.3931

          k = 0.0000 0.1423 0.0000 (  6857 PWs)   bands (ev):

   -45.0912 -21.7738 -21.7058 -21.6941  -7.0177  -5.9394  -5.6801  -4.3619
    -4.3402  -4.3126  -4.1846  -4.0635   4.5191   6.8263   6.8868   7.2277
     8.6957   8.7898   9.0132   9.2075   9.2429   9.6106

          k = 0.0000 0.1423 0.1896 (  6847 PWs)   bands (ev):

   -45.0910 -21.7900 -21.7051 -21.6934  -6.8834  -5.9055  -5.6290  -4.3648
    -4.3529  -4.3119  -4.1782  -4.0981   4.0336   6.7022   6.9299   7.5209
     8.3400   8.5782   8.9506   9.1304   9.3303   9.7965

          k = 0.0000 0.1423 0.3792 (  6853 PWs)   bands (ev):

   -45.0906 -21.8160 -21.7040 -21.6924  -6.6563  -5.8456  -5.5459  -4.3733
    -4.3667  -4.3107  -4.1790  -4.1499   3.4599   6.4520   6.9745   7.1422
     8.0766   8.3899   9.0402   9.1739   9.4334  10.5027

          k = 0.0000 0.2846 0.0000 (  6835 PWs)   bands (ev):

   -45.0906 -21.7724 -21.7401 -21.6926  -6.7584  -5.8794  -5.6352  -4.3957
    -4.3385  -4.3367  -4.1858  -4.0599   3.9283   6.6807   7.0674   7.1043
     8.5700   8.5955   8.8927   8.8957   9.3219   9.9753

          k = 0.0000 0.2846 0.1896 (  6843 PWs)   bands (ev):

   -45.0903 -21.7883 -21.7394 -21.6920  -6.6535  -5.8546  -5.5745  -4.3779
    -4.3510  -4.3376  -4.1775  -4.0590   3.6283   6.5230   7.1610   7.1656
     8.1411   8.4139   8.5898   8.9932   9.3071  10.2091

          k = 0.0000 0.2846 0.3792 (  6855 PWs)   bands (ev):

   -45.0900 -21.8140 -21.7380 -21.6909  -6.5029  -5.7959  -5.4565  -4.3725
    -4.3424  -4.3378  -4.2004  -4.0336   3.2126   6.1821   7.0026   7.2232
     7.8088   8.0912   8.2823   9.0658   9.7098  10.3284

          k = 0.0000 0.4269 0.0000 (  6800 PWs)   bands (ev):

   -45.0900 -21.7713 -21.7673 -21.6915  -6.5297  -5.8139  -5.6264  -4.4183
    -4.3577  -4.3352  -4.1669  -4.0862   3.6017   6.1848   7.3227   7.3731
     8.0085   8.1313   8.7909   8.9402   9.3740  10.8957

          k = 0.0000 0.4269 0.1896 (  6822 PWs)   bands (ev):

   -45.0898 -21.7868 -21.7668 -21.6908  -6.4738  -5.7691  -5.5581  -4.3933
    -4.3583  -4.3492  -4.1400  -4.0651   3.3775   6.1620   7.1734   7.4808
     7.5430   8.0117   8.7181   8.9490   9.2930  10.6578

          k = 0.0000 0.4269 0.3792 (  6847 PWs)   bands (ev):

   -45.0894 -21.8122 -21.7652 -21.6896  -6.4251  -5.6813  -5.3913  -4.3718
    -4.3592  -4.3461  -4.1884  -3.9586   3.0498   5.9917   6.6380   7.4441
     7.5549   7.9621   7.9705   8.9576   9.9033  10.2010

          k = 0.1429 0.0000 0.0000 (  6851 PWs)   bands (ev):

   -45.0912 -21.7737 -21.7109 -21.6897  -7.0147  -5.9381  -5.6795  -4.3608
    -4.3414  -4.3130  -4.1845  -4.0625   4.5208   6.8434   6.8555   7.2254
     8.7044   8.7810   9.0165   9.2100   9.2399   9.6100

          k = 0.1429 0.0000 0.1896 (  6842 PWs)   bands (ev):

   -45.0910 -21.7900 -21.7102 -21.6891  -6.8802  -5.9048  -5.6286  -4.3637
    -4.3541  -4.3123  -4.1795  -4.0950   4.0360   6.7191   6.9026   7.5165
     8.3389   8.5656   8.9525   9.1400   9.3287   9.7983

          k = 0.1429 0.0000 0.3792 (  6848 PWs)   bands (ev):

   -45.0906 -21.8160 -21.7090 -21.6880  -6.6525  -5.8463  -5.5456  -4.3744
    -4.3662  -4.3111  -4.1822  -4.1433   3.4630   6.4635   6.9561   7.1390
     8.0848   8.3659   9.0345   9.1874   9.4291  10.5013

          k = 0.1429 0.1423 0.0000 (  6838 PWs)   bands (ev):

   -45.0909 -21.7731 -21.7102 -21.7051  -6.9076  -5.9118  -5.6684  -4.3650
    -4.3552  -4.3198  -4.1694  -4.0535   4.2400   6.7842   6.9648   7.2935
     8.3352   8.5646   9.0683   9.0987   9.4653   9.7542

          k = 0.1429 0.1423 0.1896 (  6844 PWs)   bands (ev):

   -45.0907 -21.7892 -21.7095 -21.7044  -6.7789  -5.8878  -5.6176  -4.3699
    -4.3555  -4.3185  -4.1622  -4.0730   3.8884   6.6709   6.7461   7.5310
     8.2049   8.3427   8.8812   9.2087   9.4952   9.8162

          k = 0.1429 0.1423 0.3792 (  6843 PWs)   bands (ev):

   -45.0903 -21.8152 -21.7083 -21.7032  -6.5660  -5.8478  -5.5285  -4.3894
    -4.3295  -4.3144  -4.1618  -4.1100   3.4079   6.4799   6.5125   7.2077
     8.1203   8.1456   8.8024   9.2854   9.5344  10.3769

          k = 0.1429 0.2846 0.0000 (  6837 PWs)   bands (ev):

   -45.0903 -21.7717 -21.7393 -21.7086  -6.6524  -5.8522  -5.6523  -4.3944
    -4.3485  -4.3177  -4.1523  -4.0505   3.7490   6.6452   7.0514   7.1928
     7.9711   8.3415   8.8024   9.2173   9.4382  10.1700

          k = 0.1429 0.2846 0.1896 (  6841 PWs)   bands (ev):

   -45.0900 -21.7876 -21.7386 -21.7079  -6.5475  -5.8420  -5.5975  -4.3788
    -4.3548  -4.3076  -4.1386  -4.0392   3.5750   6.4836   6.6429   7.2444
     7.7526   8.2677   8.9070   9.1827   9.4230  10.1338

          k = 0.1429 0.2846 0.3792 (  6848 PWs)   bands (ev):

   -45.0896 -21.8132 -21.7373 -21.7068  -6.3995  -5.8153  -5.4829  -4.3778
    -4.3361  -4.2752  -4.1466  -4.0107   3.2732   6.1196   6.5497   6.8887
     7.3309   8.0816   8.9495   9.2347   9.7290  10.0308

          k = 0.1429 0.4269 0.0000 (  6831 PWs)   bands (ev):

   -45.0897 -21.7706 -21.7664 -21.7074  -6.4285  -5.7901  -5.6659  -4.4053
    -4.3393  -4.3035  -4.1380  -4.0772   3.4514   6.1980   7.1237   7.5212
     7.5634   8.1593   8.5456   9.2062   9.4778  10.6986

          k = 0.1429 0.4269 0.1896 (  6822 PWs)   bands (ev):

   -45.0895 -21.7860 -21.7659 -21.7067  -6.3668  -5.7658  -5.6086  -4.3833
    -4.3429  -4.2903  -4.1084  -4.0444   3.3588   6.1662   6.5612   7.0376
     7.6143   8.4036   8.5645   9.1943   9.4371  10.3270

          k = 0.1429 0.4269 0.3792 (  6835 PWs)   bands (ev):

   -45.0891 -21.8115 -21.7644 -21.7055  -6.3177  -5.7159  -5.4545  -4.3723
    -4.3135  -4.2659  -4.1300  -3.9383   3.1711   5.9554   6.3719   6.5818
     6.9545   8.2190   8.9065   9.0766   9.5124  10.1009

          k = 0.2857 0.0000 0.0000 (  6829 PWs)   bands (ev):

   -45.0905 -21.7724 -21.7468 -21.6882  -6.7487  -5.8753  -5.6330  -4.3946
    -4.3397  -4.3378  -4.1840  -4.0577   3.9287   6.6701   7.0648   7.0732
     8.5785   8.5815   8.8970   8.8980   9.3206   9.9785

          k = 0.2857 0.0000 0.1896 (  6838 PWs)   bands (ev):

   -45.0903 -21.7882 -21.7460 -21.6875  -6.6433  -5.8522  -5.5727  -4.3767
    -4.3520  -4.3389  -4.1784  -4.0526   3.6329   6.5207   7.1389   7.1511
     8.1381   8.4013   8.5814   8.9862   9.3163  10.2183

          k = 0.2857 0.0000 0.3792 (  6860 PWs)   bands (ev):

   -45.0899 -21.8139 -21.7447 -21.6864  -6.4920  -5.7963  -5.4550  -4.3735
    -4.3412  -4.3391  -4.2020  -4.0233   3.2214   6.1872   6.9931   7.2072
     7.7927   8.0814   8.2589   9.0539   9.7294  10.3163

          k = 0.2857 0.1423 0.0000 (  6841 PWs)   bands (ev):

   -45.0902 -21.7717 -21.7460 -21.7034  -6.6459  -5.8492  -5.6508  -4.3940
    -4.3488  -4.3180  -4.1514  -4.0492   3.7485   6.6328   7.0410   7.1853
     7.9756   8.3417   8.8059   9.2047   9.4384  10.1753

          k = 0.2857 0.1423 0.1896 (  6836 PWs)   bands (ev):

   -45.0900 -21.7875 -21.7453 -21.7027  -6.5406  -5.8401  -5.5963  -4.3784
    -4.3550  -4.3079  -4.1398  -4.0346   3.5776   6.4803   6.6304   7.2397
     7.7526   8.2570   8.8937   9.1778   9.4262  10.1425

          k = 0.2857 0.1423 0.3792 (  6844 PWs)   bands (ev):

   -45.0896 -21.8131 -21.7440 -21.7016  -6.3922  -5.8152  -5.4819  -4.3774
    -4.3363  -4.2756  -4.1496  -4.0020   3.2795   6.1240   6.5389   6.8856
     7.3184   8.0710   8.9354   9.2182   9.7460  10.0227

          k = 0.2857 0.2846 0.0000 (  6836 PWs)   bands (ev):

   -45.0896 -21.7702 -21.7442 -21.7375  -6.4090  -5.7911  -5.6887  -4.3844
    -4.3442  -4.2743  -4.0915  -4.0454   3.3767   6.6243   6.7396   7.3956
     7.5560   7.8558   8.6281   9.2017   9.7341  10.2481

          k = 0.2857 0.2846 0.1896 (  6835 PWs)   bands (ev):

   -45.0893 -21.7859 -21.7435 -21.7368  -6.3071  -5.8102  -5.6481  -4.3584
    -4.3447  -4.2469  -4.0663  -4.0075   3.4094   6.3121   6.3317   6.7986
     7.4661   7.8625   9.1187   9.3112   9.7607   9.8748

          k = 0.2857 0.2846 0.3792 (  6837 PWs)   bands (ev):

   -45.0890 -21.8113 -21.7424 -21.7355  -6.1803  -5.8403  -5.5323  -4.3412
    -4.3170  -4.1887  -4.0330  -3.9507   3.3928   5.8373   5.9735   6.4825
     7.1351   7.3321   9.0573   9.6566   9.7072   9.9228

          k = 0.2857 0.4269 0.0000 (  6858 PWs)   bands (ev):

   -45.0890 -21.7691 -21.7645 -21.7428  -6.2160  -5.7409  -5.7177  -4.3766
    -4.3222  -4.2131  -4.0730  -4.0537   3.1133   6.2162   6.7402   7.2324
     7.6988   7.9272   8.1627   9.2081   9.8716  10.1469

          k = 0.2857 0.4269 0.1896 (  6826 PWs)   bands (ev):

   -45.0888 -21.7844 -21.7640 -21.7422  -6.1267  -5.7621  -5.6996  -4.3480
    -4.3159  -4.1657  -4.0361  -3.9980   3.2490   6.1196   6.2271   6.4281
     7.2066   7.9813   8.9204   9.3586   9.5727   9.9349

          k = 0.2857 0.4269 0.3792 (  6825 PWs)   bands (ev):

   -45.0884 -21.8097 -21.7627 -21.7410  -6.0707  -5.7884  -5.5721  -4.3191
    -4.2856  -4.1017  -3.9807  -3.8908   3.4601   5.5878   5.7269   6.1588
     6.7740   7.3172   8.2908   9.7884   9.8760  10.1109

          k = 0.4286 0.0000 0.0000 (  6803 PWs)   bands (ev):

   -45.0899 -21.7763 -21.7702 -21.6870  -6.5146  -5.8061  -5.6241  -4.4171
    -4.3597  -4.3362  -4.1613  -4.0856   3.6007   6.1578   7.3162   7.3381
     8.0173   8.1219   8.7913   8.9400   9.3728  10.9093

          k = 0.4286 0.0000 0.1896 (  6814 PWs)   bands (ev):

   -45.0897 -21.7866 -21.7747 -21.6863  -6.4591  -5.7626  -5.5562  -4.3920
    -4.3603  -4.3502  -4.1398  -4.0563   3.3830   6.1379   7.1684   7.4492
     7.5367   8.0032   8.7121   8.9413   9.2955  10.6644

          k = 0.4286 0.0000 0.3792 (  6849 PWs)   bands (ev):

   -45.0893 -21.8120 -21.7732 -21.6851  -6.4124  -5.6764  -5.3892  -4.3727
    -4.3612  -4.3447  -4.1882  -3.9452   3.0633   5.9842   6.6220   7.4275
     7.5431   7.9367   7.9589   8.9426   9.8893  10.2042

          k = 0.4286 0.1423 0.0000 (  6828 PWs)   bands (ev):

   -45.0896 -21.7754 -21.7695 -21.7021  -6.4170  -5.7832  -5.6640  -4.4047
    -4.3394  -4.3040  -4.1339  -4.0773   3.4496   6.1699   7.1118   7.5097
     7.5687   8.1618   8.5444   9.1926   9.4740  10.7134

          k = 0.4286 0.1423 0.1896 (  6837 PWs)   bands (ev):

   -45.0894 -21.7859 -21.7739 -21.7014  -6.3557  -5.7597  -5.6073  -4.3827
    -4.3428  -4.2910  -4.1098  -4.0365   3.3623   6.1414   6.5483   7.0436
     7.6148   8.3840   8.5471   9.1880   9.4363  10.3331

          k = 0.4286 0.1423 0.3792 (  6832 PWs)   bands (ev):

   -45.0890 -21.8113 -21.7725 -21.7003  -6.3088  -5.7104  -5.4531  -4.3718
    -4.3131  -4.2665  -4.1328  -3.9256   3.1826   5.9508   6.3580   6.5651
     6.9523   8.2109   8.8704   9.0625   9.4991  10.1117

          k = 0.4286 0.2846 0.0000 (  6836 PWs)   bands (ev):

   -45.0890 -21.7735 -21.7680 -21.7360  -6.2123  -5.7385  -5.7146  -4.3767
    -4.3219  -4.2106  -4.0765  -4.0506   3.1118   6.1861   6.7614   7.2305
     7.6889   7.9279   8.1653   9.2062   9.8395  10.1753

          k = 0.4286 0.2846 0.1896 (  6818 PWs)   bands (ev):

   -45.0888 -21.7843 -21.7720 -21.7353  -6.1237  -5.7579  -5.6986  -4.3484
    -4.3150  -4.1640  -4.0412  -3.9916   3.2495   6.0984   6.2201   6.4405
     7.2110   7.9812   8.8987   9.3585   9.5743   9.9320

          k = 0.4286 0.2846 0.3792 (  6825 PWs)   bands (ev):

   -45.0884 -21.8096 -21.7708 -21.7342  -6.0706  -5.7817  -5.5717  -4.3197
    -4.2840  -4.1011  -3.9880  -3.8801   3.4655   5.5809   5.7352   6.1447
     6.7616   7.3268   8.2748   9.7753   9.8629  10.1194

          k = 0.4286 0.4269 0.0000 (  6836 PWs)   bands (ev):

   -45.0885 -21.7719 -21.7668 -21.7628  -6.0959  -5.7030  -5.6940  -4.3611
    -4.2747  -4.1414  -4.0933  -3.9843   2.8485   6.0547   6.4506   7.4091
     7.5122   7.8996   8.0757   8.9401   9.5078  10.3141

          k = 0.4286 0.4269 0.1896 (  6831 PWs)   bands (ev):

   -45.0882 -21.7828 -21.7705 -21.7624  -5.9602  -5.7516  -5.7411  -4.3300
    -4.2685  -4.0585  -4.0035  -3.9525   3.0969   6.0050   6.2073   6.2634
     6.6472   7.9503   8.5545   9.2678   9.2902  10.3055

          k = 0.4286 0.4269 0.3792 (  6834 PWs)   bands (ev):

   -45.0879 -21.8080 -21.7694 -21.7612  -5.8759  -5.8302  -5.6554  -4.2798
    -4.2626  -3.9568  -3.8688  -3.8581   3.6585   5.3864   5.4983   5.9342
     6.5603   6.8786   7.2191  10.1033  10.1247  10.2922

     highest occupied level (ev):    10.9093

!    total energy              =    -380.57758889 Ry
     estimated scf accuracy    <          2.0E-09 Ry

     The total energy is the sum of the following terms:
     one-electron contribution =     -79.20271718 Ry
     hartree contribution      =      69.78998957 Ry
     xc contribution           =    -102.69282536 Ry
     ewald contribution        =    -268.47203591 Ry

     convergence has been achieved in  16 iterations

     negative rho (up, down):  1.581E-02 0.000E+00

     Forces acting on atoms (cartesian axes, Ry/au):

     atom    1 type  1   force =     0.00000000    0.00000000    0.00101086
     atom    2 type  2   force =     0.00000000    0.00000000   -0.00022000
     atom    3 type  3   force =     0.00000000    0.00000000   -0.00087157
     atom    4 type  3   force =     0.00000000    0.00000000   -0.00039994
     atom    5 type  3   force =     0.00000000    0.00000000    0.00048065

     Total force =     0.001490     Total SCF correction =     0.000120


     Computing stress (Cartesian axis) and pressure


     negative rho (up, down):  1.581E-02 0.000E+00
          total   stress  (Ry/bohr**3)                   (kbar)     P=        9.49
   0.00010225   0.00000000   0.00000000           15.04        0.00        0.00
   0.00000000   0.00004961   0.00000000            0.00        7.30        0.00
   0.00000000   0.00000000   0.00004166            0.00        0.00        6.13


     BFGS Geometry Optimization
     Energy error            =      0.0E+00 Ry
     Gradient error          =      1.0E-03 Ry/Bohr

     number of scf cycles    =   1
     number of bfgs steps    =   0

     energy             new  =    -380.5775888858 Ry

     new trust radius        =       0.0010108558 bohr
     new conv_thr            =       0.0000000100 Ry


ATOMIC_POSITIONS (crystal)
Pb            0.0000000000        0.0000000000        1.0053224421
Ti            0.5000000000        0.5000000000        0.5394836538
O             0.5000000000        0.5000000000        0.0993648906
O             0.5000000000        0.0000000000        0.6114991412
O             0.0000000000        0.5000000000        0.6116141602



     Writing config-only to output data dir ./PTO2.save/
     NEW-OLD atomic charge density approx. for the potential

     Check: negative core charge=   -0.000003

     negative rho (up, down):  1.579E-02 0.000E+00

     total cpu time spent up to now is     1009.1 secs

     Self-consistent Calculation

     iteration #  1     ecut=   100.00 Ry     beta= 0.70
     CG style diagonalization
     ethr =  1.00E-06,  avg # of iterations =  2.3

     Threshold (ethr) on eigenvalues was too large:
     Diagonalizing with lowered threshold

     CG style diagonalization
     c_bands:  1 eigenvalues not converged
     c_bands:  1 eigenvalues not converged
     ethr =  1.51E-09,  avg # of iterations =  6.3

     negative rho (up, down):  1.579E-02 0.000E+00

     total cpu time spent up to now is     1130.6 secs

     total energy              =    -380.57759085 Ry
     estimated scf accuracy    <       0.00000028 Ry

     iteration #  2     ecut=   100.00 Ry     beta= 0.70
     CG style diagonalization
     ethr =  6.26E-10,  avg # of iterations =  4.8

     negative rho (up, down):  1.579E-02 0.000E+00

     total cpu time spent up to now is     1191.6 secs

     total energy              =    -380.57759083 Ry
     estimated scf accuracy    <       0.00000092 Ry

     iteration #  3     ecut=   100.00 Ry     beta= 0.70
     CG style diagonalization
     ethr =  6.26E-10,  avg # of iterations =  4.5

     negative rho (up, down):  1.579E-02 0.000E+00

     total cpu time spent up to now is     1248.1 secs

     total energy              =    -380.57759101 Ry
     estimated scf accuracy    <       0.00000003 Ry

     iteration #  4     ecut=   100.00 Ry     beta= 0.70
     CG style diagonalization
     ethr =  7.01E-11,  avg # of iterations =  4.0

     negative rho (up, down):  1.579E-02 0.000E+00

     total cpu time spent up to now is     1298.9 secs

     End of self-consistent calculation

          k = 0.0000 0.0000 0.0000 (  6861 PWs)   bands (ev):

   -45.0916 -21.7741 -21.6948 -21.6905  -7.1254  -5.9642  -5.7036  -4.3430
    -4.3417  -4.3017  -4.1821  -4.0737   4.9097   6.7739   6.8055   7.1556
     8.7641   8.7709   9.0001   9.3509   9.5002   9.5070

          k = 0.0000 0.0000 0.1896 (  6840 PWs)   bands (ev):

   -45.0914 -21.7904 -21.6941 -21.6898  -6.9834  -5.9220  -5.6548  -4.3553
    -4.3541  -4.3006  -4.1739  -4.1265   4.2526   6.8148   6.8423   7.4791
     8.5749   8.5871   8.9433   9.2355   9.5918   9.5957

          k = 0.0000 0.0000 0.3792 (  6832 PWs)   bands (ev):

   -45.0910 -21.8166 -21.6931 -21.6888  -6.7364  -5.8482  -5.5818  -4.3751
    -4.3740  -4.2989  -4.2182  -4.1617   3.5822   6.8169   6.8614   6.8803
     8.3738   8.3980   8.8552   9.6861   9.6873  10.3934

          k = 0.0000 0.1423 0.0000 (  6857 PWs)   bands (ev):

   -45.0913 -21.7734 -21.7059 -21.6941  -7.0171  -5.9384  -5.6799  -4.3622
    -4.3405  -4.3129  -4.1847  -4.0641   4.5192   6.8267   6.8871   7.2268
     8.6963   8.7906   9.0137   9.2077   9.2436   9.6113

          k = 0.0000 0.1423 0.1896 (  6847 PWs)   bands (ev):

   -45.0911 -21.7897 -21.7052 -21.6935  -6.8827  -5.9045  -5.6288  -4.3652
    -4.3532  -4.3122  -4.1783  -4.0987   4.0336   6.7027   6.9301   7.5204
     8.3407   8.5789   8.9512   9.1308   9.3310   9.7969

          k = 0.0000 0.1423 0.3792 (  6853 PWs)   bands (ev):

   -45.0907 -21.8157 -21.7041 -21.6924  -6.6555  -5.8445  -5.5459  -4.3736
    -4.3671  -4.3111  -4.1792  -4.1504   3.4598   6.4524   6.9745   7.1421
     8.0773   8.3908   9.0408   9.1743   9.4344  10.5028

          k = 0.0000 0.2846 0.0000 (  6835 PWs)   bands (ev):

   -45.0907 -21.7721 -21.7402 -21.6927  -6.7578  -5.8784  -5.6347  -4.3960
    -4.3389  -4.3370  -4.1861  -4.0605   3.9281   6.6814   7.0673   7.1048
     8.5704   8.5958   8.8935   8.8965   9.3226   9.9751

          k = 0.0000 0.2846 0.1896 (  6843 PWs)   bands (ev):

   -45.0904 -21.7880 -21.7395 -21.6920  -6.6529  -5.8535  -5.5742  -4.3783
    -4.3513  -4.3380  -4.1778  -4.0596   3.6280   6.5238   7.1612   7.1660
     8.1417   8.4143   8.5900   8.9942   9.3078  10.2089

          k = 0.0000 0.2846 0.3792 (  6855 PWs)   bands (ev):

   -45.0901 -21.8137 -21.7381 -21.6909  -6.5022  -5.7946  -5.4563  -4.3728
    -4.3429  -4.3381  -4.2007  -4.0341   3.2122   6.1828   7.0027   7.2232
     7.8094   8.0916   8.2831   9.0670   9.7105  10.3282

          k = 0.0000 0.4269 0.0000 (  6800 PWs)   bands (ev):

   -45.0901 -21.7711 -21.7674 -21.6915  -6.5293  -5.8128  -5.6258  -4.4187
    -4.3581  -4.3355  -4.1675  -4.0867   3.6013   6.1853   7.3231   7.3738
     8.0087   8.1312   8.7917   8.9413   9.3748  10.8955

          k = 0.0000 0.4269 0.1896 (  6822 PWs)   bands (ev):

   -45.0899 -21.7865 -21.7669 -21.6908  -6.4733  -5.7679  -5.5576  -4.3938
    -4.3587  -4.3495  -4.1404  -4.0657   3.3770   6.1627   7.1739   7.4815
     7.5435   8.0116   8.7184   8.9502   9.2937  10.6577

          k = 0.0000 0.4269 0.3792 (  6847 PWs)   bands (ev):

   -45.0895 -21.8119 -21.7653 -21.6897  -6.4244  -5.6800  -5.3910  -4.3721
    -4.3596  -4.3466  -4.1889  -3.9590   3.0492   5.9925   6.6383   7.4453
     7.5549   7.9627   7.9703   8.9591   9.9037  10.2012

          k = 0.1429 0.0000 0.0000 (  6851 PWs)   bands (ev):

   -45.0913 -21.7734 -21.7109 -21.6898  -7.0142  -5.9372  -5.6793  -4.3611
    -4.3417  -4.3133  -4.1846  -4.0631   4.5211   6.8437   6.8559   7.2244
     8.7048   8.7821   9.0167   9.2109   9.2409   9.6110

          k = 0.1429 0.0000 0.1896 (  6842 PWs)   bands (ev):

   -45.0911 -21.7896 -21.7102 -21.6892  -6.8795  -5.9038  -5.6284  -4.3640
    -4.3544  -4.3126  -4.1796  -4.0957   4.0361   6.7194   6.9032   7.5158
     8.3394   8.5666   8.9536   9.1403   9.3295   9.7989

          k = 0.1429 0.0000 0.3792 (  6848 PWs)   bands (ev):

   -45.0907 -21.8157 -21.7091 -21.6881  -6.6516  -5.8453  -5.5455  -4.3747
    -4.3665  -4.3115  -4.1825  -4.1439   3.4631   6.4636   6.9567   7.1386
     8.0857   8.3667   9.0356   9.1876   9.4298  10.5016

          k = 0.1429 0.1423 0.0000 (  6838 PWs)   bands (ev):

   -45.0910 -21.7728 -21.7102 -21.7052  -6.9071  -5.9108  -5.6681  -4.3653
    -4.3555  -4.3202  -4.1696  -4.0542   4.2401   6.7845   6.9650   7.2932
     8.3360   8.5653   9.0690   9.0989   9.4661   9.7551

          k = 0.1429 0.1423 0.1896 (  6844 PWs)   bands (ev):

   -45.0908 -21.7889 -21.7095 -21.7045  -6.7782  -5.8868  -5.6173  -4.3702
    -4.3558  -4.3188  -4.1624  -4.0736   3.8885   6.6711   6.7465   7.5308
     8.2057   8.3433   8.8821   9.2090   9.4960   9.8165

          k = 0.1429 0.1423 0.3792 (  6843 PWs)   bands (ev):

   -45.0904 -21.8149 -21.7084 -21.7033  -6.5652  -5.8468  -5.5284  -4.3897
    -4.3299  -4.3147  -4.1619  -4.1107   3.4079   6.4802   6.5127   7.2079
     8.1210   8.1464   8.8032   9.2859   9.5352  10.3770

          k = 0.1429 0.2846 0.0000 (  6837 PWs)   bands (ev):

   -45.0904 -21.7714 -21.7394 -21.7087  -6.6519  -5.8511  -5.6519  -4.3948
    -4.3489  -4.3180  -4.1526  -4.0511   3.7490   6.6458   7.0515   7.1931
     7.9714   8.3424   8.8027   9.2179   9.4391  10.1702

          k = 0.1429 0.2846 0.1896 (  6841 PWs)   bands (ev):

   -45.0901 -21.7873 -21.7387 -21.7080  -6.5469  -5.8409  -5.5972  -4.3792
    -4.3552  -4.3080  -4.1389  -4.0399   3.5749   6.4842   6.6434   7.2444
     7.7529   8.2685   8.9079   9.1832   9.4237  10.1338

          k = 0.1429 0.2846 0.3792 (  6848 PWs)   bands (ev):

   -45.0897 -21.8129 -21.7373 -21.7068  -6.3988  -5.8142  -5.4828  -4.3781
    -4.3365  -4.2755  -4.1469  -4.0112   3.2730   6.1202   6.5502   6.8887
     7.3314   8.0822   8.9504   9.2355   9.7296  10.0307

          k = 0.1429 0.4269 0.0000 (  6831 PWs)   bands (ev):

   -45.0898 -21.7704 -21.7665 -21.7074  -6.4281  -5.7890  -5.6654  -4.4057
    -4.3396  -4.3038  -4.1385  -4.0778   3.4513   6.1986   7.1243   7.5216
     7.5634   8.1598   8.5465   9.2070   9.4786  10.6985

          k = 0.1429 0.4269 0.1896 (  6822 PWs)   bands (ev):

   -45.0896 -21.7857 -21.7660 -21.7067  -6.3662  -5.7646  -5.6082  -4.3837
    -4.3433  -4.2906  -4.1088  -4.0449   3.3585   6.1669   6.5620   7.0375
     7.6144   8.4045   8.5654   9.1948   9.4379  10.3268

          k = 0.1429 0.4269 0.3792 (  6835 PWs)   bands (ev):

   -45.0892 -21.8111 -21.7645 -21.7056  -6.3170  -5.7147  -5.4543  -4.3726
    -4.3139  -4.2661  -4.1306  -3.9387   3.1707   5.9561   6.3729   6.5821
     6.9543   8.2197   8.9073   9.0773   9.5122  10.1016

          k = 0.2857 0.0000 0.0000 (  6829 PWs)   bands (ev):

   -45.0906 -21.7721 -21.7468 -21.6883  -6.7481  -5.8745  -5.6326  -4.3949
    -4.3401  -4.3382  -4.1845  -4.0584   3.9288   6.6707   7.0652   7.0738
     8.5800   8.5820   8.8971   8.8995   9.3217   9.9784

          k = 0.2857 0.0000 0.1896 (  6838 PWs)   bands (ev):

   -45.0904 -21.7879 -21.7461 -21.6876  -6.6426  -5.8514  -5.5724  -4.3770
    -4.3524  -4.3393  -4.1787  -4.0534   3.6330   6.5213   7.1395   7.1514
     8.1394   8.4022   8.5819   8.9871   9.3169  10.2184

          k = 0.2857 0.0000 0.3792 (  6860 PWs)   bands (ev):

   -45.0900 -21.8136 -21.7447 -21.6865  -6.4911  -5.7956  -5.4547  -4.3738
    -4.3415  -4.3394  -4.2023  -4.0240   3.2215   6.1877   6.9937   7.2079
     7.7932   8.0825   8.2599   9.0546   9.7298  10.3164

          k = 0.2857 0.1423 0.0000 (  6841 PWs)   bands (ev):

   -45.0903 -21.7714 -21.7460 -21.7035  -6.6453  -5.8483  -5.6504  -4.3944
    -4.3491  -4.3184  -4.1518  -4.0499   3.7487   6.6333   7.0414   7.1858
     7.9765   8.3426   8.8068   9.2054   9.4392  10.1755

          k = 0.2857 0.1423 0.1896 (  6836 PWs)   bands (ev):

   -45.0901 -21.7872 -21.7453 -21.7028  -6.5399  -5.8393  -5.5959  -4.3787
    -4.3554  -4.3083  -4.1401  -4.0354   3.5778   6.4808   6.6310   7.2400
     7.7538   8.2574   8.8948   9.1787   9.4268  10.1425

          k = 0.2857 0.1423 0.3792 (  6844 PWs)   bands (ev):

   -45.0897 -21.8128 -21.7440 -21.7017  -6.3914  -5.8144  -5.4817  -4.3777
    -4.3367  -4.2759  -4.1499  -4.0027   3.2797   6.1245   6.5395   6.8859
     7.3195   8.0716   8.9362   9.2192   9.7465  10.0226

          k = 0.2857 0.2846 0.0000 (  6836 PWs)   bands (ev):

   -45.0897 -21.7699 -21.7442 -21.7375  -6.4085  -5.7901  -5.6882  -4.3848
    -4.3446  -4.2747  -4.0918  -4.0461   3.3771   6.6247   6.7401   7.3961
     7.5566   7.8565   8.6287   9.2025   9.7350  10.2482

          k = 0.2857 0.2846 0.1896 (  6835 PWs)   bands (ev):

   -45.0894 -21.7856 -21.7436 -21.7368  -6.3065  -5.8092  -5.6477  -4.3588
    -4.3450  -4.2473  -4.0666  -4.0082   3.4098   6.3124   6.3323   6.7991
     7.4668   7.8628   9.1197   9.3118   9.7615   9.8746

          k = 0.2857 0.2846 0.3792 (  6837 PWs)   bands (ev):

   -45.0890 -21.8110 -21.7424 -21.7356  -6.1795  -5.8394  -5.5323  -4.3415
    -4.3174  -4.1889  -4.0332  -3.9514   3.3930   5.8375   5.9745   6.4826
     7.1357   7.3327   9.0573   9.6572   9.7080   9.9234

          k = 0.2857 0.4269 0.0000 (  6858 PWs)   bands (ev):

   -45.0891 -21.7688 -21.7645 -21.7428  -6.2158  -5.7399  -5.7169  -4.3771
    -4.3226  -4.2135  -4.0737  -4.0540   3.1138   6.2167   6.7405   7.2328
     7.6993   7.9278   8.1634   9.2087   9.8721  10.1471

          k = 0.2857 0.4269 0.1896 (  6826 PWs)   bands (ev):

   -45.0889 -21.7841 -21.7641 -21.7422  -6.1264  -5.7610  -5.6992  -4.3484
    -4.3162  -4.1660  -4.0367  -3.9984   3.2495   6.1200   6.2276   6.4281
     7.2073   7.9818   8.9208   9.3593   9.5725   9.9358

          k = 0.2857 0.4269 0.3792 (  6825 PWs)   bands (ev):

   -45.0885 -21.8094 -21.7627 -21.7411  -6.0702  -5.7873  -5.5721  -4.3194
    -4.2860  -4.1018  -3.9812  -3.8912   3.4603   5.5887   5.7274   6.1588
     6.7742   7.3184   8.2900   9.7889   9.8769  10.1116

          k = 0.4286 0.0000 0.0000 (  6803 PWs)   bands (ev):

   -45.0900 -21.7763 -21.7699 -21.6871  -6.5138  -5.8056  -5.6235  -4.4175
    -4.3601  -4.3365  -4.1622  -4.0861   3.6008   6.1587   7.3176   7.3388
     8.0184   8.1223   8.7914   8.9416   9.3740  10.9091

          k = 0.4286 0.0000 0.1896 (  6814 PWs)   bands (ev):

   -45.0898 -21.7863 -21.7747 -21.6863  -6.4582  -5.7621  -5.5558  -4.3923
    -4.3607  -4.3505  -4.1402  -4.0572   3.3832   6.1388   7.1694   7.4499
     7.5381   8.0038   8.7126   8.9425   9.2960  10.6642

          k = 0.4286 0.0000 0.3792 (  6849 PWs)   bands (ev):

   -45.0894 -21.8117 -21.7732 -21.6852  -6.4114  -5.6759  -5.3889  -4.3730
    -4.3616  -4.3451  -4.1887  -3.9460   3.0635   5.9848   6.6234   7.4289
     7.5439   7.9376   7.9588   8.9435   9.8896  10.2043

          k = 0.4286 0.1423 0.0000 (  6828 PWs)   bands (ev):

   -45.0897 -21.7754 -21.7692 -21.7022  -6.4163  -5.7826  -5.6634  -4.4050
    -4.3398  -4.3043  -4.1346  -4.0779   3.4499   6.1708   7.1126   7.5104
     7.5695   8.1626   8.5456   9.1932   9.4749  10.7132

          k = 0.4286 0.1423 0.1896 (  6837 PWs)   bands (ev):

   -45.0895 -21.7856 -21.7739 -21.7015  -6.3549  -5.7591  -5.6069  -4.3831
    -4.3432  -4.2913  -4.1102  -4.0373   3.3626   6.1423   6.5492   7.0443
     7.6155   8.3847   8.5481   9.1890   9.4369  10.3328

          k = 0.4286 0.1423 0.3792 (  6832 PWs)   bands (ev):

   -45.0891 -21.8110 -21.7725 -21.7004  -6.3078  -5.7098  -5.4530  -4.3722
    -4.3135  -4.2667  -4.1333  -3.9263   3.1828   5.9514   6.3590   6.5663
     6.9527   8.2114   8.8716   9.0633   9.4987  10.1122

          k = 0.4286 0.2846 0.0000 (  6836 PWs)   bands (ev):

   -45.0891 -21.7735 -21.7677 -21.7360  -6.2118  -5.7376  -5.7141  -4.3771
    -4.3223  -4.2112  -4.0770  -4.0512   3.1124   6.1870   6.7618   7.2309
     7.6898   7.9284   8.1661   9.2067   9.8402  10.1752

          k = 0.4286 0.2846 0.1896 (  6818 PWs)   bands (ev):

   -45.0889 -21.7840 -21.7720 -21.7354  -6.1230  -5.7573  -5.6982  -4.3488
    -4.3154  -4.1644  -4.0416  -3.9923   3.2501   6.0990   6.2208   6.4409
     7.2117   7.9815   8.8995   9.3592   9.5740   9.9328

          k = 0.4286 0.2846 0.3792 (  6825 PWs)   bands (ev):

   -45.0885 -21.8093 -21.7708 -21.7343  -6.0696  -5.7811  -5.5718  -4.3200
    -4.2844  -4.1011  -3.9884  -3.8807   3.4662   5.5816   5.7356   6.1451
     6.7626   7.3271   8.2742   9.7761   9.8638  10.1199

          k = 0.4286 0.4269 0.0000 (  6836 PWs)   bands (ev):

   -45.0886 -21.7719 -21.7666 -21.7628  -6.0959  -5.7019  -5.6933  -4.3615
    -4.2751  -4.1421  -4.0941  -3.9843   2.8494   6.0554   6.4512   7.4091
     7.5122   7.9006   8.0766   8.9405   9.5074  10.3150

          k = 0.4286 0.4269 0.1896 (  6831 PWs)   bands (ev):

   -45.0883 -21.7825 -21.7706 -21.7625  -5.9601  -5.7506  -5.7405  -4.3304
    -4.2689  -4.0590  -4.0042  -3.9527   3.0979   6.0056   6.2077   6.2638
     6.6478   7.9507   8.5540   9.2685   9.2908  10.3064

          k = 0.4286 0.4269 0.3792 (  6834 PWs)   bands (ev):

   -45.0880 -21.8077 -21.7694 -21.7613  -5.8752  -5.8295  -5.6555  -4.2802
    -4.2629  -3.9569  -3.8691  -3.8587   3.6600   5.3867   5.4985   5.9345
     6.5610   6.8791   7.2179  10.1040  10.1253  10.2931

     highest occupied level (ev):    10.9091

!    total energy              =    -380.57759101 Ry
     estimated scf accuracy    <          6.5E-09 Ry

     The total energy is the sum of the following terms:
     one-electron contribution =     -79.18576596 Ry
     hartree contribution      =      69.78109571 Ry
     xc contribution           =    -102.69234445 Ry
     ewald contribution        =    -268.48057631 Ry

     convergence has been achieved in   4 iterations

     negative rho (up, down):  1.579E-02 0.000E+00

     Forces acting on atoms (cartesian axes, Ry/au):

     atom    1 type  1   force =     0.00000000    0.00000000    0.00098178
     atom    2 type  2   force =     0.00000000    0.00000000   -0.00026883
     atom    3 type  3   force =     0.00000000    0.00000000   -0.00062294
     atom    4 type  3   force =     0.00000000    0.00000000   -0.00044516
     atom    5 type  3   force =     0.00000000    0.00000000    0.00035515

     Total force =     0.001322     Total SCF correction =     0.000190
     SCF correction compared to forces is large: reduce conv_thr to get better values


     Computing stress (Cartesian axis) and pressure


     negative rho (up, down):  1.579E-02 0.000E+00
          total   stress  (Ry/bohr**3)                   (kbar)     P=        9.01
   0.00009911   0.00000000   0.00000000           14.58        0.00        0.00
   0.00000000   0.00004701   0.00000000            0.00        6.92        0.00
   0.00000000   0.00000000   0.00003771            0.00        0.00        5.55


     BFGS Geometry Optimization
     Energy error            =      0.0E+00 Ry
     Gradient error          =      9.8E-04 Ry/Bohr

     bfgs converged in   1 scf cycles and   0 bfgs steps
     (criteria: energy <  1.0E-04 Ry, force <  1.0E-03 Ry/Bohr)

     End of BFGS Geometry Optimization

     Final energy             =    -380.5775910147 Ry
Begin final coordinates

ATOMIC_POSITIONS (crystal)
Pb            0.0000000000        0.0000000000        1.0053224421
Ti            0.5000000000        0.5000000000        0.5394836538
O             0.5000000000        0.5000000000        0.0993648906
O             0.5000000000        0.0000000000        0.6114991412
O             0.0000000000        0.5000000000        0.6116141602
End final coordinates



     Writing all to output data dir ./PTO2.save/
 
     init_run     :     16.97s CPU     17.36s WALL (       1 calls)
     electrons    :   1213.24s CPU   1252.74s WALL (       2 calls)
     update_pot   :      0.86s CPU      0.87s WALL (       1 calls)
     forces       :      6.98s CPU      7.17s WALL (       2 calls)
     stress       :     44.01s CPU     44.45s WALL (       2 calls)

     Called by init_run:
     wfcinit      :     11.98s CPU     12.26s WALL (       1 calls)
     potinit      :      0.18s CPU      0.19s WALL (       1 calls)
     hinit0       :      3.92s CPU      3.94s WALL (       1 calls)

     Called by electrons:
     c_bands      :   1100.21s CPU   1135.47s WALL (      21 calls)
     sum_band     :     97.50s CPU    100.27s WALL (      21 calls)
     v_of_rho     :      0.61s CPU      0.63s WALL (      22 calls)
     newd         :     16.03s CPU     17.50s WALL (      22 calls)
     mix_rho      :      0.33s CPU      0.36s WALL (      21 calls)

     Called by c_bands:
     init_us_2    :     27.93s CPU     28.09s WALL (    2256 calls)
     init_us_2:cp :     27.86s CPU     28.05s WALL (    2256 calls)
     ccgdiagg     :    966.64s CPU    997.98s WALL (    1008 calls)
     wfcrot       :    129.13s CPU    131.33s WALL (     912 calls)

     Called by *cgdiagg:
     h_psi        :    741.37s CPU    760.53s WALL (   83470 calls)
     s_psi        :    181.81s CPU    191.39s WALL (  166028 calls)

     Called by h_psi:
     h_psi:calbec :     94.69s CPU     97.84s WALL (   83470 calls)
     vloc_psi     :    544.73s CPU    557.20s WALL (   83470 calls)
     add_vuspsi   :     94.03s CPU     98.46s WALL (   83470 calls)
     hs_1psi      :    720.43s CPU    740.91s WALL (   82558 calls)
     s_1psi       :    183.83s CPU    190.18s WALL (   82558 calls)

     General routines
     calbec       :    185.23s CPU    194.58s WALL (  167516 calls)
     fft          :      0.23s CPU      0.24s WALL (     106 calls)
     ffts         :      0.05s CPU      0.05s WALL (      21 calls)
     fftw         :    498.52s CPU    508.15s WALL (  228284 calls)
 
     Parallel routines
 
     PWSCF        :  21m24.29s CPU  22m 6.44s WALL

 
   This run was terminated on:   8:51:29  11Apr2022            

=------------------------------------------------------------------------------=
   JOB DONE.
=------------------------------------------------------------------------------=
