
     Program PWSCF v.7.0 starts on 11Apr2022 at  8:23:41 

     This program is part of the open-source Quantum ESPRESSO suite
     for quantum simulation of materials; please cite
         "P. Giannozzi et al., J. Phys.:Condens. Matter 21 395502 (2009);
         "P. Giannozzi et al., J. Phys.:Condens. Matter 29 465901 (2017);
         "P. Giannozzi et al., J. Chem. Phys. 152 154105 (2020);
          URL http://www.quantum-espresso.org", 
     in publications or presentations arising from this work. More details at
     http://www.quantum-espresso.org/quote

     Parallel version (MPI), running on     1 processors

     MPI processes distributed on     1 nodes
     89706 MiB available memory on the printing compute node when the environment starts
 
     Waiting for input...
     Reading input from standard input
Warning: card &CELL ignored
Warning: card  CELL_DYNAMICS = 'BFGS', ignored
Warning: card  PRESS=0.1D0, ignored
Warning: card / ignored

     Current dimensions of program PWSCF are:
     Max number of different atomic species (ntypx) = 10
     Max number of k-points (npk) =  40000
     Max angular momentum in pseudopotentials (lmaxx) =  4

     File ./PTO2.update deleted, as requested

     File ./PTO2.bfgs deleted, as requested
     Message from routine setup:
     using ibrav=0 with symmetry is DISCOURAGED, use correct ibrav instead

     Subspace diagonalization in iterative solution of the eigenvalue problem:
     a serial algorithm will be used

 
     G-vector sticks info
     --------------------
     sticks:   dense  smooth     PW     G-vecs:    dense   smooth      PW
     Sum        1685    1685    481                54925    54925    8217
 
     Using Slab Decomposition
 


     bravais-lattice index     =            0
     lattice parameter (alat)  =       7.2573  a.u.
     unit-cell volume          =     406.4675 (a.u.)^3
     number of atoms/cell      =            5
     number of atomic types    =            3
     number of electrons       =        44.00
     number of Kohn-Sham states=           22
     kinetic-energy cutoff     =     100.0000  Ry
     charge density cutoff     =     400.0000  Ry
     scf convergence threshold =      1.0E-08
     mixing beta               =       0.7000
     number of iterations used =            8  plain     mixing
     energy convergence thresh.=      1.0E-04
     force convergence thresh. =      1.0E-03
     Exchange-correlation= SLA  PZ   NOGX NOGC
                           (   1   1   0   0   0   0   0)
     nstep                     =           50


     celldm(1)=   7.257304  celldm(2)=   0.000000  celldm(3)=   0.000000
     celldm(4)=   0.000000  celldm(5)=   0.000000  celldm(6)=   0.000000

     crystal axes: (cart. coord. in units of alat)
               a(1) = (   1.000000   0.000000   0.000000 )  
               a(2) = (   0.000000   1.004010   0.000000 )  
               a(3) = (   0.000000   0.000000   1.059161 )  

     reciprocal axes: (cart. coord. in units 2 pi/alat)
               b(1) = (  1.000000  0.000000  0.000000 )  
               b(2) = (  0.000000  0.996006  0.000000 )  
               b(3) = (  0.000000  0.000000  0.944144 )  


     PseudoPot. # 1 for Pb read from file:
     ./Pb_LDA.UPF
     MD5 check sum: 062a37469794d955244864f8fe2e5624
     Pseudo is Ultrasoft + core correction, Zval = 14.0
     Generated by new atomic code, or converted to UPF format
     Using radial grid of  899 points,  6 beta functions with: 
                l(1) =   0
                l(2) =   0
                l(3) =   1
                l(4) =   1
                l(5) =   2
                l(6) =   2
     Q(r) pseudized with  6 coefficients,  rinner =    1.000   1.000   1.000
                                                       1.000   1.000

     PseudoPot. # 2 for Ti read from file:
     ./Ti_LDA.UPF
     MD5 check sum: 0d9f225c038fe889ca2a701dcc8d72cb
     Pseudo is Ultrasoft + core correction, Zval = 12.0
     Generated by new atomic code, or converted to UPF format
     Using radial grid of  851 points,  6 beta functions with: 
                l(1) =   0
                l(2) =   0
                l(3) =   1
                l(4) =   1
                l(5) =   2
                l(6) =   2
     Q(r) pseudized with  6 coefficients,  rinner =    1.000   1.000   1.000
                                                       1.000   1.000

     PseudoPot. # 3 for O  read from file:
     ./O_LDA.UPF
     MD5 check sum: 194b818514d2a7dbb603bb78519a4f40
     Pseudo is Ultrasoft + core correction, Zval =  6.0
     Generated by new atomic code, or converted to UPF format
     Using radial grid of  737 points,  5 beta functions with: 
                l(1) =   0
                l(2) =   0
                l(3) =   1
                l(4) =   1
                l(5) =   2
     Q(r) pseudized with  8 coefficients,  rinner =    0.900   0.900   0.900
                                                       0.900   0.900

     atomic species   valence    mass     pseudopotential
        Pb            14.00   207.20000     Pb( 1.00)
        Ti            12.00    47.88000     Ti( 1.00)
        O              6.00    16.00000     O ( 1.00)

      4 Sym. Ops. (no inversion) found



   Cartesian axes

     site n.     atom                  positions (alat units)
         1           Pb  tau(   1) = (   0.0000000   0.0000000   1.0646580  )
         2           Ti  tau(   2) = (   0.5000000   0.5020050   0.5714302  )
         3           O   tau(   3) = (   0.5000000   0.5020050   0.1053639  )
         4           O   tau(   4) = (   0.5000000   0.0000000   0.6477311  )
         5           O   tau(   5) = (   0.0000000   0.5020050   0.6477311  )

     number of k points=    48
                       cart. coord. in units 2pi/alat
        k(    1) = (   0.0000000   0.0000000   0.0000000), wk =   0.0081633
        k(    2) = (   0.0000000   0.0000000   0.1888288), wk =   0.0163265
        k(    3) = (   0.0000000   0.0000000   0.3776576), wk =   0.0163265
        k(    4) = (   0.0000000   0.1422866   0.0000000), wk =   0.0163265
        k(    5) = (   0.0000000   0.1422866   0.1888288), wk =   0.0326531
        k(    6) = (   0.0000000   0.1422866   0.3776576), wk =   0.0326531
        k(    7) = (   0.0000000   0.2845731   0.0000000), wk =   0.0163265
        k(    8) = (   0.0000000   0.2845731   0.1888288), wk =   0.0326531
        k(    9) = (   0.0000000   0.2845731   0.3776576), wk =   0.0326531
        k(   10) = (   0.0000000   0.4268597   0.0000000), wk =   0.0163265
        k(   11) = (   0.0000000   0.4268597   0.1888288), wk =   0.0326531
        k(   12) = (   0.0000000   0.4268597   0.3776576), wk =   0.0326531
        k(   13) = (   0.1428571   0.0000000   0.0000000), wk =   0.0163265
        k(   14) = (   0.1428571   0.0000000   0.1888288), wk =   0.0326531
        k(   15) = (   0.1428571   0.0000000   0.3776576), wk =   0.0326531
        k(   16) = (   0.1428571   0.1422866   0.0000000), wk =   0.0326531
        k(   17) = (   0.1428571   0.1422866   0.1888288), wk =   0.0653061
        k(   18) = (   0.1428571   0.1422866   0.3776576), wk =   0.0653061
        k(   19) = (   0.1428571   0.2845731   0.0000000), wk =   0.0326531
        k(   20) = (   0.1428571   0.2845731   0.1888288), wk =   0.0653061
        k(   21) = (   0.1428571   0.2845731   0.3776576), wk =   0.0653061
        k(   22) = (   0.1428571   0.4268597   0.0000000), wk =   0.0326531
        k(   23) = (   0.1428571   0.4268597   0.1888288), wk =   0.0653061
        k(   24) = (   0.1428571   0.4268597   0.3776576), wk =   0.0653061
        k(   25) = (   0.2857143   0.0000000   0.0000000), wk =   0.0163265
        k(   26) = (   0.2857143   0.0000000   0.1888288), wk =   0.0326531
        k(   27) = (   0.2857143   0.0000000   0.3776576), wk =   0.0326531
        k(   28) = (   0.2857143   0.1422866   0.0000000), wk =   0.0326531
        k(   29) = (   0.2857143   0.1422866   0.1888288), wk =   0.0653061
        k(   30) = (   0.2857143   0.1422866   0.3776576), wk =   0.0653061
        k(   31) = (   0.2857143   0.2845731   0.0000000), wk =   0.0326531
        k(   32) = (   0.2857143   0.2845731   0.1888288), wk =   0.0653061
        k(   33) = (   0.2857143   0.2845731   0.3776576), wk =   0.0653061
        k(   34) = (   0.2857143   0.4268597   0.0000000), wk =   0.0326531
        k(   35) = (   0.2857143   0.4268597   0.1888288), wk =   0.0653061
        k(   36) = (   0.2857143   0.4268597   0.3776576), wk =   0.0653061
        k(   37) = (   0.4285714   0.0000000   0.0000000), wk =   0.0163265
        k(   38) = (   0.4285714   0.0000000   0.1888288), wk =   0.0326531
        k(   39) = (   0.4285714   0.0000000   0.3776576), wk =   0.0326531
        k(   40) = (   0.4285714   0.1422866   0.0000000), wk =   0.0326531
        k(   41) = (   0.4285714   0.1422866   0.1888288), wk =   0.0653061
        k(   42) = (   0.4285714   0.1422866   0.3776576), wk =   0.0653061
        k(   43) = (   0.4285714   0.2845731   0.0000000), wk =   0.0326531
        k(   44) = (   0.4285714   0.2845731   0.1888288), wk =   0.0653061
        k(   45) = (   0.4285714   0.2845731   0.3776576), wk =   0.0653061
        k(   46) = (   0.4285714   0.4268597   0.0000000), wk =   0.0326531
        k(   47) = (   0.4285714   0.4268597   0.1888288), wk =   0.0653061
        k(   48) = (   0.4285714   0.4268597   0.3776576), wk =   0.0653061

     Dense  grid:    54925 G-vectors     FFT dimensions: (  48,  48,  50)

     Estimated max dynamical RAM per process >     328.13 MB

     Check: negative core charge=   -0.000003

     Initial potential from superposition of free atoms

     starting charge      42.9982, renormalised to      44.0000

     negative rho (up, down):  1.704E-02 0.000E+00
     Starting wfcs are   31 randomized atomic wfcs

     total cpu time spent up to now is       18.5 secs

     Self-consistent Calculation

     iteration #  1     ecut=   100.00 Ry     beta= 0.70
     CG style diagonalization
     ethr =  1.00E-02,  avg # of iterations =  2.1

     negative rho (up, down):  1.431E-02 0.000E+00

     total cpu time spent up to now is       51.6 secs

     total energy              =    -380.06017564 Ry
     estimated scf accuracy    <       1.02730059 Ry

     iteration #  2     ecut=   100.00 Ry     beta= 0.70
     CG style diagonalization
     ethr =  2.33E-03,  avg # of iterations =  4.9

     negative rho (up, down):  1.503E-02 0.000E+00

     total cpu time spent up to now is      113.4 secs

     total energy              =    -379.76964348 Ry
     estimated scf accuracy    <       3.86591414 Ry

     iteration #  3     ecut=   100.00 Ry     beta= 0.70
     CG style diagonalization
     ethr =  2.33E-03,  avg # of iterations =  4.5

     negative rho (up, down):  1.562E-02 0.000E+00

     total cpu time spent up to now is      170.5 secs

     total energy              =    -380.54794619 Ry
     estimated scf accuracy    <       0.25072922 Ry

     iteration #  4     ecut=   100.00 Ry     beta= 0.70
     CG style diagonalization
     ethr =  5.70E-04,  avg # of iterations =  3.4

     negative rho (up, down):  1.565E-02 0.000E+00

     total cpu time spent up to now is      214.2 secs

     total energy              =    -380.56089973 Ry
     estimated scf accuracy    <       0.05245126 Ry

     iteration #  5     ecut=   100.00 Ry     beta= 0.70
     CG style diagonalization
     ethr =  1.19E-04,  avg # of iterations =  3.8

     negative rho (up, down):  1.565E-02 0.000E+00

     total cpu time spent up to now is      262.6 secs

     total energy              =    -380.57585218 Ry
     estimated scf accuracy    <       0.00456947 Ry

     iteration #  6     ecut=   100.00 Ry     beta= 0.70
     CG style diagonalization
     ethr =  1.04E-05,  avg # of iterations =  4.1

     negative rho (up, down):  1.564E-02 0.000E+00

     total cpu time spent up to now is      315.4 secs

     total energy              =    -380.57751439 Ry
     estimated scf accuracy    <       0.00743626 Ry

     iteration #  7     ecut=   100.00 Ry     beta= 0.70
     CG style diagonalization
     ethr =  1.04E-05,  avg # of iterations =  3.2

     negative rho (up, down):  1.565E-02 0.000E+00

     total cpu time spent up to now is      356.6 secs

     total energy              =    -380.57700819 Ry
     estimated scf accuracy    <       0.00276060 Ry

     iteration #  8     ecut=   100.00 Ry     beta= 0.70
     CG style diagonalization
     ethr =  6.27E-06,  avg # of iterations =  3.6

     negative rho (up, down):  1.567E-02 0.000E+00

     total cpu time spent up to now is      402.8 secs

     total energy              =    -380.57753458 Ry
     estimated scf accuracy    <       0.00000767 Ry

     iteration #  9     ecut=   100.00 Ry     beta= 0.70
     CG style diagonalization
     c_bands:  1 eigenvalues not converged
     c_bands:  1 eigenvalues not converged
     c_bands:  1 eigenvalues not converged
     c_bands:  1 eigenvalues not converged
     c_bands:  1 eigenvalues not converged
     c_bands:  1 eigenvalues not converged
     ethr =  1.74E-08,  avg # of iterations =  8.6

     negative rho (up, down):  1.571E-02 0.000E+00

     total cpu time spent up to now is      510.0 secs

     total energy              =    -380.57759535 Ry
     estimated scf accuracy    <       0.00001631 Ry

     iteration # 10     ecut=   100.00 Ry     beta= 0.70
     CG style diagonalization
     ethr =  1.74E-08,  avg # of iterations =  3.7

     negative rho (up, down):  1.574E-02 0.000E+00

     total cpu time spent up to now is      556.4 secs

     total energy              =    -380.57759557 Ry
     estimated scf accuracy    <       0.00000659 Ry

     iteration # 11     ecut=   100.00 Ry     beta= 0.70
     CG style diagonalization
     ethr =  1.50E-08,  avg # of iterations =  3.2

     negative rho (up, down):  1.579E-02 0.000E+00

     total cpu time spent up to now is      595.8 secs

     total energy              =    -380.57759416 Ry
     estimated scf accuracy    <       0.00000466 Ry

     iteration # 12     ecut=   100.00 Ry     beta= 0.70
     CG style diagonalization
     ethr =  1.06E-08,  avg # of iterations =  4.0

     negative rho (up, down):  1.579E-02 0.000E+00

     total cpu time spent up to now is      645.9 secs

     total energy              =    -380.57759541 Ry
     estimated scf accuracy    <       0.00000043 Ry

     iteration # 13     ecut=   100.00 Ry     beta= 0.70
     CG style diagonalization
     ethr =  9.86E-10,  avg # of iterations =  7.2

     negative rho (up, down):  1.579E-02 0.000E+00

     total cpu time spent up to now is      737.4 secs

     total energy              =    -380.57759626 Ry
     estimated scf accuracy    <       0.00000003 Ry

     iteration # 14     ecut=   100.00 Ry     beta= 0.70
     CG style diagonalization
     c_bands:  1 eigenvalues not converged
     c_bands:  1 eigenvalues not converged
     ethr =  5.99E-11,  avg # of iterations =  9.3

     negative rho (up, down):  1.580E-02 0.000E+00

     total cpu time spent up to now is      854.0 secs

     total energy              =    -380.57759643 Ry
     estimated scf accuracy    <       0.00000001 Ry

     iteration # 15     ecut=   100.00 Ry     beta= 0.70
     CG style diagonalization
     ethr =  2.65E-11,  avg # of iterations =  5.2

     negative rho (up, down):  1.580E-02 0.000E+00

     total cpu time spent up to now is      918.9 secs

     End of self-consistent calculation

          k = 0.0000 0.0000 0.0000 (  6917 PWs)   bands (ev):

   -45.1727 -21.8465 -21.7745 -21.7702  -7.1708  -6.0179  -5.7532  -4.4127
    -4.4115  -4.3707  -4.2485  -4.1496   4.8294   6.7291   6.7607   7.0904
     8.7098   8.7169   8.9353   9.2856   9.4448   9.4509

          k = 0.0000 0.0000 0.1888 (  6871 PWs)   bands (ev):

   -45.1725 -21.8620 -21.7739 -21.7695  -7.0325  -5.9769  -5.7071  -4.4245
    -4.4233  -4.3697  -4.2417  -4.2009   4.1849   6.7700   6.7977   7.4186
     8.5243   8.5368   8.8803   9.1680   9.5335   9.5371

          k = 0.0000 0.0000 0.3777 (  6868 PWs)   bands (ev):

   -45.1722 -21.8868 -21.7729 -21.7686  -6.7918  -5.9051  -5.6392  -4.4435
    -4.4424  -4.3681  -4.2901  -4.2317   3.5246   6.7831   6.8181   6.8376
     8.3244   8.3484   8.7949   9.6251   9.6266  10.3038

          k = 0.0000 0.1423 0.0000 (  6887 PWs)   bands (ev):

   -45.1724 -21.8459 -21.7855 -21.7738  -7.0628  -5.9925  -5.7292  -4.4317
    -4.4103  -4.3819  -4.2515  -4.1395   4.4492   6.7670   6.8417   7.1620
     8.6414   8.7388   8.9574   9.1505   9.1819   9.5467

          k = 0.0000 0.1423 0.1888 (  6877 PWs)   bands (ev):

   -45.1722 -21.8613 -21.7848 -21.7732  -6.9321  -5.9595  -5.6808  -4.4345
    -4.4225  -4.3812  -4.2462  -4.1730   3.9697   6.6522   6.8847   7.4559
     8.2917   8.5305   8.8937   9.0718   9.2711   9.7283

          k = 0.0000 0.1423 0.3777 (  6893 PWs)   bands (ev):

   -45.1719 -21.8860 -21.7837 -21.7722  -6.7108  -5.9012  -5.6029  -4.4420
    -4.4363  -4.3801  -4.2497  -4.2222   3.4036   6.4142   6.9310   7.0961
     8.0289   8.3426   8.9814   9.1181   9.3724  10.4164

          k = 0.0000 0.2846 0.0000 (  6867 PWs)   bands (ev):

   -45.1718 -21.8446 -21.8196 -21.7724  -6.8044  -5.9329  -5.6832  -4.4648
    -4.4082  -4.4063  -4.2540  -4.1345   3.8670   6.6178   7.0011   7.0580
     8.5114   8.5458   8.8343   8.8393   9.2566   9.9140

          k = 0.0000 0.2846 0.1888 (  6865 PWs)   bands (ev):

   -45.1716 -21.8596 -21.8189 -21.7718  -6.7032  -5.9086  -5.6251  -4.4477
    -4.4205  -4.4069  -4.2467  -4.1333   3.5696   6.4660   7.0998   7.1186
     8.0909   8.3678   8.5347   8.9347   9.2439  10.1418

          k = 0.0000 0.2846 0.3777 (  6879 PWs)   bands (ev):

   -45.1712 -21.8840 -21.8176 -21.7707  -6.5571  -5.8514  -5.5127  -4.4411
    -4.4133  -4.4070  -4.2707  -4.1077   3.1583   6.1400   6.9493   7.1778
     7.7650   8.0395   8.2359   9.0057   9.6542  10.2483

          k = 0.0000 0.4269 0.0000 (  6832 PWs)   bands (ev):

   -45.1712 -21.8477 -21.8425 -21.7713  -6.5773  -5.8670  -5.6732  -4.4871
    -4.4269  -4.4053  -4.2369  -4.1590   3.5432   6.1240   7.2597   7.3259
     7.9413   8.0784   8.7325   8.8887   9.3079  10.8310

          k = 0.0000 0.4269 0.1888 (  6846 PWs)   bands (ev):

   -45.1710 -21.8581 -21.8462 -21.7706  -6.5248  -5.8230  -5.6067  -4.4631
    -4.4275  -4.4188  -4.2112  -4.1381   3.3210   6.1018   7.1178   7.4314
     7.4908   7.9634   8.6606   8.8958   9.2232  10.5972

          k = 0.0000 0.4269 0.3777 (  6871 PWs)   bands (ev):

   -45.1707 -21.8822 -21.8448 -21.7695  -6.4789  -5.7374  -5.4463  -4.4404
    -4.4283  -4.4175  -4.2593  -4.0338   2.9965   5.9415   6.5917   7.3986
     7.5090   7.9112   7.9218   8.9029   9.8289  10.1450

          k = 0.1429 0.0000 0.0000 (  6881 PWs)   bands (ev):

   -45.1724 -21.8459 -21.7905 -21.7695  -7.0598  -5.9912  -5.7286  -4.4305
    -4.4115  -4.3823  -4.2514  -4.1384   4.4510   6.7839   6.8106   7.1596
     8.6503   8.7302   8.9607   9.1527   9.1793   9.5460

          k = 0.1429 0.0000 0.1888 (  6865 PWs)   bands (ev):

   -45.1722 -21.8612 -21.7899 -21.7689  -6.9289  -5.9588  -5.6804  -4.4334
    -4.4236  -4.3816  -4.2477  -4.1698   3.9722   6.6690   6.8576   7.4514
     8.2904   8.5180   8.8959   9.0815   9.2694   9.7300

          k = 0.1429 0.0000 0.3777 (  6886 PWs)   bands (ev):

   -45.1718 -21.8860 -21.7888 -21.7679  -6.7069  -5.9020  -5.6027  -4.4431
    -4.4358  -4.3805  -4.2531  -4.2155   3.4067   6.4257   6.9126   7.0929
     8.0369   8.3186   8.9757   9.1317   9.3681  10.4151

          k = 0.1429 0.1423 0.0000 (  6876 PWs)   bands (ev):

   -45.1721 -21.8453 -21.7899 -21.7848  -6.9529  -5.9653  -5.7174  -4.4343
    -4.4252  -4.3893  -4.2366  -4.1290   4.1760   6.7355   6.9008   7.2280
     8.2791   8.5125   9.0126   9.0385   9.4108   9.6915

          k = 0.1429 0.1423 0.1888 (  6871 PWs)   bands (ev):

   -45.1719 -21.8605 -21.7892 -21.7841  -6.8277  -5.9420  -5.6691  -4.4394
    -4.4251  -4.3879  -4.2304  -4.1478   3.8271   6.6246   6.6945   7.4667
     8.1501   8.2919   8.8306   9.1485   9.4405   9.7479

          k = 0.1429 0.1423 0.3777 (  6868 PWs)   bands (ev):

   -45.1716 -21.8851 -21.7881 -21.7830  -6.6204  -5.9033  -5.5853  -4.4583
    -4.3996  -4.3841  -4.2314  -4.1835   3.3521   6.4384   6.4759   7.1544
     8.0647   8.1006   8.7509   9.2267   9.4796  10.2939

          k = 0.1429 0.2846 0.0000 (  6869 PWs)   bands (ev):

   -45.1715 -21.8439 -21.8188 -21.7883  -6.6983  -5.9062  -5.7010  -4.4633
    -4.4184  -4.3871  -4.2201  -4.1248   3.6925   6.5863   6.9932   7.1284
     7.9142   8.2884   8.7387   9.1623   9.3765  10.1107

          k = 0.1429 0.2846 0.1888 (  6872 PWs)   bands (ev):

   -45.1712 -21.8589 -21.8181 -21.7877  -6.5971  -5.8963  -5.6484  -4.4483
    -4.4243  -4.3772  -4.2074  -4.1135   3.5183   6.4289   6.5937   7.1877
     7.6980   8.2108   8.8495   9.1255   9.3659  10.0696

          k = 0.1429 0.2846 0.3777 (  6871 PWs)   bands (ev):

   -45.1709 -21.8832 -21.8169 -21.7866  -6.4537  -5.8706  -5.5393  -4.4469
    -4.4061  -4.3459  -4.2165  -4.0849   3.2189   6.0777   6.5057   6.8440
     7.2767   8.0245   8.9052   9.1786   9.6727   9.9555

          k = 0.1429 0.4269 0.0000 (  6853 PWs)   bands (ev):

   -45.1709 -21.8468 -21.8418 -21.7871  -6.4755  -5.8439  -5.7144  -4.4740
    -4.4092  -4.3725  -4.2071  -4.1499   3.3981   6.1374   7.0695   7.4558
     7.5046   8.0958   8.4948   9.1529   9.4112  10.6304

          k = 0.1429 0.4269 0.1888 (  6861 PWs)   bands (ev):

   -45.1707 -21.8574 -21.8453 -21.7864  -6.4176  -5.8200  -5.6585  -4.4529
    -4.4124  -4.3591  -4.1795  -4.1171   3.3048   6.1064   6.5136   6.9852
     7.5596   8.3462   8.5048   9.1387   9.3739  10.2646

          k = 0.1429 0.4269 0.3777 (  6866 PWs)   bands (ev):

   -45.1704 -21.8815 -21.8440 -21.7853  -6.3715  -5.7716  -5.5103  -4.4416
    -4.3842  -4.3350  -4.2015  -4.0134   3.1180   5.9075   6.3253   6.5318
     6.9162   8.1598   8.8503   9.0309   9.4476  10.0387

          k = 0.2857 0.0000 0.0000 (  6859 PWs)   bands (ev):

   -45.1717 -21.8446 -21.8261 -21.7680  -6.7945  -5.9289  -5.6811  -4.4638
    -4.4094  -4.4075  -4.2523  -4.1323   3.8676   6.6069   6.9986   7.0270
     8.5200   8.5322   8.8387   8.8411   9.2554   9.9170

          k = 0.2857 0.0000 0.1888 (  6864 PWs)   bands (ev):

   -45.1715 -21.8596 -21.8255 -21.7673  -6.6928  -5.9063  -5.6233  -4.4464
    -4.4216  -4.4082  -4.2477  -4.1268   3.5742   6.4633   7.0901   7.0919
     8.0880   8.3553   8.5265   8.9276   9.2530  10.1511

          k = 0.2857 0.0000 0.3777 (  6881 PWs)   bands (ev):

   -45.1711 -21.8839 -21.8243 -21.7663  -6.5459  -5.8520  -5.5112  -4.4421
    -4.4121  -4.4083  -4.2724  -4.0974   3.1672   6.1449   6.9400   7.1616
     7.7491   8.0300   8.2127   8.9939   9.6729  10.2369

          k = 0.2857 0.1423 0.0000 (  6859 PWs)   bands (ev):

   -45.1714 -21.8440 -21.8253 -21.7831  -6.6916  -5.9033  -5.6996  -4.4630
    -4.4187  -4.3874  -4.2192  -4.1235   3.6921   6.5736   6.9836   7.1203
     7.9188   8.2885   8.7420   9.1499   9.3768  10.1158

          k = 0.2857 0.1423 0.1888 (  6867 PWs)   bands (ev):

   -45.1712 -21.8589 -21.8248 -21.7825  -6.5900  -5.8946  -5.6472  -4.4479
    -4.4245  -4.3774  -4.2088  -4.1088   3.5210   6.4252   6.5813   7.1831
     7.6980   8.2002   8.8362   9.1210   9.3688  10.0782

          k = 0.2857 0.1423 0.3777 (  6871 PWs)   bands (ev):

   -45.1709 -21.8831 -21.8236 -21.7814  -6.4463  -5.8706  -5.5382  -4.4465
    -4.4062  -4.3463  -4.2195  -4.0763   3.2253   6.0819   6.4951   6.8409
     7.2642   8.0142   8.8911   9.1621   9.6889   9.9481

          k = 0.2857 0.2846 0.0000 (  6858 PWs)   bands (ev):

   -45.1708 -21.8426 -21.8236 -21.8169  -6.4542  -5.8462  -5.7392  -4.4530
    -4.4139  -4.3439  -4.1585  -4.1189   3.3284   6.5664   6.6778   7.3279
     7.4965   7.8049   8.5637   9.1348   9.6813  10.1831

          k = 0.2857 0.2846 0.1888 (  6868 PWs)   bands (ev):

   -45.1706 -21.8573 -21.8231 -21.8163  -6.3567  -5.8653  -5.6997  -4.4280
    -4.4141  -4.3166  -4.1345  -4.0817   3.3582   6.2625   6.2808   6.7404
     7.4105   7.8029   9.0522   9.2473   9.7072   9.8138

          k = 0.2857 0.2846 0.3777 (  6864 PWs)   bands (ev):

   -45.1702 -21.8813 -21.8220 -21.8152  -6.2345  -5.8952  -5.5891  -4.4106
    -4.3878  -4.2592  -4.1031  -4.0258   3.3391   5.7975   5.9291   6.4394
     7.0825   7.2726   9.0003   9.5978   9.6506   9.8649

          k = 0.2857 0.4269 0.0000 (  6878 PWs)   bands (ev):

   -45.1702 -21.8448 -21.8404 -21.8221  -6.2605  -5.7960  -5.7706  -4.4452
    -4.3918  -4.2829  -4.1449  -4.1206   3.0697   6.1557   6.6793   7.1742
     7.6324   7.8775   8.0971   9.1403   9.8157  10.0705

          k = 0.2857 0.4269 0.1888 (  6855 PWs)   bands (ev):

   -45.1700 -21.8558 -21.8434 -21.8217  -6.1768  -5.8170  -5.7520  -4.4176
    -4.3854  -4.2352  -4.1075  -4.0685   3.2022   6.0663   6.1742   6.3754
     7.1500   7.9266   8.8436   9.2956   9.5092   9.8803

          k = 0.2857 0.4269 0.3777 (  6849 PWs)   bands (ev):

   -45.1697 -21.8797 -21.8422 -21.8207  -6.1249  -5.8433  -5.6290  -4.3890
    -4.3566  -4.1705  -4.0536  -3.9655   3.4078   5.5459   5.6875   6.1032
     6.7300   7.2631   8.2299   9.7320   9.8209  10.0473

          k = 0.4286 0.0000 0.0000 (  6843 PWs)   bands (ev):

   -45.1712 -21.8554 -21.8425 -21.7667  -6.5618  -5.8596  -5.6709  -4.4859
    -4.4288  -4.4063  -4.2313  -4.1584   3.5426   6.0967   7.2532   7.2908
     7.9501   8.0695   8.7332   8.8882   9.3069  10.8443

          k = 0.4286 0.0000 0.1888 (  6850 PWs)   bands (ev):

   -45.1709 -21.8583 -21.8538 -21.7661  -6.5097  -5.8169  -5.6049  -4.4617
    -4.4294  -4.4197  -4.2111  -4.1293   3.3267   6.0774   7.1131   7.3995
     7.4845   7.9552   8.6548   8.8882   9.2256  10.6036

          k = 0.4286 0.0000 0.3777 (  6872 PWs)   bands (ev):

   -45.1706 -21.8820 -21.8527 -21.7650  -6.4657  -5.7329  -5.4442  -4.4413
    -4.4303  -4.4161  -4.2592  -4.0206   3.0101   5.9330   6.5764   7.3824
     7.4965   7.8865   7.9106   8.8881   9.8129  10.1499

          k = 0.4286 0.1423 0.0000 (  6852 PWs)   bands (ev):

   -45.1709 -21.8546 -21.8419 -21.7818  -6.4637  -5.8373  -5.7126  -4.4734
    -4.4093  -4.3729  -4.2030  -4.1500   3.3967   6.1090   7.0578   7.4445
     7.5098   8.0982   8.4936   9.1394   9.4075  10.6447

          k = 0.4286 0.1423 0.1888 (  6862 PWs)   bands (ev):

   -45.1706 -21.8576 -21.8530 -21.7812  -6.4063  -5.8143  -5.6571  -4.4523
    -4.4124  -4.3597  -4.1811  -4.1091   3.3086   6.0813   6.5007   6.9915
     7.5602   8.3261   8.4880   9.1327   9.3728  10.2705

          k = 0.4286 0.1423 0.3777 (  6859 PWs)   bands (ev):

   -45.1703 -21.8813 -21.8520 -21.7801  -6.3622  -5.7664  -5.5089  -4.4412
    -4.3837  -4.3356  -4.2043  -4.0008   3.1295   5.9020   6.3116   6.5157
     6.9142   8.1520   8.8141   9.0170   9.4338  10.0498

          k = 0.4286 0.2846 0.0000 (  6864 PWs)   bands (ev):

   -45.1702 -21.8526 -21.8405 -21.8154  -6.2566  -5.7933  -5.7680  -4.4453
    -4.3916  -4.2803  -4.1483  -4.1178   3.0683   6.1253   6.7009   7.1724
     7.6225   7.8779   8.0997   9.1385   9.7829  10.0994

          k = 0.4286 0.2846 0.1888 (  6844 PWs)   bands (ev):

   -45.1700 -21.8560 -21.8512 -21.8149  -6.1735  -5.8130  -5.7510  -4.4180
    -4.3845  -4.2334  -4.1127  -4.0623   3.2027   6.0440   6.1676   6.3886
     7.1544   7.9265   8.8219   9.2958   9.5108   9.8769

          k = 0.4286 0.2846 0.3777 (  6853 PWs)   bands (ev):

   -45.1696 -21.8796 -21.8503 -21.8138  -6.1244  -5.8370  -5.6286  -4.3897
    -4.3549  -4.1698  -4.0609  -3.9549   3.4133   5.5390   5.6956   6.0888
     6.7183   7.2726   8.2138   9.7193   9.8080  10.0551

          k = 0.4286 0.4269 0.0000 (  6868 PWs)   bands (ev):

   -45.1697 -21.8511 -21.8431 -21.8383  -6.1380  -5.7591  -5.7507  -4.4296
    -4.3443  -4.2120  -4.1647  -4.0491   2.8109   5.9946   6.3881   7.3536
     7.4617   7.8350   8.0112   8.8713   9.4133  10.2595

          k = 0.4286 0.4269 0.1888 (  6864 PWs)   bands (ev):

   -45.1695 -21.8545 -21.8497 -21.8418  -6.0083  -5.8072  -5.7962  -4.3997
    -4.3383  -4.1298  -4.0767  -4.0189   3.0561   5.9465   6.1577   6.2156
     6.5903   7.8968   8.4698   9.2003   9.2242  10.2511

          k = 0.4286 0.4269 0.3777 (  6854 PWs)   bands (ev):

   -45.1691 -21.8781 -21.8489 -21.8408  -5.9304  -5.8848  -5.7126  -4.3512
    -4.3324  -4.0257  -3.9428  -3.9330   3.6089   5.3476   5.4622   5.8771
     6.4977   6.8417   7.1584  10.0390  10.0595  10.2382

     highest occupied level (ev):    10.8443

!    total energy              =    -380.57759644 Ry
     estimated scf accuracy    <          5.9E-09 Ry

     The total energy is the sum of the following terms:
     one-electron contribution =     -79.75786979 Ry
     hartree contribution      =      69.95628178 Ry
     xc contribution           =    -102.67768928 Ry
     ewald contribution        =    -268.09831915 Ry

     convergence has been achieved in  15 iterations

     negative rho (up, down):  1.580E-02 0.000E+00

     Forces acting on atoms (cartesian axes, Ry/au):

     atom    1 type  1   force =     0.00000000    0.00000000    0.00017466
     atom    2 type  2   force =     0.00000000    0.00000000   -0.00442826
     atom    3 type  3   force =     0.00000000    0.00000000    0.00387539
     atom    4 type  3   force =     0.00000000    0.00000000   -0.00024226
     atom    5 type  3   force =     0.00000000    0.00000000    0.00062047

     Total force =     0.005925     Total SCF correction =     0.000411


     Computing stress (Cartesian axis) and pressure


     negative rho (up, down):  1.580E-02 0.000E+00
          total   stress  (Ry/bohr**3)                   (kbar)     P=        1.75
   0.00006583   0.00000000   0.00000000            9.68        0.00        0.00
   0.00000000   0.00001377   0.00000000            0.00        2.02        0.00
   0.00000000   0.00000000  -0.00004400            0.00        0.00       -6.47


     BFGS Geometry Optimization
     Energy error            =      0.0E+00 Ry
     Gradient error          =      4.4E-03 Ry/Bohr

     number of scf cycles    =   1
     number of bfgs steps    =   0

     energy             new  =    -380.5775964365 Ry

     new trust radius        =       0.0044282637 bohr
     new conv_thr            =       0.0000000100 Ry


ATOMIC_POSITIONS (crystal)
Pb            0.0000000000        0.0000000000        1.0052131302
Ti            0.5000000000        0.5000000000        0.5389362915
O             0.5000000000        0.5000000000        0.0999829030
O             0.5000000000        0.0000000000        0.6115198627
O             0.0000000000        0.5000000000        0.6116321005



     Writing config-only to output data dir ./PTO2.save/
     NEW-OLD atomic charge density approx. for the potential

     Check: negative core charge=   -0.000003

     negative rho (up, down):  1.579E-02 0.000E+00

     total cpu time spent up to now is      946.5 secs

     Self-consistent Calculation

     iteration #  1     ecut=   100.00 Ry     beta= 0.70
     CG style diagonalization
     ethr =  1.00E-06,  avg # of iterations =  3.5

     Threshold (ethr) on eigenvalues was too large:
     Diagonalizing with lowered threshold

     CG style diagonalization
     c_bands:  1 eigenvalues not converged
     c_bands:  1 eigenvalues not converged
     c_bands:  1 eigenvalues not converged
     c_bands:  1 eigenvalues not converged
     c_bands:  1 eigenvalues not converged
     c_bands:  1 eigenvalues not converged
     c_bands:  1 eigenvalues not converged
     c_bands:  1 eigenvalues not converged
     c_bands:  1 eigenvalues not converged
     c_bands:  1 eigenvalues not converged
     c_bands:  1 eigenvalues not converged
     c_bands:  2 eigenvalues not converged
     c_bands:  1 eigenvalues not converged
     c_bands:  2 eigenvalues not converged
     c_bands:  1 eigenvalues not converged
     c_bands:  1 eigenvalues not converged
     c_bands:  2 eigenvalues not converged
     ethr =  3.10E-08,  avg # of iterations =  6.1

     negative rho (up, down):  1.579E-02 0.000E+00

     total cpu time spent up to now is     1075.6 secs

     total energy              =    -380.57761471 Ry
     estimated scf accuracy    <       0.00001396 Ry

     iteration #  2     ecut=   100.00 Ry     beta= 0.70
     CG style diagonalization
     ethr =  3.17E-08,  avg # of iterations =  4.6

     negative rho (up, down):  1.579E-02 0.000E+00

     total cpu time spent up to now is     1133.4 secs

     total energy              =    -380.57761453 Ry
     estimated scf accuracy    <       0.00002957 Ry

     iteration #  3     ecut=   100.00 Ry     beta= 0.70
     CG style diagonalization
     ethr =  3.17E-08,  avg # of iterations =  4.3

     negative rho (up, down):  1.579E-02 0.000E+00

     total cpu time spent up to now is     1187.6 secs

     total energy              =    -380.57762064 Ry
     estimated scf accuracy    <       0.00000286 Ry

     iteration #  4     ecut=   100.00 Ry     beta= 0.70
     CG style diagonalization
     ethr =  6.49E-09,  avg # of iterations =  3.6

     negative rho (up, down):  1.579E-02 0.000E+00

     total cpu time spent up to now is     1234.0 secs

     total energy              =    -380.57762118 Ry
     estimated scf accuracy    <       0.00000027 Ry

     iteration #  5     ecut=   100.00 Ry     beta= 0.70
     CG style diagonalization
     ethr =  6.07E-10,  avg # of iterations =  4.2

     negative rho (up, down):  1.579E-02 0.000E+00

     total cpu time spent up to now is     1286.2 secs

     total energy              =    -380.57762132 Ry
     estimated scf accuracy    <       0.00000002 Ry

     iteration #  6     ecut=   100.00 Ry     beta= 0.70
     CG style diagonalization
     ethr =  5.55E-11,  avg # of iterations =  5.1

     negative rho (up, down):  1.579E-02 0.000E+00

     total cpu time spent up to now is     1349.9 secs

     total energy              =    -380.57762134 Ry
     estimated scf accuracy    <       0.00000002 Ry

     iteration #  7     ecut=   100.00 Ry     beta= 0.70
     CG style diagonalization
     ethr =  4.19E-11,  avg # of iterations =  3.6

     negative rho (up, down):  1.579E-02 0.000E+00

     total cpu time spent up to now is     1395.1 secs

     End of self-consistent calculation

          k = 0.0000 0.0000 0.0000 (  6917 PWs)   bands (ev):

   -45.1630 -21.8432 -21.7642 -21.7600  -7.1685  -6.0135  -5.7561  -4.4140
    -4.4128  -4.3726  -4.2504  -4.1502   4.8275   6.7309   6.7624   7.0950
     8.6904   8.6970   8.9358   9.2707   9.4486   9.4551

          k = 0.0000 0.0000 0.1888 (  6871 PWs)   bands (ev):

   -45.1627 -21.8587 -21.7636 -21.7593  -7.0295  -5.9723  -5.7106  -4.4258
    -4.4246  -4.3716  -4.2437  -4.2017   4.1813   6.7696   6.7970   7.4224
     8.5108   8.5230   8.8807   9.1600   9.5366   9.5405

          k = 0.0000 0.0000 0.3777 (  6868 PWs)   bands (ev):

   -45.1624 -21.8836 -21.7626 -21.7584  -6.7870  -5.9003  -5.6440  -4.4447
    -4.4436  -4.3700  -4.2911  -4.2339   3.5183   6.7859   6.8133   6.8320
     8.3190   8.3432   8.7951   9.6286   9.6300  10.3043

          k = 0.0000 0.1423 0.0000 (  6887 PWs)   bands (ev):

   -45.1627 -21.8426 -21.7753 -21.7636  -7.0606  -5.9882  -5.7322  -4.4330
    -4.4116  -4.3838  -4.2533  -4.1401   4.4480   6.7690   6.8437   7.1634
     8.6321   8.7191   8.9549   9.1539   9.1768   9.5412

          k = 0.0000 0.1423 0.1888 (  6877 PWs)   bands (ev):

   -45.1625 -21.8580 -21.7746 -21.7630  -6.9292  -5.9551  -5.6844  -4.4359
    -4.4237  -4.3831  -4.2481  -4.1736   3.9669   6.6518   6.8844   7.4577
     8.2854   8.5175   8.8922   9.0679   9.2733   9.7276

          k = 0.0000 0.1423 0.3777 (  6893 PWs)   bands (ev):

   -45.1621 -21.8828 -21.7735 -21.7620  -6.7062  -5.8967  -5.6079  -4.4432
    -4.4377  -4.3820  -4.2515  -4.2231   3.3984   6.4103   6.9257   7.0993
     8.0262   8.3375   8.9850   9.1142   9.3757  10.4182

          k = 0.0000 0.2846 0.0000 (  6867 PWs)   bands (ev):

   -45.1620 -21.8412 -21.8095 -21.7621  -6.8024  -5.9291  -5.6864  -4.4663
    -4.4098  -4.4079  -4.2553  -4.1352   3.8661   6.6203   7.0013   7.0609
     8.5117   8.5478   8.8200   8.8354   9.2476   9.9085

          k = 0.0000 0.2846 0.1888 (  6865 PWs)   bands (ev):

   -45.1618 -21.8563 -21.8087 -21.7615  -6.7003  -5.9050  -5.6290  -4.4492
    -4.4218  -4.4088  -4.2482  -4.1338   3.5678   6.4668   7.1001   7.1194
     8.0922   8.3621   8.5328   8.9284   9.2405  10.1393

          k = 0.0000 0.2846 0.3777 (  6879 PWs)   bands (ev):

   -45.1614 -21.8807 -21.8075 -21.7604  -6.5527  -5.8477  -5.5180  -4.4423
    -4.4148  -4.4089  -4.2723  -4.1081   3.1552   6.1355   6.9541   7.1733
     7.7654   8.0436   8.2330   9.0061   9.6467  10.2504

          k = 0.0000 0.4269 0.0000 (  6832 PWs)   bands (ev):

   -45.1615 -21.8402 -21.8365 -21.7610  -6.5751  -5.8639  -5.6767  -4.4885
    -4.4287  -4.4065  -4.2377  -4.1601   3.5420   6.1301   7.2582   7.3304
     7.9445   8.0806   8.7337   8.8673   9.2980  10.8265

          k = 0.0000 0.4269 0.1888 (  6846 PWs)   bands (ev):

   -45.1613 -21.8548 -21.8360 -21.7603  -6.5216  -5.8200  -5.6113  -4.4644
    -4.4293  -4.4200  -4.2125  -4.1386   3.3196   6.1070   7.1175   7.4346
     7.4911   7.9610   8.6588   8.8834   9.2223  10.5923

          k = 0.0000 0.4269 0.3777 (  6871 PWs)   bands (ev):

   -45.1609 -21.8790 -21.8346 -21.7592  -6.4746  -5.7342  -5.4522  -4.4416
    -4.4302  -4.4188  -4.2607  -4.0340   2.9948   5.9409   6.5936   7.4004
     7.5044   7.9120   7.9261   8.8992   9.8278  10.1382

          k = 0.1429 0.0000 0.0000 (  6881 PWs)   bands (ev):

   -45.1627 -21.8426 -21.7803 -21.7593  -7.0576  -5.9870  -5.7316  -4.4319
    -4.4127  -4.3842  -4.2532  -4.1390   4.4499   6.7859   6.8127   7.1608
     8.6408   8.7111   8.9578   9.1566   9.1747   9.5406

          k = 0.1429 0.0000 0.1888 (  6865 PWs)   bands (ev):

   -45.1624 -21.8580 -21.7796 -21.7587  -6.9259  -5.9545  -5.6840  -4.4347
    -4.4249  -4.3835  -4.2495  -4.1706   3.9695   6.6684   6.8576   7.4530
     8.2840   8.5053   8.8949   9.0773   9.2718   9.7294

          k = 0.1429 0.0000 0.3777 (  6886 PWs)   bands (ev):

   -45.1621 -21.8827 -21.7785 -21.7577  -6.7023  -5.8976  -5.6076  -4.4443
    -4.4371  -4.3824  -4.2549  -4.2166   3.4017   6.4217   6.9081   7.0957
     8.0344   8.3135   8.9796   9.1276   9.3713  10.4170

          k = 0.1429 0.1423 0.0000 (  6876 PWs)   bands (ev):

   -45.1624 -21.8419 -21.7796 -21.7746  -6.9509  -5.9611  -5.7204  -4.4356
    -4.4266  -4.3910  -4.2384  -4.1297   4.1754   6.7382   6.9032   7.2266
     8.2653   8.5134   9.0022   9.0375   9.4158   9.6792

          k = 0.1429 0.1423 0.1888 (  6871 PWs)   bands (ev):

   -45.1621 -21.8573 -21.7789 -21.7739  -6.8250  -5.9378  -5.6728  -4.4408
    -4.4264  -4.3897  -4.2322  -4.1484   3.8250   6.6240   6.6949   7.4662
     8.1439   8.2921   8.8208   9.1462   9.4443   9.7449

          k = 0.1429 0.1423 0.3777 (  6868 PWs)   bands (ev):

   -45.1618 -21.8819 -21.7779 -21.7728  -6.6161  -5.8990  -5.5904  -4.4598
    -4.4011  -4.3856  -4.2334  -4.1841   3.3478   6.4339   6.4729   7.1587
     8.0654   8.0974   8.7468   9.2245   9.4825  10.2959

          k = 0.1429 0.2846 0.0000 (  6869 PWs)   bands (ev):

   -45.1617 -21.8405 -21.8086 -21.7780  -6.6967  -5.9025  -5.7040  -4.4647
    -4.4198  -4.3889  -4.2217  -4.1255   3.6922   6.5903   6.9912   7.1315
     7.9143   8.2751   8.7409   9.1591   9.3754  10.1019

          k = 0.1429 0.2846 0.1888 (  6872 PWs)   bands (ev):

   -45.1615 -21.8556 -21.8079 -21.7774  -6.5946  -5.8927  -5.6522  -4.4498
    -4.4257  -4.3789  -4.2090  -4.1141   3.5172   6.4296   6.5939   7.1886
     7.6963   8.2098   8.8459   9.1229   9.3636  10.0666

          k = 0.1429 0.2846 0.3777 (  6871 PWs)   bands (ev):

   -45.1611 -21.8799 -21.8067 -21.7763  -6.4497  -5.8670  -5.5445  -4.4484
    -4.4076  -4.3474  -4.2182  -4.0853   3.2162   6.0735   6.5050   6.8464
     7.2801   8.0271   8.8964   9.1831   9.6660   9.9575

          k = 0.1429 0.4269 0.0000 (  6853 PWs)   bands (ev):

   -45.1612 -21.8395 -21.8356 -21.7768  -6.4740  -5.8408  -5.7172  -4.4753
    -4.4105  -4.3744  -4.2082  -4.1509   3.3977   6.1437   7.0667   7.4614
     7.5055   8.1000   8.4762   9.1536   9.4059  10.6263

          k = 0.1429 0.4269 0.1888 (  6861 PWs)   bands (ev):

   -45.1610 -21.8541 -21.8352 -21.7762  -6.4150  -5.8171  -5.6624  -4.4542
    -4.4137  -4.3612  -4.1808  -4.1177   3.3040   6.1115   6.5143   6.9847
     7.5587   8.3452   8.5044   9.1308   9.3739  10.2601

          k = 0.1429 0.4269 0.3777 (  6866 PWs)   bands (ev):

   -45.1606 -21.8782 -21.8338 -21.7751  -6.3676  -5.7686  -5.5158  -4.4431
    -4.3855  -4.3372  -4.2027  -4.0137   3.1166   5.9059   6.3277   6.5345
     6.9153   8.1642   8.8533   9.0228   9.4473  10.0322

          k = 0.2857 0.0000 0.0000 (  6859 PWs)   bands (ev):

   -45.1620 -21.8412 -21.8160 -21.7578  -6.7925  -5.9254  -5.6843  -4.4651
    -4.4109  -4.4091  -4.2538  -4.1331   3.8671   6.6094   6.9993   7.0300
     8.5213   8.5341   8.8230   8.8392   9.2469   9.9117

          k = 0.2857 0.0000 0.1888 (  6864 PWs)   bands (ev):

   -45.1617 -21.8563 -21.8153 -21.7571  -6.6899  -5.9029  -5.6272  -4.4478
    -4.4228  -4.4100  -4.2492  -4.1276   3.5729   6.4643   7.0905   7.0930
     8.0900   8.3501   8.5250   8.9214   9.2495  10.1486

          k = 0.2857 0.0000 0.3777 (  6881 PWs)   bands (ev):

   -45.1614 -21.8806 -21.8141 -21.7561  -6.5415  -5.8487  -5.5164  -4.4433
    -4.4134  -4.4102  -4.2740  -4.0980   3.1646   6.1402   6.9452   7.1580
     7.7493   8.0347   8.2099   8.9938   9.6654  10.2392

          k = 0.2857 0.1423 0.0000 (  6859 PWs)   bands (ev):

   -45.1617 -21.8406 -21.8152 -21.7729  -6.6900  -5.8997  -5.7025  -4.4643
    -4.4201  -4.3892  -4.2209  -4.1243   3.6921   6.5776   6.9820   7.1236
     7.9197   8.2748   8.7452   9.1467   9.3754  10.1071

          k = 0.2857 0.1423 0.1888 (  6867 PWs)   bands (ev):

   -45.1614 -21.8556 -21.8145 -21.7723  -6.5875  -5.8912  -5.6509  -4.4493
    -4.4259  -4.3792  -4.2104  -4.1095   3.5202   6.4260   6.5815   7.1843
     7.6971   8.1991   8.8330   9.1185   9.3664  10.0751

          k = 0.2857 0.1423 0.3777 (  6871 PWs)   bands (ev):

   -45.1611 -21.8799 -21.8133 -21.7712  -6.4422  -5.8673  -5.5435  -4.4480
    -4.4078  -4.3477  -4.2212  -4.0769   3.2229   6.0776   6.4945   6.8436
     7.2683   8.0166   8.8823   9.1668   9.6822   9.9500

          k = 0.2857 0.2846 0.0000 (  6858 PWs)   bands (ev):

   -45.1610 -21.8391 -21.8134 -21.8068  -6.4538  -5.8428  -5.7412  -4.4542
    -4.4154  -4.3455  -4.1605  -4.1196   3.3291   6.5726   6.6789   7.3319
     7.4919   7.7902   8.5730   9.1312   9.6837  10.1763

          k = 0.2857 0.2846 0.1888 (  6868 PWs)   bands (ev):

   -45.1608 -21.8539 -21.8128 -21.8061  -6.3551  -5.8619  -5.7030  -4.4292
    -4.4157  -4.3184  -4.1364  -4.0823   3.3583   6.2628   6.2802   6.7431
     7.4116   7.8030   9.0480   9.2470   9.7088   9.8086

          k = 0.2857 0.2846 0.3777 (  6864 PWs)   bands (ev):

   -45.1604 -21.8780 -21.8117 -21.8050  -6.2311  -5.8920  -5.5941  -4.4122
    -4.3891  -4.2611  -4.1049  -4.0262   3.3377   5.7948   5.9304   6.4389
     7.0865   7.2796   8.9965   9.5921   9.6541   9.8603

          k = 0.2857 0.4269 0.0000 (  6878 PWs)   bands (ev):

   -45.1605 -21.8380 -21.8336 -21.8120  -6.2617  -5.7935  -5.7706  -4.4464
    -4.3934  -4.2844  -4.1460  -4.1226   3.0706   6.1617   6.6849   7.1676
     7.6368   7.8618   8.1039   9.1395   9.8162  10.0707

          k = 0.2857 0.4269 0.1888 (  6855 PWs)   bands (ev):

   -45.1603 -21.8524 -21.8332 -21.8115  -6.1761  -5.8144  -5.7541  -4.4189
    -4.3870  -4.2371  -4.1088  -4.0698   3.2029   6.0685   6.1753   6.3765
     7.1527   7.9254   8.8446   9.2914   9.5037   9.8833

          k = 0.2857 0.4269 0.3777 (  6849 PWs)   bands (ev):

   -45.1599 -21.8764 -21.8320 -21.8104  -6.1219  -5.8404  -5.6337  -4.3906
    -4.3579  -4.1732  -4.0547  -3.9661   3.4077   5.5476   5.6843   6.1070
     6.7327   7.2694   8.2282   9.7253   9.8240  10.0419

          k = 0.4286 0.0000 0.0000 (  6843 PWs)   bands (ev):

   -45.1614 -21.8454 -21.8391 -21.7565  -6.5595  -5.8570  -5.6744  -4.4872
    -4.4307  -4.4075  -4.2325  -4.1595   3.5419   6.1035   7.2528   7.2955
     7.9541   8.0721   8.7336   8.8675   9.2975  10.8396

          k = 0.4286 0.0000 0.1888 (  6850 PWs)   bands (ev):

   -45.1612 -21.8547 -21.8438 -21.7559  -6.5064  -5.8144  -5.6095  -4.4629
    -4.4313  -4.4209  -4.2124  -4.1301   3.3259   6.0831   7.1132   7.4032
     7.4856   7.9534   8.6532   8.8757   9.2246  10.5985

          k = 0.4286 0.0000 0.3777 (  6872 PWs)   bands (ev):

   -45.1608 -21.8788 -21.8424 -21.7548  -6.4613  -5.7303  -5.4501  -4.4425
    -4.4322  -4.4173  -4.2605  -4.0212   3.0092   5.9329   6.5790   7.3841
     7.4934   7.8871   7.9148   8.8838   9.8131  10.1420

          k = 0.4286 0.1423 0.0000 (  6852 PWs)   bands (ev):

   -45.1611 -21.8445 -21.8384 -21.7716  -6.4621  -5.8346  -5.7153  -4.4746
    -4.4106  -4.3749  -4.2044  -4.1510   3.3967   6.1159   7.0554   7.4500
     7.5120   8.1026   8.4752   9.1398   9.4024  10.6406

          k = 0.4286 0.1423 0.1888 (  6862 PWs)   bands (ev):

   -45.1609 -21.8540 -21.8430 -21.7710  -6.4034  -5.8119  -5.6611  -4.4536
    -4.4136  -4.3619  -4.1823  -4.1100   3.3083   6.0870   6.5016   6.9916
     7.5598   8.3257   8.4873   9.1252   9.3726  10.2658

          k = 0.4286 0.1423 0.3777 (  6859 PWs)   bands (ev):

   -45.1605 -21.8780 -21.8417 -21.7699  -6.3581  -5.7639  -5.5144  -4.4426
    -4.3850  -4.3378  -4.2054  -4.0014   3.1288   5.9008   6.3140   6.5191
     6.9137   8.1560   8.8175   9.0090   9.4337  10.0428

          k = 0.4286 0.2846 0.0000 (  6864 PWs)   bands (ev):

   -45.1604 -21.8426 -21.8369 -21.8053  -6.2576  -5.7913  -5.7678  -4.4465
    -4.3931  -4.2820  -4.1492  -4.1199   3.0694   6.1320   6.7064   7.1658
     7.6274   7.8624   8.1065   9.1375   9.7834  10.0994

          k = 0.4286 0.2846 0.1888 (  6844 PWs)   bands (ev):

   -45.1602 -21.8524 -21.8412 -21.8047  -6.1726  -5.8108  -5.7531  -4.4192
    -4.3861  -4.2354  -4.1138  -4.0638   3.2037   6.0471   6.1688   6.3897
     7.1570   7.9250   8.8236   9.2914   9.5051   9.8800

          k = 0.4286 0.2846 0.3777 (  6853 PWs)   bands (ev):

   -45.1599 -21.8763 -21.8400 -21.8036  -6.1212  -5.8346  -5.6334  -4.3912
    -4.3563  -4.1725  -4.0618  -3.9557   3.4137   5.5405   5.6924   6.0932
     6.7215   7.2779   8.2123   9.7129   9.8111  10.0497

          k = 0.4286 0.4269 0.0000 (  6868 PWs)   bands (ev):

   -45.1599 -21.8410 -21.8358 -21.8320  -6.1422  -5.7568  -5.7481  -4.4308
    -4.3460  -4.2129  -4.1654  -4.0522   2.8126   5.9995   6.3984   7.3445
     7.4499   7.8387   8.0170   8.8706   9.4145  10.2635

          k = 0.4286 0.4269 0.1888 (  6864 PWs)   bands (ev):

   -45.1597 -21.8509 -21.8397 -21.8317  -6.0113  -5.8046  -5.7953  -4.4008
    -4.3400  -4.1310  -4.0772  -4.0219   3.0579   5.9506   6.1589   6.2137
     6.5962   7.8962   8.4711   9.1970   9.2197  10.2552

          k = 0.4286 0.4269 0.3777 (  6854 PWs)   bands (ev):

   -45.1594 -21.8748 -21.8387 -21.8306  -5.9280  -5.8824  -5.7170  -4.3524
    -4.3342  -4.0286  -3.9437  -3.9339   3.6111   5.3467   5.4601   5.8811
     6.5082   6.8420   7.1576  10.0330  10.0543  10.2421

     highest occupied level (ev):    10.8396

!    total energy              =    -380.57762134 Ry
     estimated scf accuracy    <          4.1E-09 Ry

     The total energy is the sum of the following terms:
     one-electron contribution =     -79.78115269 Ry
     hartree contribution      =      69.97044474 Ry
     xc contribution           =    -102.67969005 Ry
     ewald contribution        =    -268.08722334 Ry

     convergence has been achieved in   7 iterations

     negative rho (up, down):  1.579E-02 0.000E+00

     Forces acting on atoms (cartesian axes, Ry/au):

     atom    1 type  1   force =     0.00000000    0.00000000   -0.00017362
     atom    2 type  2   force =     0.00000000    0.00000000   -0.00184565
     atom    3 type  3   force =     0.00000000    0.00000000    0.00134503
     atom    4 type  3   force =     0.00000000    0.00000000   -0.00005625
     atom    5 type  3   force =     0.00000000    0.00000000    0.00073049

     Total force =     0.002405     Total SCF correction =     0.000176


     Computing stress (Cartesian axis) and pressure


     negative rho (up, down):  1.579E-02 0.000E+00
          total   stress  (Ry/bohr**3)                   (kbar)     P=        2.70
   0.00006445   0.00000000   0.00000000            9.48        0.00        0.00
   0.00000000   0.00001293   0.00000000            0.00        1.90        0.00
   0.00000000   0.00000000  -0.00002227            0.00        0.00       -3.28

     Energy error            =      3.2E-05 Ry
     Gradient error          =      1.8E-03 Ry/Bohr

     number of scf cycles    =   2
     number of bfgs steps    =   1

     energy             old  =    -380.5775888858 Ry
     energy             new  =    -380.5776213386 Ry

     CASE: energy            _new < energy            _old


     WARNING: bfgs curvature condition failed, Theta= 0.552
     uphill step: resetting bfgs history

     new trust radius        =       0.0018456516 bohr
     new conv_thr            =            1.0E-10 Ry


ATOMIC_POSITIONS (crystal)
Pb            0.0000000000        0.0000000000        1.0051905434
Ti            0.5000000000        0.5000000000        0.5386961802
O             0.5000000000        0.5000000000        0.1001578854
O             0.5000000000        0.0000000000        0.6115125444
O             0.0000000000        0.5000000000        0.6117271345



     Writing config-only to output data dir ./PTO2.save/
     NEW-OLD atomic charge density approx. for the potential

     Check: negative core charge=   -0.000003

     negative rho (up, down):  1.580E-02 0.000E+00

     total cpu time spent up to now is     1422.9 secs

     Self-consistent Calculation

     iteration #  1     ecut=   100.00 Ry     beta= 0.70
     CG style diagonalization
     ethr =  1.00E-06,  avg # of iterations =  2.8

     Threshold (ethr) on eigenvalues was too large:
     Diagonalizing with lowered threshold

     CG style diagonalization
     c_bands:  2 eigenvalues not converged
     c_bands:  1 eigenvalues not converged
     c_bands:  1 eigenvalues not converged
     c_bands:  1 eigenvalues not converged
     c_bands:  1 eigenvalues not converged
     c_bands:  2 eigenvalues not converged
     c_bands:  1 eigenvalues not converged
     c_bands:  1 eigenvalues not converged
     c_bands:  1 eigenvalues not converged
     c_bands:  1 eigenvalues not converged
     c_bands:  1 eigenvalues not converged
     c_bands:  2 eigenvalues not converged
     c_bands:  1 eigenvalues not converged
     c_bands:  1 eigenvalues not converged
     c_bands:  1 eigenvalues not converged
     c_bands:  1 eigenvalues not converged
     c_bands:  1 eigenvalues not converged
     c_bands:  1 eigenvalues not converged
     c_bands:  1 eigenvalues not converged
     c_bands:  1 eigenvalues not converged
     c_bands:  2 eigenvalues not converged
     c_bands:  1 eigenvalues not converged
     c_bands:  1 eigenvalues not converged
     ethr =  4.88E-09,  avg # of iterations =  6.9

     negative rho (up, down):  1.580E-02 0.000E+00

     total cpu time spent up to now is     1554.5 secs

     total energy              =    -380.57762415 Ry
     estimated scf accuracy    <       0.00000249 Ry

     iteration #  2     ecut=   100.00 Ry     beta= 0.70
     CG style diagonalization
     ethr =  5.65E-09,  avg # of iterations =  4.6

     negative rho (up, down):  1.580E-02 0.000E+00

     total cpu time spent up to now is     1612.7 secs

     total energy              =    -380.57762396 Ry
     estimated scf accuracy    <       0.00000702 Ry

     iteration #  3     ecut=   100.00 Ry     beta= 0.70
     CG style diagonalization
     ethr =  5.65E-09,  avg # of iterations =  4.4

     negative rho (up, down):  1.580E-02 0.000E+00

     total cpu time spent up to now is     1667.9 secs

     total energy              =    -380.57762529 Ry
     estimated scf accuracy    <       0.00000032 Ry

     iteration #  4     ecut=   100.00 Ry     beta= 0.70
     CG style diagonalization
     ethr =  7.24E-10,  avg # of iterations =  3.8

     negative rho (up, down):  1.580E-02 0.000E+00

     total cpu time spent up to now is     1716.0 secs

     total energy              =    -380.57762537 Ry
     estimated scf accuracy    <       0.00000005 Ry

     iteration #  5     ecut=   100.00 Ry     beta= 0.70
     CG style diagonalization
     ethr =  1.07E-10,  avg # of iterations =  4.4

     negative rho (up, down):  1.580E-02 0.000E+00

     total cpu time spent up to now is     1770.8 secs

     total energy              =    -380.57762540 Ry
     estimated scf accuracy    <          5.2E-09 Ry

     iteration #  6     ecut=   100.00 Ry     beta= 0.70
     CG style diagonalization
     ethr =  1.19E-11,  avg # of iterations =  4.6

     negative rho (up, down):  1.580E-02 0.000E+00

     total cpu time spent up to now is     1828.2 secs

     total energy              =    -380.57762540 Ry
     estimated scf accuracy    <          1.9E-09 Ry

     iteration #  7     ecut=   100.00 Ry     beta= 0.70
     CG style diagonalization
     ethr =  4.22E-12,  avg # of iterations =  4.7

     negative rho (up, down):  1.580E-02 0.000E+00

     total cpu time spent up to now is     1887.9 secs

     total energy              =    -380.57762540 Ry
     estimated scf accuracy    <          9.3E-10 Ry

     iteration #  8     ecut=   100.00 Ry     beta= 0.70
     CG style diagonalization
     ethr =  2.12E-12,  avg # of iterations =  4.3

     negative rho (up, down):  1.580E-02 0.000E+00

     total cpu time spent up to now is     1941.5 secs

     End of self-consistent calculation

          k = 0.0000 0.0000 0.0000 (  6917 PWs)   bands (ev):

   -45.1597 -21.8424 -21.7607 -21.7565  -7.1679  -6.0120  -5.7571  -4.4143
    -4.4130  -4.3730  -4.2510  -4.1500   4.8271   6.7313   6.7626   7.0970
     8.6828   8.6889   8.9357   9.2648   9.4496   9.4565

          k = 0.0000 0.0000 0.1888 (  6871 PWs)   bands (ev):

   -45.1595 -21.8579 -21.7601 -21.7559  -7.0286  -5.9708  -5.7118  -4.4261
    -4.4249  -4.3720  -4.2443  -4.2015   4.1801   6.7691   6.7961   7.4239
     8.5056   8.5176   8.8806   9.1570   9.5376   9.5415

          k = 0.0000 0.0000 0.3777 (  6868 PWs)   bands (ev):

   -45.1591 -21.8829 -21.7591 -21.7549  -6.7855  -5.8986  -5.6457  -4.4450
    -4.4439  -4.3704  -4.2910  -4.2345   3.5161   6.7870   6.8108   6.8289
     8.3172   8.3415   8.7949   9.6297   9.6310  10.3046

          k = 0.0000 0.1423 0.0000 (  6887 PWs)   bands (ev):

   -45.1594 -21.8418 -21.7719 -21.7601  -7.0600  -5.9868  -5.7332  -4.4333
    -4.4118  -4.3842  -4.2537  -4.1399   4.4477   6.7697   6.8440   7.1639
     8.6285   8.7112   8.9538   9.1547   9.1745   9.5391

          k = 0.0000 0.1423 0.1888 (  6877 PWs)   bands (ev):

   -45.1592 -21.8572 -21.7712 -21.7595  -6.9283  -5.9537  -5.6857  -4.4362
    -4.4240  -4.3836  -4.2486  -4.1734   3.9660   6.6514   6.8836   7.4584
     8.2830   8.5123   8.8914   9.0661   9.2739   9.7272

          k = 0.0000 0.1423 0.3777 (  6893 PWs)   bands (ev):

   -45.1588 -21.8820 -21.7701 -21.7585  -6.7048  -5.8952  -5.6097  -4.4435
    -4.4380  -4.3825  -4.2520  -4.2231   3.3966   6.4084   6.9227   7.1003
     8.0253   8.3358   8.9860   9.1124   9.3768  10.4191

          k = 0.0000 0.2846 0.0000 (  6867 PWs)   bands (ev):

   -45.1588 -21.8404 -21.8060 -21.7586  -6.8019  -5.9279  -5.6875  -4.4666
    -4.4101  -4.4082  -4.2555  -4.1350   3.8658   6.6212   7.0014   7.0616
     8.5117   8.5483   8.8120   8.8358   9.2438   9.9065

          k = 0.0000 0.2846 0.1888 (  6865 PWs)   bands (ev):

   -45.1585 -21.8556 -21.8053 -21.7580  -6.6994  -5.9038  -5.6304  -4.4495
    -4.4220  -4.4092  -4.2485  -4.1336   3.5672   6.4669   7.1002   7.1191
     8.0926   8.3594   8.5319   8.9259   9.2391  10.1383

          k = 0.0000 0.2846 0.3777 (  6879 PWs)   bands (ev):

   -45.1582 -21.8800 -21.8040 -21.7569  -6.5513  -5.8465  -5.5199  -4.4426
    -4.4152  -4.4094  -4.2727  -4.1078   3.1541   6.1334   6.9560   7.1706
     7.7656   8.0448   8.2318   9.0063   9.6437  10.2515

          k = 0.0000 0.4269 0.0000 (  6832 PWs)   bands (ev):

   -45.1582 -21.8392 -21.8333 -21.7575  -6.5746  -5.8629  -5.6781  -4.4887
    -4.4292  -4.4068  -4.2376  -4.1602   3.5415   6.1324   7.2576   7.3320
     7.9456   8.0810   8.7341   8.8585   9.2939  10.8249

          k = 0.0000 0.4269 0.1888 (  6846 PWs)   bands (ev):

   -45.1580 -21.8540 -21.8326 -21.7568  -6.5207  -5.8191  -5.6130  -4.4647
    -4.4298  -4.4202  -4.2127  -4.1384   3.3190   6.1089   7.1172   7.4355
     7.4910   7.9594   8.6579   8.8785   9.2219  10.5906

          k = 0.0000 0.4269 0.3777 (  6871 PWs)   bands (ev):

   -45.1577 -21.8782 -21.8311 -21.7557  -6.4732  -5.7332  -5.4545  -4.4419
    -4.4307  -4.4191  -4.2610  -4.0337   2.9943   5.9404   6.5943   7.4007
     7.5016   7.9121   7.9277   8.8982   9.8275  10.1358

          k = 0.1429 0.0000 0.0000 (  6881 PWs)   bands (ev):

   -45.1594 -21.8418 -21.7768 -21.7558  -7.0571  -5.9856  -5.7326  -4.4322
    -4.4130  -4.3846  -4.2537  -4.1389   4.4497   6.7866   6.8132   7.1610
     8.6370   8.7035   8.9564   9.1578   9.1727   9.5387

          k = 0.1429 0.0000 0.1888 (  6865 PWs)   bands (ev):

   -45.1592 -21.8572 -21.7761 -21.7552  -6.9251  -5.9531  -5.6852  -4.4350
    -4.4251  -4.3840  -4.2500  -4.1704   3.9687   6.6678   6.8572   7.4535
     8.2815   8.5004   8.8945   9.0755   9.2726   9.7292

          k = 0.1429 0.0000 0.3777 (  6886 PWs)   bands (ev):

   -45.1588 -21.8820 -21.7750 -21.7542  -6.7009  -5.8962  -5.6093  -4.4445
    -4.4373  -4.3829  -4.2553  -4.2166   3.3999   6.4196   6.9058   7.0964
     8.0337   8.3117   8.9810   9.1258   9.3723  10.4180

          k = 0.1429 0.1423 0.0000 (  6876 PWs)   bands (ev):

   -45.1591 -21.8412 -21.7761 -21.7711  -6.9504  -5.9598  -5.7215  -4.4359
    -4.4269  -4.3914  -4.2388  -4.1295   4.1753   6.7389   6.9043   7.2258
     8.2599   8.5135   8.9982   9.0368   9.4177   9.6743

          k = 0.1429 0.1423 0.1888 (  6871 PWs)   bands (ev):

   -45.1589 -21.8565 -21.7754 -21.7705  -6.8242  -5.9364  -5.6741  -4.4411
    -4.4267  -4.3901  -4.2327  -4.1483   3.8243   6.6234   6.6948   7.4657
     8.1416   8.2920   8.8170   9.1450   9.4456   9.7439

          k = 0.1429 0.1423 0.3777 (  6868 PWs)   bands (ev):

   -45.1585 -21.8811 -21.7743 -21.7694  -6.6147  -5.8976  -5.5922  -4.4601
    -4.4014  -4.3859  -4.2339  -4.1840   3.3463   6.4317   6.4713   7.1603
     8.0660   8.0958   8.7454   9.2233   9.4834  10.2970

          k = 0.1429 0.2846 0.0000 (  6869 PWs)   bands (ev):

   -45.1584 -21.8397 -21.8052 -21.7745  -6.6964  -5.9013  -5.7050  -4.4650
    -4.4201  -4.3893  -4.2220  -4.1253   3.6921   6.5917   6.9901   7.1328
     7.9139   8.2701   8.7418   9.1576   9.3749  10.0985

          k = 0.1429 0.2846 0.1888 (  6872 PWs)   bands (ev):

   -45.1582 -21.8548 -21.8045 -21.7739  -6.5939  -5.8916  -5.6536  -4.4501
    -4.4259  -4.3793  -4.2094  -4.1139   3.5167   6.4296   6.5937   7.1886
     7.6954   8.2097   8.8443   9.1217   9.3626  10.0656

          k = 0.1429 0.2846 0.3777 (  6871 PWs)   bands (ev):

   -45.1579 -21.8792 -21.8033 -21.7728  -6.4485  -5.8658  -5.5465  -4.4488
    -4.4079  -4.3477  -4.2187  -4.0850   3.2152   6.0716   6.5044   6.8473
     7.2812   8.0281   8.8931   9.1845   9.6633   9.9585

          k = 0.1429 0.4269 0.0000 (  6853 PWs)   bands (ev):

   -45.1579 -21.8385 -21.8324 -21.7733  -6.4738  -5.8398  -5.7183  -4.4755
    -4.4107  -4.3749  -4.2082  -4.1510   3.3975   6.1461   7.0655   7.4635
     7.5053   8.1017   8.4689   9.1537   9.4036  10.6250

          k = 0.1429 0.4269 0.1888 (  6861 PWs)   bands (ev):

   -45.1577 -21.8533 -21.8317 -21.7726  -6.4143  -5.8162  -5.6639  -4.4545
    -4.4140  -4.3617  -4.1810  -4.1174   3.3037   6.1134   6.5145   6.9841
     7.5580   8.3449   8.5043   9.1275   9.3737  10.2586

          k = 0.1429 0.4269 0.3777 (  6866 PWs)   bands (ev):

   -45.1574 -21.8774 -21.8303 -21.7716  -6.3664  -5.7676  -5.5179  -4.4435
    -4.3857  -4.3378  -4.2029  -4.0134   3.1161   5.9050   6.3285   6.5354
     6.9146   8.1660   8.8542   9.0195   9.4476  10.0297

          k = 0.2857 0.0000 0.0000 (  6859 PWs)   bands (ev):

   -45.1587 -21.8404 -21.8125 -21.7543  -6.7920  -5.9243  -5.6855  -4.4654
    -4.4113  -4.4094  -4.2541  -4.1330   3.8671   6.6102   6.9999   7.0309
     8.5222   8.5346   8.8159   8.8389   9.2434   9.9098

          k = 0.2857 0.0000 0.1888 (  6864 PWs)   bands (ev):

   -45.1585 -21.8555 -21.8118 -21.7537  -6.6890  -5.9020  -5.6286  -4.4480
    -4.4231  -4.4105  -4.2496  -4.1275   3.5727   6.4644   7.0906   7.0931
     8.0910   8.3479   8.5243   8.9189   9.2479  10.1478

          k = 0.2857 0.0000 0.3777 (  6881 PWs)   bands (ev):

   -45.1581 -21.8799 -21.8105 -21.7526  -6.5401  -5.8480  -5.5183  -4.4436
    -4.4136  -4.4106  -4.2744  -4.0979   3.1639   6.1380   6.9475   7.1561
     7.7492   8.0365   8.2089   8.9937   9.6623  10.2405

          k = 0.2857 0.1423 0.0000 (  6859 PWs)   bands (ev):

   -45.1584 -21.8397 -21.8117 -21.7695  -6.6896  -5.8987  -5.7036  -4.4645
    -4.4203  -4.3896  -4.2213  -4.1241   3.6922   6.5789   6.9812   7.1250
     7.9200   8.2695   8.7466   9.1453   9.3748  10.1038

          k = 0.2857 0.1423 0.1888 (  6867 PWs)   bands (ev):

   -45.1582 -21.8548 -21.8110 -21.7688  -6.5868  -5.8902  -5.6523  -4.4495
    -4.4262  -4.3796  -4.2108  -4.1094   3.5200   6.4260   6.5815   7.1846
     7.6969   8.1987   8.8317   9.1175   9.3652  10.0741

          k = 0.2857 0.1423 0.3777 (  6871 PWs)   bands (ev):

   -45.1578 -21.8791 -21.8098 -21.7678  -6.4409  -5.8664  -5.5454  -4.4483
    -4.4081  -4.3480  -4.2216  -4.0768   3.2223   6.0755   6.4939   6.8448
     7.2700   8.0176   8.8789   9.1684   9.6795   9.9510

          k = 0.2857 0.2846 0.0000 (  6858 PWs)   bands (ev):

   -45.1577 -21.8383 -21.8099 -21.8034  -6.4540  -5.8418  -5.7420  -4.4544
    -4.4158  -4.3459  -4.1610  -4.1195   3.3293   6.5748   6.6791   7.3335
     7.4901   7.7846   8.5767   9.1299   9.6844  10.1739

          k = 0.2857 0.2846 0.1888 (  6868 PWs)   bands (ev):

   -45.1575 -21.8532 -21.8093 -21.8027  -6.3548  -5.8609  -5.7042  -4.4294
    -4.4161  -4.3188  -4.1369  -4.0821   3.3583   6.2627   6.2799   6.7439
     7.4123   7.8031   9.0465   9.2469   9.7092   9.8068

          k = 0.2857 0.2846 0.3777 (  6864 PWs)   bands (ev):

   -45.1572 -21.8773 -21.8082 -21.8015  -6.2302  -5.8910  -5.5959  -4.4126
    -4.3893  -4.2616  -4.1053  -4.0260   3.3372   5.7936   5.9307   6.4384
     7.0881   7.2826   8.9954   9.5898   9.6551   9.8584

          k = 0.2857 0.4269 0.0000 (  6878 PWs)   bands (ev):

   -45.1572 -21.8370 -21.8304 -21.8085  -6.2624  -5.7929  -5.7707  -4.4466
    -4.3937  -4.2846  -4.1460  -4.1230   3.0708   6.1639   6.6869   7.1650
     7.6386   7.8559   8.1066   9.1394   9.8162  10.0710

          k = 0.2857 0.4269 0.1888 (  6855 PWs)   bands (ev):

   -45.1570 -21.8516 -21.8298 -21.8080  -6.1762  -5.8137  -5.7550  -4.4191
    -4.3873  -4.2376  -4.1090  -4.0698   3.2029   6.0693   6.1757   6.3767
     7.1540   7.9251   8.8451   9.2897   9.5017   9.8843

          k = 0.2857 0.4269 0.3777 (  6849 PWs)   bands (ev):

   -45.1567 -21.8756 -21.8285 -21.8069  -6.1212  -5.8396  -5.6355  -4.3910
    -4.3581  -4.1741  -4.0548  -3.9659   3.4075   5.5482   5.6829   6.1082
     6.7336   7.2723   8.2279   9.7225   9.8251  10.0398

          k = 0.4286 0.0000 0.0000 (  6843 PWs)   bands (ev):

   -45.1581 -21.8421 -21.8380 -21.7531  -6.5588  -5.8564  -5.6758  -4.4874
    -4.4311  -4.4078  -4.2326  -4.1596   3.5418   6.1062   7.2531   7.2970
     7.9560   8.0729   8.7332   8.8593   9.2937  10.8380

          k = 0.4286 0.0000 0.1888 (  6850 PWs)   bands (ev):

   -45.1579 -21.8539 -21.8404 -21.7524  -6.5053  -5.8140  -5.6112  -4.4631
    -4.4318  -4.4212  -4.2126  -4.1301   3.3259   6.0854   7.1134   7.4043
     7.4863   7.9525   8.6525   8.8708   9.2240  10.5967

          k = 0.4286 0.0000 0.3777 (  6872 PWs)   bands (ev):

   -45.1576 -21.8780 -21.8389 -21.7513  -6.4598  -5.7299  -5.4524  -4.4428
    -4.4327  -4.4175  -4.2607  -4.0211   3.0093   5.9325   6.5805   7.3846
     7.4917   7.8872   7.9164   8.8822   9.8134  10.1390

          k = 0.4286 0.1423 0.0000 (  6852 PWs)   bands (ev):

   -45.1578 -21.8413 -21.8373 -21.7682  -6.4617  -5.8341  -5.7164  -4.4748
    -4.4109  -4.3754  -4.2046  -4.1510   3.3968   6.1187   7.0545   7.4524
     7.5128   8.1045   8.4681   9.1396   9.4004  10.6391

          k = 0.4286 0.1423 0.1888 (  6862 PWs)   bands (ev):

   -45.1576 -21.8532 -21.8395 -21.7675  -6.4025  -5.8115  -5.6626  -4.4538
    -4.4139  -4.3624  -4.1824  -4.1100   3.3084   6.0892   6.5019   6.9916
     7.5596   8.3256   8.4872   9.1222   9.3723  10.2642

          k = 0.4286 0.1423 0.3777 (  6859 PWs)   bands (ev):

   -45.1573 -21.8773 -21.8382 -21.7665  -6.3567  -5.7635  -5.5165  -4.4430
    -4.3853  -4.3384  -4.2054  -4.0013   3.1289   5.9000   6.3147   6.5206
     6.9135   8.1575   8.8187   9.0059   9.4340  10.0400

          k = 0.4286 0.2846 0.0000 (  6864 PWs)   bands (ev):

   -45.1572 -21.8394 -21.8357 -21.8019  -6.2582  -5.7909  -5.7679  -4.4466
    -4.3934  -4.2823  -4.1491  -4.1205   3.0697   6.1347   6.7084   7.1633
     7.6295   7.8564   8.1093   9.1372   9.7836  10.0995

          k = 0.4286 0.2846 0.1888 (  6844 PWs)   bands (ev):

   -45.1570 -21.8516 -21.8377 -21.8013  -6.1724  -5.8105  -5.7539  -4.4194
    -4.3864  -4.2359  -4.1138  -4.0640   3.2040   6.0482   6.1694   6.3900
     7.1581   7.9246   8.8246   9.2897   9.5030   9.8808

          k = 0.4286 0.2846 0.3777 (  6853 PWs)   bands (ev):

   -45.1566 -21.8756 -21.8365 -21.8002  -6.1201  -5.8342  -5.6352  -4.3915
    -4.3566  -4.1734  -4.0618  -3.9557   3.4139   5.5410   5.6911   6.0949
     6.7231   7.2800   8.2123   9.7103   9.8121  10.0475

          k = 0.4286 0.4269 0.0000 (  6868 PWs)   bands (ev):

   -45.1567 -21.8379 -21.8344 -21.8287  -6.1438  -5.7562  -5.7477  -4.4309
    -4.3464  -4.2128  -4.1653  -4.0532   2.8129   6.0014   6.4025   7.3409
     7.4453   7.8404   8.0195   8.8704   9.4154  10.2648

          k = 0.4286 0.4269 0.1888 (  6864 PWs)   bands (ev):

   -45.1564 -21.8501 -21.8362 -21.8282  -6.0126  -5.8039  -5.7953  -4.4010
    -4.3404  -4.1311  -4.0771  -4.0228   3.0583   5.9521   6.1594   6.2131
     6.5988   7.8961   8.4721   9.1958   9.2180  10.2564

          k = 0.4286 0.4269 0.3777 (  6854 PWs)   bands (ev):

   -45.1561 -21.8740 -21.8351 -21.8271  -5.9273  -5.8818  -5.7186  -4.3526
    -4.3346  -4.0296  -3.9437  -3.9340   3.6115   5.3465   5.4595   5.8825
     6.5125   6.8424   7.1579  10.0307  10.0523  10.2433

     highest occupied level (ev):    10.8380

!    total energy              =    -380.57762540 Ry
     estimated scf accuracy    <          5.6E-11 Ry

     The total energy is the sum of the following terms:
     one-electron contribution =     -79.79302315 Ry
     hartree contribution      =      69.97750268 Ry
     xc contribution           =    -102.68051012 Ry
     ewald contribution        =    -268.08159481 Ry

     convergence has been achieved in   8 iterations

     negative rho (up, down):  1.580E-02 0.000E+00

     Forces acting on atoms (cartesian axes, Ry/au):

     atom    1 type  1   force =     0.00000000    0.00000000   -0.00042787
     atom    2 type  2   force =     0.00000000    0.00000000   -0.00080323
     atom    3 type  3   force =     0.00000000    0.00000000    0.00046506
     atom    4 type  3   force =     0.00000000    0.00000000    0.00002499
     atom    5 type  3   force =     0.00000000    0.00000000    0.00074105

     Total force =     0.001263     Total SCF correction =     0.000008


     Computing stress (Cartesian axis) and pressure


     negative rho (up, down):  1.580E-02 0.000E+00
          total   stress  (Ry/bohr**3)                   (kbar)     P=        3.26
   0.00006506   0.00000000   0.00000000            9.57        0.00        0.00
   0.00000000   0.00001401   0.00000000            0.00        2.06        0.00
   0.00000000   0.00000000  -0.00001258            0.00        0.00       -1.85


     BFGS Geometry Optimization
     Energy error            =      0.0E+00 Ry
     Gradient error          =      8.0E-04 Ry/Bohr

     bfgs converged in   1 scf cycles and   0 bfgs steps
     (criteria: energy <  1.0E-04 Ry, force <  1.0E-03 Ry/Bohr)

     End of BFGS Geometry Optimization

     Final energy             =    -380.5776254032 Ry
Begin final coordinates

ATOMIC_POSITIONS (crystal)
Pb            0.0000000000        0.0000000000        1.0051905434
Ti            0.5000000000        0.5000000000        0.5386961802
O             0.5000000000        0.5000000000        0.1001578854
O             0.5000000000        0.0000000000        0.6115125444
O             0.0000000000        0.5000000000        0.6117271345
End final coordinates



     Writing all to output data dir ./PTO2.save/
 
     init_run     :     16.81s CPU     17.18s WALL (       1 calls)
     electrons    :   1806.60s CPU   1867.73s WALL (       3 calls)
     update_pot   :      1.75s CPU      1.75s WALL (       2 calls)
     forces       :     10.65s CPU     10.92s WALL (       3 calls)
     stress       :     65.95s CPU     66.64s WALL (       3 calls)

     Called by init_run:
     wfcinit      :     11.79s CPU     12.05s WALL (       1 calls)
     potinit      :      0.18s CPU      0.19s WALL (       1 calls)
     hinit0       :      3.94s CPU      3.95s WALL (       1 calls)

     Called by electrons:
     c_bands      :   1633.30s CPU   1687.96s WALL (      32 calls)
     sum_band     :    149.80s CPU    153.91s WALL (      32 calls)
     v_of_rho     :      0.92s CPU      0.94s WALL (      33 calls)
     newd         :     24.31s CPU     26.68s WALL (      33 calls)
     mix_rho      :      0.45s CPU      0.48s WALL (      32 calls)

     Called by c_bands:
     init_us_2    :     42.57s CPU     42.79s WALL (    3408 calls)
     init_us_2:cp :     42.46s CPU     42.73s WALL (    3408 calls)
     ccgdiagg     :   1431.94s CPU   1480.87s WALL (    1536 calls)
     wfcrot       :    189.31s CPU    192.52s WALL (    1344 calls)

     Called by *cgdiagg:
     h_psi        :   1106.83s CPU   1135.28s WALL (  127412 calls)
     s_psi        :    262.14s CPU    276.87s WALL (  253480 calls)

     Called by h_psi:
     h_psi:calbec :    136.80s CPU    141.43s WALL (  127412 calls)
     vloc_psi     :    823.36s CPU    841.72s WALL (  127412 calls)
     add_vuspsi   :    134.99s CPU    141.84s WALL (  127412 calls)
     hs_1psi      :   1073.63s CPU   1104.96s WALL (  126068 calls)
     s_1psi       :    264.80s CPU    274.85s WALL (  126068 calls)

     General routines
     calbec       :    266.87s CPU    281.80s WALL (  255736 calls)
     fft          :      0.35s CPU      0.36s WALL (     160 calls)
     ffts         :      0.07s CPU      0.07s WALL (      32 calls)
     fftw         :    755.67s CPU    769.90s WALL (  345928 calls)
 
     Parallel routines
 
     PWSCF        :  31m44.76s CPU  32m49.29s WALL

 
   This run was terminated on:   8:56:30  11Apr2022            

=------------------------------------------------------------------------------=
   JOB DONE.
=------------------------------------------------------------------------------=
