
     Program PWSCF v.7.0 starts on 11Apr2022 at  8:51:31 

     This program is part of the open-source Quantum ESPRESSO suite
     for quantum simulation of materials; please cite
         "P. Giannozzi et al., J. Phys.:Condens. Matter 21 395502 (2009);
         "P. Giannozzi et al., J. Phys.:Condens. Matter 29 465901 (2017);
         "P. Giannozzi et al., J. Chem. Phys. 152 154105 (2020);
          URL http://www.quantum-espresso.org", 
     in publications or presentations arising from this work. More details at
     http://www.quantum-espresso.org/quote

     Parallel version (MPI), running on     1 processors

     MPI processes distributed on     1 nodes
     90605 MiB available memory on the printing compute node when the environment starts
 
     Waiting for input...
     Reading input from standard input
Warning: card &CELL ignored
Warning: card  CELL_DYNAMICS = 'BFGS', ignored
Warning: card  PRESS=0.1D0, ignored
Warning: card / ignored

     Current dimensions of program PWSCF are:
     Max number of different atomic species (ntypx) = 10
     Max number of k-points (npk) =  40000
     Max angular momentum in pseudopotentials (lmaxx) =  4
     Message from routine setup:
     using ibrav=0 with symmetry is DISCOURAGED, use correct ibrav instead

     Subspace diagonalization in iterative solution of the eigenvalue problem:
     a serial algorithm will be used

 
     G-vector sticks info
     --------------------
     sticks:   dense  smooth     PW     G-vecs:    dense   smooth      PW
     Sum        1685    1685    481                54801    54801    8201
 
     Using Slab Decomposition
 


     bravais-lattice index     =            0
     lattice parameter (alat)  =       7.2719  a.u.
     unit-cell volume          =     405.6604 (a.u.)^3
     number of atoms/cell      =            5
     number of atomic types    =            3
     number of electrons       =        44.00
     number of Kohn-Sham states=           22
     kinetic-energy cutoff     =     100.0000  Ry
     charge density cutoff     =     400.0000  Ry
     scf convergence threshold =      1.0E-08
     mixing beta               =       0.7000
     number of iterations used =            8  plain     mixing
     energy convergence thresh.=      1.0E-04
     force convergence thresh. =      1.0E-03
     Exchange-correlation= SLA  PZ   NOGX NOGC
                           (   1   1   0   0   0   0   0)
     nstep                     =           50


     celldm(1)=   7.271855  celldm(2)=   0.000000  celldm(3)=   0.000000
     celldm(4)=   0.000000  celldm(5)=   0.000000  celldm(6)=   0.000000

     crystal axes: (cart. coord. in units of alat)
               a(1) = (   1.000000   0.000000   0.000000 )  
               a(2) = (   0.000000   1.002001   0.000000 )  
               a(3) = (   0.000000   0.000000   1.052831 )  

     reciprocal axes: (cart. coord. in units 2 pi/alat)
               b(1) = (  1.000000  0.000000  0.000000 )  
               b(2) = (  0.000000  0.998003  0.000000 )  
               b(3) = (  0.000000  0.000000  0.949820 )  


     PseudoPot. # 1 for Pb read from file:
     ./Pb_LDA.UPF
     MD5 check sum: 062a37469794d955244864f8fe2e5624
     Pseudo is Ultrasoft + core correction, Zval = 14.0
     Generated by new atomic code, or converted to UPF format
     Using radial grid of  899 points,  6 beta functions with: 
                l(1) =   0
                l(2) =   0
                l(3) =   1
                l(4) =   1
                l(5) =   2
                l(6) =   2
     Q(r) pseudized with  6 coefficients,  rinner =    1.000   1.000   1.000
                                                       1.000   1.000

     PseudoPot. # 2 for Ti read from file:
     ./Ti_LDA.UPF
     MD5 check sum: 0d9f225c038fe889ca2a701dcc8d72cb
     Pseudo is Ultrasoft + core correction, Zval = 12.0
     Generated by new atomic code, or converted to UPF format
     Using radial grid of  851 points,  6 beta functions with: 
                l(1) =   0
                l(2) =   0
                l(3) =   1
                l(4) =   1
                l(5) =   2
                l(6) =   2
     Q(r) pseudized with  6 coefficients,  rinner =    1.000   1.000   1.000
                                                       1.000   1.000

     PseudoPot. # 3 for O  read from file:
     ./O_LDA.UPF
     MD5 check sum: 194b818514d2a7dbb603bb78519a4f40
     Pseudo is Ultrasoft + core correction, Zval =  6.0
     Generated by new atomic code, or converted to UPF format
     Using radial grid of  737 points,  5 beta functions with: 
                l(1) =   0
                l(2) =   0
                l(3) =   1
                l(4) =   1
                l(5) =   2
     Q(r) pseudized with  8 coefficients,  rinner =    0.900   0.900   0.900
                                                       0.900   0.900

     atomic species   valence    mass     pseudopotential
        Pb            14.00   207.20000     Pb( 1.00)
        Ti            12.00    47.88000     Ti( 1.00)
        O              6.00    16.00000     O ( 1.00)

      4 Sym. Ops. (no inversion) found



   Cartesian axes

     site n.     atom                  positions (alat units)
         1           Pb  tau(   1) = (   0.0000000   0.0000000   1.0582959  )
         2           Ti  tau(   2) = (   0.5000000   0.5010005   0.5680155  )
         3           O   tau(   3) = (   0.5000000   0.5010005   0.1047343  )
         4           O   tau(   4) = (   0.5000000   0.0000000   0.6438604  )
         5           O   tau(   5) = (   0.0000000   0.5010005   0.6438604  )

     number of k points=    48
                       cart. coord. in units 2pi/alat
        k(    1) = (   0.0000000   0.0000000   0.0000000), wk =   0.0081633
        k(    2) = (   0.0000000   0.0000000   0.1899640), wk =   0.0163265
        k(    3) = (   0.0000000   0.0000000   0.3799279), wk =   0.0163265
        k(    4) = (   0.0000000   0.1425719   0.0000000), wk =   0.0163265
        k(    5) = (   0.0000000   0.1425719   0.1899640), wk =   0.0326531
        k(    6) = (   0.0000000   0.1425719   0.3799279), wk =   0.0326531
        k(    7) = (   0.0000000   0.2851437   0.0000000), wk =   0.0163265
        k(    8) = (   0.0000000   0.2851437   0.1899640), wk =   0.0326531
        k(    9) = (   0.0000000   0.2851437   0.3799279), wk =   0.0326531
        k(   10) = (   0.0000000   0.4277156   0.0000000), wk =   0.0163265
        k(   11) = (   0.0000000   0.4277156   0.1899640), wk =   0.0326531
        k(   12) = (   0.0000000   0.4277156   0.3799279), wk =   0.0326531
        k(   13) = (   0.1428571   0.0000000   0.0000000), wk =   0.0163265
        k(   14) = (   0.1428571   0.0000000   0.1899640), wk =   0.0326531
        k(   15) = (   0.1428571   0.0000000   0.3799279), wk =   0.0326531
        k(   16) = (   0.1428571   0.1425719   0.0000000), wk =   0.0326531
        k(   17) = (   0.1428571   0.1425719   0.1899640), wk =   0.0653061
        k(   18) = (   0.1428571   0.1425719   0.3799279), wk =   0.0653061
        k(   19) = (   0.1428571   0.2851437   0.0000000), wk =   0.0326531
        k(   20) = (   0.1428571   0.2851437   0.1899640), wk =   0.0653061
        k(   21) = (   0.1428571   0.2851437   0.3799279), wk =   0.0653061
        k(   22) = (   0.1428571   0.4277156   0.0000000), wk =   0.0326531
        k(   23) = (   0.1428571   0.4277156   0.1899640), wk =   0.0653061
        k(   24) = (   0.1428571   0.4277156   0.3799279), wk =   0.0653061
        k(   25) = (   0.2857143   0.0000000   0.0000000), wk =   0.0163265
        k(   26) = (   0.2857143   0.0000000   0.1899640), wk =   0.0326531
        k(   27) = (   0.2857143   0.0000000   0.3799279), wk =   0.0326531
        k(   28) = (   0.2857143   0.1425719   0.0000000), wk =   0.0326531
        k(   29) = (   0.2857143   0.1425719   0.1899640), wk =   0.0653061
        k(   30) = (   0.2857143   0.1425719   0.3799279), wk =   0.0653061
        k(   31) = (   0.2857143   0.2851437   0.0000000), wk =   0.0326531
        k(   32) = (   0.2857143   0.2851437   0.1899640), wk =   0.0653061
        k(   33) = (   0.2857143   0.2851437   0.3799279), wk =   0.0653061
        k(   34) = (   0.2857143   0.4277156   0.0000000), wk =   0.0326531
        k(   35) = (   0.2857143   0.4277156   0.1899640), wk =   0.0653061
        k(   36) = (   0.2857143   0.4277156   0.3799279), wk =   0.0653061
        k(   37) = (   0.4285714   0.0000000   0.0000000), wk =   0.0163265
        k(   38) = (   0.4285714   0.0000000   0.1899640), wk =   0.0326531
        k(   39) = (   0.4285714   0.0000000   0.3799279), wk =   0.0326531
        k(   40) = (   0.4285714   0.1425719   0.0000000), wk =   0.0326531
        k(   41) = (   0.4285714   0.1425719   0.1899640), wk =   0.0653061
        k(   42) = (   0.4285714   0.1425719   0.3799279), wk =   0.0653061
        k(   43) = (   0.4285714   0.2851437   0.0000000), wk =   0.0326531
        k(   44) = (   0.4285714   0.2851437   0.1899640), wk =   0.0653061
        k(   45) = (   0.4285714   0.2851437   0.3799279), wk =   0.0653061
        k(   46) = (   0.4285714   0.4277156   0.0000000), wk =   0.0326531
        k(   47) = (   0.4285714   0.4277156   0.1899640), wk =   0.0653061
        k(   48) = (   0.4285714   0.4277156   0.3799279), wk =   0.0653061

     Dense  grid:    54801 G-vectors     FFT dimensions: (  48,  48,  50)

     Estimated max dynamical RAM per process >     327.45 MB

     Check: negative core charge=   -0.000003

     Initial potential from superposition of free atoms

     starting charge      42.9982, renormalised to      44.0000

     negative rho (up, down):  1.704E-02 0.000E+00
     Starting wfcs are   31 randomized atomic wfcs

     total cpu time spent up to now is       19.0 secs

     Self-consistent Calculation

     iteration #  1     ecut=   100.00 Ry     beta= 0.70
     CG style diagonalization
     ethr =  1.00E-02,  avg # of iterations =  2.1

     negative rho (up, down):  1.433E-02 0.000E+00

     total cpu time spent up to now is       53.0 secs

     total energy              =    -380.05963421 Ry
     estimated scf accuracy    <       1.02792243 Ry

     iteration #  2     ecut=   100.00 Ry     beta= 0.70
     CG style diagonalization
     ethr =  2.34E-03,  avg # of iterations =  4.9

     negative rho (up, down):  1.504E-02 0.000E+00

     total cpu time spent up to now is      117.1 secs

     total energy              =    -379.77178934 Ry
     estimated scf accuracy    <       3.85584453 Ry

     iteration #  3     ecut=   100.00 Ry     beta= 0.70
     CG style diagonalization
     ethr =  2.34E-03,  avg # of iterations =  4.5

     negative rho (up, down):  1.562E-02 0.000E+00

     total cpu time spent up to now is      175.8 secs

     total energy              =    -380.54789708 Ry
     estimated scf accuracy    <       0.24906485 Ry

     iteration #  4     ecut=   100.00 Ry     beta= 0.70
     CG style diagonalization
     ethr =  5.66E-04,  avg # of iterations =  3.4

     negative rho (up, down):  1.566E-02 0.000E+00

     total cpu time spent up to now is      220.4 secs

     total energy              =    -380.56115957 Ry
     estimated scf accuracy    <       0.05136496 Ry

     iteration #  5     ecut=   100.00 Ry     beta= 0.70
     CG style diagonalization
     ethr =  1.17E-04,  avg # of iterations =  3.8

     negative rho (up, down):  1.566E-02 0.000E+00

     total cpu time spent up to now is      269.9 secs

     total energy              =    -380.57598675 Ry
     estimated scf accuracy    <       0.00465915 Ry

     iteration #  6     ecut=   100.00 Ry     beta= 0.70
     CG style diagonalization
     ethr =  1.06E-05,  avg # of iterations =  4.1

     negative rho (up, down):  1.565E-02 0.000E+00

     total cpu time spent up to now is      323.4 secs

     total energy              =    -380.57755393 Ry
     estimated scf accuracy    <       0.00699747 Ry

     iteration #  7     ecut=   100.00 Ry     beta= 0.70
     CG style diagonalization
     ethr =  1.06E-05,  avg # of iterations =  3.2

     negative rho (up, down):  1.566E-02 0.000E+00

     total cpu time spent up to now is      365.1 secs

     total energy              =    -380.57709171 Ry
     estimated scf accuracy    <       0.00256955 Ry

     iteration #  8     ecut=   100.00 Ry     beta= 0.70
     CG style diagonalization
     ethr =  5.84E-06,  avg # of iterations =  3.6

     negative rho (up, down):  1.568E-02 0.000E+00

     total cpu time spent up to now is      411.6 secs

     total energy              =    -380.57760093 Ry
     estimated scf accuracy    <       0.00000774 Ry

     iteration #  9     ecut=   100.00 Ry     beta= 0.70
     CG style diagonalization
     c_bands:  1 eigenvalues not converged
     c_bands:  1 eigenvalues not converged
     c_bands:  1 eigenvalues not converged
     ethr =  1.76E-08,  avg # of iterations =  8.5

     negative rho (up, down):  1.571E-02 0.000E+00

     total cpu time spent up to now is      520.3 secs

     total energy              =    -380.57765860 Ry
     estimated scf accuracy    <       0.00001282 Ry

     iteration # 10     ecut=   100.00 Ry     beta= 0.70
     CG style diagonalization
     ethr =  1.76E-08,  avg # of iterations =  3.5

     negative rho (up, down):  1.576E-02 0.000E+00

     total cpu time spent up to now is      564.3 secs

     total energy              =    -380.57765797 Ry
     estimated scf accuracy    <       0.00000755 Ry

     iteration # 11     ecut=   100.00 Ry     beta= 0.70
     CG style diagonalization
     ethr =  1.71E-08,  avg # of iterations =  3.2

     negative rho (up, down):  1.581E-02 0.000E+00

     total cpu time spent up to now is      604.8 secs

     total energy              =    -380.57765665 Ry
     estimated scf accuracy    <       0.00000451 Ry

     iteration # 12     ecut=   100.00 Ry     beta= 0.70
     CG style diagonalization
     ethr =  1.02E-08,  avg # of iterations =  4.1

     negative rho (up, down):  1.580E-02 0.000E+00

     total cpu time spent up to now is      657.7 secs

     total energy              =    -380.57765802 Ry
     estimated scf accuracy    <       0.00000064 Ry

     iteration # 13     ecut=   100.00 Ry     beta= 0.70
     CG style diagonalization
     ethr =  1.46E-09,  avg # of iterations =  6.4

     negative rho (up, down):  1.580E-02 0.000E+00

     total cpu time spent up to now is      738.9 secs

     total energy              =    -380.57765883 Ry
     estimated scf accuracy    <       0.00000003 Ry

     iteration # 14     ecut=   100.00 Ry     beta= 0.70
     CG style diagonalization
     c_bands:  1 eigenvalues not converged
     c_bands:  1 eigenvalues not converged
     c_bands:  1 eigenvalues not converged
     ethr =  7.06E-11,  avg # of iterations =  9.9

     negative rho (up, down):  1.581E-02 0.000E+00

     total cpu time spent up to now is      865.9 secs

     total energy              =    -380.57765908 Ry
     estimated scf accuracy    <       0.00000001 Ry

     iteration # 15     ecut=   100.00 Ry     beta= 0.70
     CG style diagonalization
     ethr =  3.33E-11,  avg # of iterations =  5.1

     negative rho (up, down):  1.581E-02 0.000E+00

     total cpu time spent up to now is      930.9 secs

     End of self-consistent calculation

          k = 0.0000 0.0000 0.0000 (  6877 PWs)   bands (ev):

   -45.1306 -21.8125 -21.7308 -21.7287  -7.1457  -5.9890  -5.7306  -4.3783
    -4.3776  -4.3378  -4.2193  -4.1080   4.8752   6.7541   6.7699   7.1332
     8.7368   8.7404   8.9753   9.3182   9.4704   9.4736

          k = 0.0000 0.0000 0.1900 (  6846 PWs)   bands (ev):

   -45.1304 -21.8288 -21.7302 -21.7281  -7.0037  -5.9469  -5.6818  -4.3906
    -4.3900  -4.3368  -4.2109  -4.1607   4.2224   6.7944   6.8082   7.4497
     8.5483   8.5545   8.9179   9.2041   9.5608   9.5627

          k = 0.0000 0.0000 0.3799 (  6844 PWs)   bands (ev):

   -45.1300 -21.8549 -21.7292 -21.7270  -6.7568  -5.8730  -5.6088  -4.4103
    -4.4098  -4.3351  -4.2519  -4.1987   3.5544   6.7848   6.8397   6.8493
     8.3490   8.3609   8.8290   9.6540   9.6548  10.3597

          k = 0.0000 0.1426 0.0000 (  6869 PWs)   bands (ev):

   -45.1303 -21.8119 -21.7441 -21.7302  -7.0373  -5.9633  -5.7071  -4.3973
    -4.3764  -4.3490  -4.2218  -4.0984   4.4875   6.8061   6.8516   7.2017
     8.6683   8.7592   8.9870   9.1780   9.2122   9.5793

          k = 0.0000 0.1426 0.1900 (  6861 PWs)   bands (ev):

   -45.1301 -21.8281 -21.7434 -21.7295  -6.9029  -5.9295  -5.6561  -4.4002
    -4.3891  -4.3483  -4.2156  -4.1325   4.0052   6.6808   6.8961   7.4915
     8.3094   8.5463   8.9209   9.1057   9.2992   9.7657

          k = 0.0000 0.1426 0.3799 (  6869 PWs)   bands (ev):

   -45.1297 -21.8541 -21.7422 -21.7285  -6.6755  -5.8699  -5.5732  -4.4094
    -4.4021  -4.3472  -4.2163  -4.1838   3.4339   6.4271   6.9435   7.1119
     8.0494   8.3541   9.0084   9.1490   9.4014  10.4687

          k = 0.0000 0.2851 0.0000 (  6837 PWs)   bands (ev):

   -45.1297 -21.8105 -21.7784 -21.7288  -6.7777  -5.9035  -5.6624  -4.4309
    -4.3748  -4.3730  -4.2222  -4.0951   3.8988   6.6527   7.0464   7.0699
     8.5443   8.5621   8.8676   8.8676   9.2906   9.9405

          k = 0.0000 0.2851 0.1900 (  6855 PWs)   bands (ev):

   -45.1294 -21.8264 -21.7776 -21.7281  -6.6725  -5.8791  -5.6021  -4.4130
    -4.3872  -4.3740  -4.2145  -4.0932   3.6022   6.4977   7.1322   7.1342
     8.1108   8.3824   8.5581   8.9606   9.2823  10.1758

          k = 0.0000 0.2851 0.3799 (  6871 PWs)   bands (ev):

   -45.1291 -21.8520 -21.7762 -21.7270  -6.5215  -5.8212  -5.4844  -4.4086
    -4.3774  -4.3741  -4.2375  -4.0670   3.1898   6.1568   6.9736   7.1923
     7.7750   8.0611   8.2485   9.0311   9.6838  10.2904

          k = 0.0000 0.4277 0.0000 (  6810 PWs)   bands (ev):

   -45.1291 -21.8095 -21.8055 -21.7276  -6.5487  -5.8382  -5.6540  -4.4534
    -4.3940  -4.3714  -4.2017  -4.1225   3.5727   6.1555   7.3006   7.3397
     7.9858   8.0977   8.7648   8.9108   9.3435  10.8579

          k = 0.0000 0.4277 0.1900 (  6838 PWs)   bands (ev):

   -45.1289 -21.8249 -21.8049 -21.7269  -6.4924  -5.7939  -5.5863  -4.4283
    -4.3946  -4.3854  -4.1765  -4.0990   3.3523   6.1333   7.1478   7.4477
     7.5154   7.9801   8.6872   8.9158   9.2684  10.6180

          k = 0.0000 0.4277 0.3799 (  6861 PWs)   bands (ev):

   -45.1285 -21.8503 -21.8034 -21.7258  -6.4438  -5.7066  -5.4198  -4.4078
    -4.3955  -4.3811  -4.2249  -3.9916   3.0291   5.9650   6.6087   7.4135
     7.5243   7.9297   7.9394   8.9208   9.8675  10.1650

          k = 0.1429 0.0000 0.0000 (  6867 PWs)   bands (ev):

   -45.1303 -21.8119 -21.7466 -21.7280  -7.0358  -5.9626  -5.7068  -4.3968
    -4.3770  -4.3492  -4.2217  -4.0979   4.4883   6.8146   6.8361   7.2005
     8.6727   8.7548   8.9887   9.1793   9.2107   9.5790

          k = 0.1429 0.0000 0.1900 (  6859 PWs)   bands (ev):

   -45.1301 -21.8280 -21.7459 -21.7274  -6.9013  -5.9291  -5.6559  -4.3996
    -4.3897  -4.3485  -4.2162  -4.1310   4.0064   6.6892   6.8825   7.4892
     8.3088   8.5400   8.9219   9.1104   9.2985   9.7666

          k = 0.1429 0.0000 0.3799 (  6866 PWs)   bands (ev):

   -45.1297 -21.8540 -21.7447 -21.7263  -6.6736  -5.8703  -5.5731  -4.4099
    -4.4018  -4.3474  -4.2179  -4.1805   3.4355   6.4328   6.9344   7.1103
     8.0535   8.3422   9.0055   9.1557   9.3993  10.4680

          k = 0.1429 0.1426 0.0000 (  6852 PWs)   bands (ev):

   -45.1300 -21.8112 -21.7459 -21.7434  -6.9287  -5.9363  -5.6958  -4.4008
    -4.3909  -4.3560  -4.2067  -4.0889   4.2091   6.7584   6.9413   7.2667
     8.3096   8.5364   9.0351   9.0716   9.4345   9.7222

          k = 0.1429 0.1426 0.1900 (  6859 PWs)   bands (ev):

   -45.1298 -21.8273 -21.7452 -21.7427  -6.7998  -5.9123  -5.6450  -4.4055
    -4.3912  -4.3547  -4.1994  -4.1084   3.8599   6.6465   6.7202   7.5028
     8.1778   8.3110   8.8507   9.1815   9.4648   9.7834

          k = 0.1429 0.1426 0.3799 (  6855 PWs)   bands (ev):

   -45.1294 -21.8532 -21.7441 -21.7415  -6.5868  -5.8722  -5.5561  -4.4249
    -4.3654  -4.3503  -4.1988  -4.1455   3.3816   6.4568   6.4822   7.1808
     8.0913   8.1144   8.7711   9.2574   9.5041  10.3425

          k = 0.1429 0.2851 0.0000 (  6855 PWs)   bands (ev):

   -45.1294 -21.8098 -21.7776 -21.7443  -6.6734  -5.8767  -5.6797  -4.4299
    -4.3844  -4.3538  -4.1892  -4.0861   3.7198   6.6176   7.0243   7.1679
     7.9461   8.3147   8.7758   9.1841   9.4071  10.1345

          k = 0.1429 0.2851 0.1900 (  6855 PWs)   bands (ev):

   -45.1291 -21.8257 -21.7768 -21.7436  -6.5681  -5.8669  -5.6252  -4.4142
    -4.3907  -4.3438  -4.1759  -4.0740   3.5482   6.4590   6.6170   7.2156
     7.7258   8.2350   8.8743   9.1523   9.3953  10.0995

          k = 0.1429 0.2851 0.3799 (  6858 PWs)   bands (ev):

   -45.1288 -21.8512 -21.7755 -21.7425  -6.4198  -5.8407  -5.5109  -4.4133
    -4.3721  -4.3111  -4.1843  -4.0446   3.2496   6.0961   6.5218   6.8610
     7.3012   8.0484   8.9137   9.2016   9.7012   9.9954

          k = 0.1429 0.4277 0.0000 (  6838 PWs)   bands (ev):

   -45.1288 -21.8087 -21.8046 -21.7431  -6.4493  -5.8148  -5.6933  -4.4406
    -4.3752  -4.3397  -4.1735  -4.1138   3.4227   6.1685   7.0980   7.4969
     7.5380   8.1332   8.5168   9.1741   9.4461  10.6624

          k = 0.1429 0.4277 0.1900 (  6847 PWs)   bands (ev):

   -45.1286 -21.8241 -21.8041 -21.7424  -6.3872  -5.7908  -5.6366  -4.4187
    -4.3788  -4.3267  -4.1454  -4.0787   3.3329   6.1375   6.5365   7.0143
     7.5851   8.3700   8.5322   9.1630   9.4099  10.2889

          k = 0.1429 0.4277 0.3799 (  6846 PWs)   bands (ev):

   -45.1282 -21.8495 -21.8026 -21.7413  -6.3383  -5.7412  -5.4828  -4.4078
    -4.3494  -4.3022  -4.1672  -3.9716   3.1496   5.9300   6.3464   6.5537
     6.9250   8.1865   8.8683   9.0418   9.4727  10.0736

          k = 0.2857 0.0000 0.0000 (  6849 PWs)   bands (ev):

   -45.1296 -21.8105 -21.7816 -21.7266  -6.7729  -5.9015  -5.6614  -4.4304
    -4.3754  -4.3735  -4.2213  -4.0940   3.8989   6.6474   7.0451   7.0544
     8.5485   8.5551   8.8688   8.8698   9.2900   9.9421

          k = 0.2857 0.0000 0.1900 (  6852 PWs)   bands (ev):

   -45.1294 -21.8264 -21.7809 -21.7259  -6.6674  -5.8779  -5.6012  -4.4124
    -4.3877  -4.3746  -4.2150  -4.0900   3.6044   6.4965   7.1189   7.1293
     8.1093   8.3761   8.5540   8.9572   9.2870  10.1805

          k = 0.2857 0.0000 0.3799 (  6881 PWs)   bands (ev):

   -45.1290 -21.8520 -21.7795 -21.7248  -6.5160  -5.8215  -5.4836  -4.4090
    -4.3768  -4.3747  -4.2383  -4.0618   3.1942   6.1594   6.9688   7.1844
     7.7670   8.0562   8.2368   9.0252   9.6937  10.2842

          k = 0.2857 0.1426 0.0000 (  6853 PWs)   bands (ev):

   -45.1293 -21.8098 -21.7808 -21.7418  -6.6701  -5.8753  -5.6789  -4.4297
    -4.3846  -4.3540  -4.1887  -4.0854   3.7195   6.6114   7.0190   7.1642
     7.9484   8.3148   8.7775   9.1778   9.4073  10.1372

          k = 0.2857 0.1426 0.1900 (  6853 PWs)   bands (ev):

   -45.1291 -21.8257 -21.7801 -21.7411  -6.5647  -5.8660  -5.6246  -4.4140
    -4.3908  -4.3439  -4.1766  -4.0717   3.5495   6.4573   6.6107   7.2133
     7.7258   8.2297   8.8677   9.1499   9.3969  10.1039

          k = 0.2857 0.1426 0.3799 (  6859 PWs)   bands (ev):

   -45.1287 -21.8512 -21.7788 -21.7399  -6.4162  -5.8407  -5.5104  -4.4131
    -4.3721  -4.3113  -4.1857  -4.0403   3.2528   6.0983   6.5164   6.8594
     7.2949   8.0432   8.9067   9.1934   9.7098   9.9912

          k = 0.2857 0.2851 0.0000 (  6854 PWs)   bands (ev):

   -45.1287 -21.8084 -21.7791 -21.7757  -6.4334  -5.8170  -5.7162  -4.4201
    -4.3801  -4.3104  -4.1290  -4.0817   3.3490   6.6022   6.7124   7.3734
     7.5324   7.8303   8.6032   9.1696   9.7036  10.2104

          k = 0.2857 0.2851 0.1900 (  6851 PWs)   bands (ev):

   -45.1285 -21.8240 -21.7784 -21.7750  -6.3313  -5.8361  -5.6759  -4.3943
    -4.3806  -4.2831  -4.1037  -4.0438   3.3824   6.2922   6.3089   6.7707
     7.4406   7.8336   9.0898   9.2843   9.7305   9.8376

          k = 0.2857 0.2851 0.3799 (  6854 PWs)   bands (ev):

   -45.1281 -21.8494 -21.7772 -21.7738  -6.2043  -5.8663  -5.5605  -4.3772
    -4.3530  -4.2250  -4.0701  -3.9872   3.3675   5.8161   5.9521   6.4532
     7.1065   7.3063   9.0201   9.6267   9.6773   9.8926

          k = 0.2857 0.4277 0.0000 (  6870 PWs)   bands (ev):

   -45.1282 -21.8072 -21.8027 -21.7776  -6.2410  -5.7669  -5.7442  -4.4125
    -4.3582  -4.2488  -4.1105  -4.0906   3.0861   6.1854   6.7218   7.2093
     7.6742   7.9012   8.1390   9.1766   9.8315  10.1189

          k = 0.2857 0.4277 0.1900 (  6836 PWs)   bands (ev):

   -45.1279 -21.8225 -21.8022 -21.7770  -6.1514  -5.7879  -5.7271  -4.3841
    -4.3518  -4.2020  -4.0743  -4.0335   3.2227   6.0932   6.2035   6.4076
     7.1819   7.9510   8.8882   9.3307   9.5395   9.9031

          k = 0.2857 0.4277 0.3799 (  6836 PWs)   bands (ev):

   -45.1276 -21.8478 -21.8009 -21.7759  -6.0958  -5.8136  -5.6001  -4.3553
    -4.3215  -4.1387  -4.0193  -3.9251   3.4363   5.5667   5.7076   6.1292
     6.7437   7.2920   8.2524   9.7546   9.8420  10.0837

          k = 0.4286 0.0000 0.0000 (  6810 PWs)   bands (ev):

   -45.1291 -21.8109 -21.8079 -21.7254  -6.5411  -5.8345  -5.6529  -4.4528
    -4.3950  -4.3719  -4.1989  -4.1222   3.5722   6.1420   7.2973   7.3223
     7.9902   8.0930   8.7650   8.9107   9.3429  10.8647

          k = 0.4286 0.0000 0.1900 (  6842 PWs)   bands (ev):

   -45.1289 -21.8248 -21.8089 -21.7247  -6.4850  -5.7908  -5.5854  -4.4277
    -4.3956  -4.3859  -4.1765  -4.0946   3.3551   6.1212   7.1453   7.4320
     7.5122   7.9758   8.6842   8.9120   9.2696  10.6213

          k = 0.4286 0.0000 0.3799 (  6857 PWs)   bands (ev):

   -45.1285 -21.8502 -21.8073 -21.7235  -6.4374  -5.7043  -5.4187  -4.4083
    -4.3965  -4.3804  -4.2249  -3.9849   3.0358   5.9613   6.6006   7.4053
     7.5186   7.9169   7.9337   8.9134   9.8605  10.1666

          k = 0.4286 0.1426 0.0000 (  6839 PWs)   bands (ev):

   -45.1288 -21.8101 -21.8071 -21.7405  -6.4435  -5.8114  -5.6923  -4.4403
    -4.3753  -4.3400  -4.1715  -4.1138   3.4218   6.1543   7.0921   7.4910
     7.5407   8.1345   8.5163   9.1673   9.4442  10.6699

          k = 0.4286 0.1426 0.1900 (  6854 PWs)   bands (ev):

   -45.1286 -21.8241 -21.8080 -21.7398  -6.3816  -5.7879  -5.6359  -4.4184
    -4.3788  -4.3271  -4.1461  -4.0747   3.3346   6.1250   6.5301   7.0173
     7.5854   8.3604   8.5233   9.1600   9.4096  10.2920

          k = 0.4286 0.1426 0.3799 (  6844 PWs)   bands (ev):

   -45.1282 -21.8494 -21.8066 -21.7387  -6.3338  -5.7386  -5.4821  -4.4076
    -4.3492  -4.3025  -4.1687  -3.9652   3.1552   5.9278   6.3395   6.5453
     6.9239   8.1826   8.8503   9.0347   9.4663  10.0789

          k = 0.4286 0.2851 0.0000 (  6861 PWs)   bands (ev):

   -45.1281 -21.8083 -21.8055 -21.7743  -6.2391  -5.7657  -5.7427  -4.4126
    -4.3581  -4.2476  -4.1124  -4.0890   3.0853   6.1703   6.7324   7.2084
     7.6693   7.9015   8.1403   9.1757   9.8154  10.1332

          k = 0.4286 0.2851 0.1900 (  6831 PWs)   bands (ev):

   -45.1279 -21.8225 -21.8062 -21.7736  -6.1498  -5.7859  -5.7265  -4.3843
    -4.3514  -4.2011  -4.0769  -4.0303   3.2229   6.0825   6.2000   6.4139
     7.1841   7.9510   8.8772   9.3306   9.5404   9.9017

          k = 0.4286 0.2851 0.3799 (  6839 PWs)   bands (ev):

   -45.1275 -21.8477 -21.8049 -21.7725  -6.0957  -5.8104  -5.5999  -4.3556
    -4.3207  -4.1384  -4.0230  -3.9197   3.4389   5.5632   5.7117   6.1222
     6.7374   7.2969   8.2444   9.7481   9.8354  10.0879

          k = 0.4286 0.4277 0.0000 (  6854 PWs)   bands (ev):

   -45.1276 -21.8069 -21.8042 -21.8010  -6.1232  -5.7294  -5.7219  -4.3971
    -4.3113  -4.1776  -4.1298  -4.0232   2.8228   6.0305   6.4297   7.3856
     7.4879   7.8775   8.0525   8.9088   9.4760  10.2815

          k = 0.4286 0.4277 0.1900 (  6848 PWs)   bands (ev):

   -45.1274 -21.8210 -21.8047 -21.8007  -5.9874  -5.7780  -5.7692  -4.3661
    -4.3052  -4.0951  -4.0401  -3.9912   3.0715   5.9815   6.1861   6.2413
     6.6252   7.9192   8.5242   9.2423   9.2635  10.2732

          k = 0.4286 0.4277 0.3799 (  6843 PWs)   bands (ev):

   -45.1270 -21.8462 -21.8035 -21.7995  -5.9026  -5.8577  -5.6830  -4.3161
    -4.2993  -3.9949  -3.9039  -3.8974   3.6338   5.3667   5.4775   5.9080
     6.5393   6.8484   7.1883  10.0746  10.0949  10.2601

     highest occupied level (ev):    10.8647

!    total energy              =    -380.57765909 Ry
     estimated scf accuracy    <          7.0E-09 Ry

     The total energy is the sum of the following terms:
     one-electron contribution =     -79.45684812 Ry
     hartree contribution      =      69.86156491 Ry
     xc contribution           =    -102.68510851 Ry
     ewald contribution        =    -268.29726737 Ry

     convergence has been achieved in  15 iterations

     negative rho (up, down):  1.581E-02 0.000E+00

     Forces acting on atoms (cartesian axes, Ry/au):

     atom    1 type  1   force =     0.00000000    0.00000000    0.00047053
     atom    2 type  2   force =     0.00000000    0.00000000    0.00007020
     atom    3 type  3   force =     0.00000000    0.00000000   -0.00049352
     atom    4 type  3   force =     0.00000000    0.00000000   -0.00023839
     atom    5 type  3   force =     0.00000000    0.00000000    0.00019118

     Total force =     0.000751     Total SCF correction =     0.000262
     SCF correction compared to forces is large: reduce conv_thr to get better values


     Computing stress (Cartesian axis) and pressure


     negative rho (up, down):  1.581E-02 0.000E+00
          total   stress  (Ry/bohr**3)                   (kbar)     P=        5.55
   0.00005747   0.00000000   0.00000000            8.45        0.00        0.00
   0.00000000   0.00003155   0.00000000            0.00        4.64        0.00
   0.00000000   0.00000000   0.00002409            0.00        0.00        3.54

     Energy error            =      2.3E-05 Ry
     Gradient error          =      4.9E-04 Ry/Bohr

     bfgs converged in   2 scf cycles and   1 bfgs steps
     (criteria: energy <  1.0E-04 Ry, force <  1.0E-03 Ry/Bohr)

     End of BFGS Geometry Optimization

     Final energy             =    -380.5776590873 Ry

     File ./PTO2.bfgs deleted, as requested
Begin final coordinates

ATOMIC_POSITIONS (crystal)
Pb            0.0000000000        0.0000000000        1.0051904083
Ti            0.5000000000        0.5000000000        0.5395123895
O             0.5000000000        0.5000000000        0.0994787311
O             0.5000000000        0.0000000000        0.6115513795
O             0.0000000000        0.5000000000        0.6115513795
End final coordinates



     Writing all to output data dir ./PTO2.save/
 
     init_run     :     17.26s CPU     17.67s WALL (       1 calls)
     electrons    :    883.70s CPU    911.97s WALL (       1 calls)
     forces       :      3.51s CPU      3.60s WALL (       1 calls)
     stress       :     22.21s CPU     22.45s WALL (       1 calls)

     Called by init_run:
     wfcinit      :     12.28s CPU     12.56s WALL (       1 calls)
     potinit      :      0.18s CPU      0.19s WALL (       1 calls)
     hinit0       :      3.93s CPU      3.96s WALL (       1 calls)

     Called by electrons:
     c_bands      :    802.37s CPU    827.40s WALL (      15 calls)
     sum_band     :     69.78s CPU     71.79s WALL (      15 calls)
     v_of_rho     :      0.44s CPU      0.45s WALL (      16 calls)
     newd         :     11.54s CPU     12.77s WALL (      16 calls)
     mix_rho      :      0.28s CPU      0.30s WALL (      15 calls)

     Called by c_bands:
     init_us_2    :     19.65s CPU     19.75s WALL (    1584 calls)
     init_us_2:cp :     19.60s CPU     19.72s WALL (    1584 calls)
     ccgdiagg     :    699.31s CPU    721.43s WALL (     720 calls)
     wfcrot       :    102.89s CPU    104.63s WALL (     720 calls)

     Called by *cgdiagg:
     h_psi        :    543.02s CPU    556.71s WALL (   60212 calls)
     s_psi        :    133.59s CPU    140.24s WALL (  119704 calls)

     Called by h_psi:
     h_psi:calbec :     69.30s CPU     71.50s WALL (   60212 calls)
     vloc_psi     :    399.40s CPU    408.30s WALL (   60212 calls)
     add_vuspsi   :     68.67s CPU     71.97s WALL (   60212 calls)
     hs_1psi      :    520.14s CPU    534.34s WALL (   59492 calls)
     s_1psi       :    133.75s CPU    138.49s WALL (   59492 calls)

     General routines
     calbec       :    134.42s CPU    141.39s WALL (  120664 calls)
     fft          :      0.15s CPU      0.16s WALL (      72 calls)
     ffts         :      0.03s CPU      0.03s WALL (      15 calls)
     fftw         :    364.53s CPU    371.36s WALL (  167368 calls)
 
     Parallel routines
 
     PWSCF        :  15m28.13s CPU  15m58.70s WALL

 
   This run was terminated on:   9: 7:29  11Apr2022            

=------------------------------------------------------------------------------=
   JOB DONE.
=------------------------------------------------------------------------------=
