
     Program PWSCF v.7.0 starts on 11Apr2022 at  8:56:31 

     This program is part of the open-source Quantum ESPRESSO suite
     for quantum simulation of materials; please cite
         "P. Giannozzi et al., J. Phys.:Condens. Matter 21 395502 (2009);
         "P. Giannozzi et al., J. Phys.:Condens. Matter 29 465901 (2017);
         "P. Giannozzi et al., J. Chem. Phys. 152 154105 (2020);
          URL http://www.quantum-espresso.org", 
     in publications or presentations arising from this work. More details at
     http://www.quantum-espresso.org/quote

     Parallel version (MPI), running on     1 processors

     MPI processes distributed on     1 nodes
     89570 MiB available memory on the printing compute node when the environment starts
 
     Waiting for input...
     Reading input from standard input
Warning: card &CELL ignored
Warning: card  CELL_DYNAMICS = 'BFGS', ignored
Warning: card  PRESS=0.1D0, ignored
Warning: card / ignored

     Current dimensions of program PWSCF are:
     Max number of different atomic species (ntypx) = 10
     Max number of k-points (npk) =  40000
     Max angular momentum in pseudopotentials (lmaxx) =  4
     Message from routine setup:
     using ibrav=0 with symmetry is DISCOURAGED, use correct ibrav instead

     Subspace diagonalization in iterative solution of the eigenvalue problem:
     a serial algorithm will be used

 
     G-vector sticks info
     --------------------
     sticks:   dense  smooth     PW     G-vecs:    dense   smooth      PW
     Sum        1685    1685    481                54925    54925    8217
 
     Using Slab Decomposition
 


     bravais-lattice index     =            0
     lattice parameter (alat)  =       7.2719  a.u.
     unit-cell volume          =     406.4714 (a.u.)^3
     number of atoms/cell      =            5
     number of atomic types    =            3
     number of electrons       =        44.00
     number of Kohn-Sham states=           22
     kinetic-energy cutoff     =     100.0000  Ry
     charge density cutoff     =     400.0000  Ry
     scf convergence threshold =      1.0E-08
     mixing beta               =       0.7000
     number of iterations used =            8  plain     mixing
     energy convergence thresh.=      1.0E-04
     force convergence thresh. =      1.0E-03
     Exchange-correlation= SLA  PZ   NOGX NOGC
                           (   1   1   0   0   0   0   0)
     nstep                     =           50


     celldm(1)=   7.271855  celldm(2)=   0.000000  celldm(3)=   0.000000
     celldm(4)=   0.000000  celldm(5)=   0.000000  celldm(6)=   0.000000

     crystal axes: (cart. coord. in units of alat)
               a(1) = (   1.000000   0.000000   0.000000 )  
               a(2) = (   0.000000   1.002001   0.000000 )  
               a(3) = (   0.000000   0.000000   1.054936 )  

     reciprocal axes: (cart. coord. in units 2 pi/alat)
               b(1) = (  1.000000  0.000000  0.000000 )  
               b(2) = (  0.000000  0.998003  0.000000 )  
               b(3) = (  0.000000  0.000000  0.947925 )  


     PseudoPot. # 1 for Pb read from file:
     ./Pb_LDA.UPF
     MD5 check sum: 062a37469794d955244864f8fe2e5624
     Pseudo is Ultrasoft + core correction, Zval = 14.0
     Generated by new atomic code, or converted to UPF format
     Using radial grid of  899 points,  6 beta functions with: 
                l(1) =   0
                l(2) =   0
                l(3) =   1
                l(4) =   1
                l(5) =   2
                l(6) =   2
     Q(r) pseudized with  6 coefficients,  rinner =    1.000   1.000   1.000
                                                       1.000   1.000

     PseudoPot. # 2 for Ti read from file:
     ./Ti_LDA.UPF
     MD5 check sum: 0d9f225c038fe889ca2a701dcc8d72cb
     Pseudo is Ultrasoft + core correction, Zval = 12.0
     Generated by new atomic code, or converted to UPF format
     Using radial grid of  851 points,  6 beta functions with: 
                l(1) =   0
                l(2) =   0
                l(3) =   1
                l(4) =   1
                l(5) =   2
                l(6) =   2
     Q(r) pseudized with  6 coefficients,  rinner =    1.000   1.000   1.000
                                                       1.000   1.000

     PseudoPot. # 3 for O  read from file:
     ./O_LDA.UPF
     MD5 check sum: 194b818514d2a7dbb603bb78519a4f40
     Pseudo is Ultrasoft + core correction, Zval =  6.0
     Generated by new atomic code, or converted to UPF format
     Using radial grid of  737 points,  5 beta functions with: 
                l(1) =   0
                l(2) =   0
                l(3) =   1
                l(4) =   1
                l(5) =   2
     Q(r) pseudized with  8 coefficients,  rinner =    0.900   0.900   0.900
                                                       0.900   0.900

     atomic species   valence    mass     pseudopotential
        Pb            14.00   207.20000     Pb( 1.00)
        Ti            12.00    47.88000     Ti( 1.00)
        O              6.00    16.00000     O ( 1.00)

      4 Sym. Ops. (no inversion) found



   Cartesian axes

     site n.     atom                  positions (alat units)
         1           Pb  tau(   1) = (   0.0000000   0.0000000   1.0604118  )
         2           Ti  tau(   2) = (   0.5000000   0.5010005   0.5691512  )
         3           O   tau(   3) = (   0.5000000   0.5010005   0.1049437  )
         4           O   tau(   4) = (   0.5000000   0.0000000   0.6451477  )
         5           O   tau(   5) = (   0.0000000   0.5010005   0.6451477  )

     number of k points=    48
                       cart. coord. in units 2pi/alat
        k(    1) = (   0.0000000   0.0000000   0.0000000), wk =   0.0081633
        k(    2) = (   0.0000000   0.0000000   0.1895849), wk =   0.0163265
        k(    3) = (   0.0000000   0.0000000   0.3791698), wk =   0.0163265
        k(    4) = (   0.0000000   0.1425719   0.0000000), wk =   0.0163265
        k(    5) = (   0.0000000   0.1425719   0.1895849), wk =   0.0326531
        k(    6) = (   0.0000000   0.1425719   0.3791698), wk =   0.0326531
        k(    7) = (   0.0000000   0.2851437   0.0000000), wk =   0.0163265
        k(    8) = (   0.0000000   0.2851437   0.1895849), wk =   0.0326531
        k(    9) = (   0.0000000   0.2851437   0.3791698), wk =   0.0326531
        k(   10) = (   0.0000000   0.4277156   0.0000000), wk =   0.0163265
        k(   11) = (   0.0000000   0.4277156   0.1895849), wk =   0.0326531
        k(   12) = (   0.0000000   0.4277156   0.3791698), wk =   0.0326531
        k(   13) = (   0.1428571   0.0000000   0.0000000), wk =   0.0163265
        k(   14) = (   0.1428571   0.0000000   0.1895849), wk =   0.0326531
        k(   15) = (   0.1428571   0.0000000   0.3791698), wk =   0.0326531
        k(   16) = (   0.1428571   0.1425719   0.0000000), wk =   0.0326531
        k(   17) = (   0.1428571   0.1425719   0.1895849), wk =   0.0653061
        k(   18) = (   0.1428571   0.1425719   0.3791698), wk =   0.0653061
        k(   19) = (   0.1428571   0.2851437   0.0000000), wk =   0.0326531
        k(   20) = (   0.1428571   0.2851437   0.1895849), wk =   0.0653061
        k(   21) = (   0.1428571   0.2851437   0.3791698), wk =   0.0653061
        k(   22) = (   0.1428571   0.4277156   0.0000000), wk =   0.0326531
        k(   23) = (   0.1428571   0.4277156   0.1895849), wk =   0.0653061
        k(   24) = (   0.1428571   0.4277156   0.3791698), wk =   0.0653061
        k(   25) = (   0.2857143   0.0000000   0.0000000), wk =   0.0163265
        k(   26) = (   0.2857143   0.0000000   0.1895849), wk =   0.0326531
        k(   27) = (   0.2857143   0.0000000   0.3791698), wk =   0.0326531
        k(   28) = (   0.2857143   0.1425719   0.0000000), wk =   0.0326531
        k(   29) = (   0.2857143   0.1425719   0.1895849), wk =   0.0653061
        k(   30) = (   0.2857143   0.1425719   0.3791698), wk =   0.0653061
        k(   31) = (   0.2857143   0.2851437   0.0000000), wk =   0.0326531
        k(   32) = (   0.2857143   0.2851437   0.1895849), wk =   0.0653061
        k(   33) = (   0.2857143   0.2851437   0.3791698), wk =   0.0653061
        k(   34) = (   0.2857143   0.4277156   0.0000000), wk =   0.0326531
        k(   35) = (   0.2857143   0.4277156   0.1895849), wk =   0.0653061
        k(   36) = (   0.2857143   0.4277156   0.3791698), wk =   0.0653061
        k(   37) = (   0.4285714   0.0000000   0.0000000), wk =   0.0163265
        k(   38) = (   0.4285714   0.0000000   0.1895849), wk =   0.0326531
        k(   39) = (   0.4285714   0.0000000   0.3791698), wk =   0.0326531
        k(   40) = (   0.4285714   0.1425719   0.0000000), wk =   0.0326531
        k(   41) = (   0.4285714   0.1425719   0.1895849), wk =   0.0653061
        k(   42) = (   0.4285714   0.1425719   0.3791698), wk =   0.0653061
        k(   43) = (   0.4285714   0.2851437   0.0000000), wk =   0.0326531
        k(   44) = (   0.4285714   0.2851437   0.1895849), wk =   0.0653061
        k(   45) = (   0.4285714   0.2851437   0.3791698), wk =   0.0653061
        k(   46) = (   0.4285714   0.4277156   0.0000000), wk =   0.0326531
        k(   47) = (   0.4285714   0.4277156   0.1895849), wk =   0.0653061
        k(   48) = (   0.4285714   0.4277156   0.3791698), wk =   0.0653061

     Dense  grid:    54925 G-vectors     FFT dimensions: (  48,  48,  50)

     Estimated max dynamical RAM per process >     328.13 MB

     Check: negative core charge=   -0.000003

     Initial potential from superposition of free atoms

     starting charge      42.9982, renormalised to      44.0000

     negative rho (up, down):  1.705E-02 0.000E+00
     Starting wfcs are   31 randomized atomic wfcs

     total cpu time spent up to now is       18.6 secs

     Self-consistent Calculation

     iteration #  1     ecut=   100.00 Ry     beta= 0.70
     CG style diagonalization
     ethr =  1.00E-02,  avg # of iterations =  2.1

     negative rho (up, down):  1.432E-02 0.000E+00

     total cpu time spent up to now is       51.7 secs

     total energy              =    -380.06043891 Ry
     estimated scf accuracy    <       1.02692818 Ry

     iteration #  2     ecut=   100.00 Ry     beta= 0.70
     CG style diagonalization
     ethr =  2.33E-03,  avg # of iterations =  4.9

     negative rho (up, down):  1.503E-02 0.000E+00

     total cpu time spent up to now is      113.8 secs

     total energy              =    -379.76801435 Ry
     estimated scf accuracy    <       3.87815947 Ry

     iteration #  3     ecut=   100.00 Ry     beta= 0.70
     CG style diagonalization
     ethr =  2.33E-03,  avg # of iterations =  4.5

     negative rho (up, down):  1.562E-02 0.000E+00

     total cpu time spent up to now is      171.1 secs

     total energy              =    -380.54757480 Ry
     estimated scf accuracy    <       0.25166686 Ry

     iteration #  4     ecut=   100.00 Ry     beta= 0.70
     CG style diagonalization
     ethr =  5.72E-04,  avg # of iterations =  3.4

     negative rho (up, down):  1.566E-02 0.000E+00

     total cpu time spent up to now is      215.0 secs

     total energy              =    -380.56074783 Ry
     estimated scf accuracy    <       0.05239960 Ry

     iteration #  5     ecut=   100.00 Ry     beta= 0.70
     CG style diagonalization
     ethr =  1.19E-04,  avg # of iterations =  3.8

     negative rho (up, down):  1.566E-02 0.000E+00

     total cpu time spent up to now is      263.4 secs

     total energy              =    -380.57597744 Ry
     estimated scf accuracy    <       0.00478611 Ry

     iteration #  6     ecut=   100.00 Ry     beta= 0.70
     CG style diagonalization
     ethr =  1.09E-05,  avg # of iterations =  4.1

     negative rho (up, down):  1.565E-02 0.000E+00

     total cpu time spent up to now is      315.2 secs

     total energy              =    -380.57756793 Ry
     estimated scf accuracy    <       0.00722847 Ry

     iteration #  7     ecut=   100.00 Ry     beta= 0.70
     CG style diagonalization
     ethr =  1.09E-05,  avg # of iterations =  3.2

     negative rho (up, down):  1.566E-02 0.000E+00

     total cpu time spent up to now is      356.2 secs

     total energy              =    -380.57707303 Ry
     estimated scf accuracy    <       0.00269166 Ry

     iteration #  8     ecut=   100.00 Ry     beta= 0.70
     CG style diagonalization
     ethr =  6.12E-06,  avg # of iterations =  3.6

     negative rho (up, down):  1.568E-02 0.000E+00

     total cpu time spent up to now is      401.7 secs

     total energy              =    -380.57760649 Ry
     estimated scf accuracy    <       0.00000893 Ry

     iteration #  9     ecut=   100.00 Ry     beta= 0.70
     CG style diagonalization
     c_bands:  1 eigenvalues not converged
     c_bands:  1 eigenvalues not converged
     c_bands:  1 eigenvalues not converged
     c_bands:  1 eigenvalues not converged
     c_bands:  1 eigenvalues not converged
     ethr =  2.03E-08,  avg # of iterations =  8.2

     negative rho (up, down):  1.571E-02 0.000E+00

     total cpu time spent up to now is      503.6 secs

     total energy              =    -380.57766393 Ry
     estimated scf accuracy    <       0.00001175 Ry

     iteration # 10     ecut=   100.00 Ry     beta= 0.70
     CG style diagonalization
     ethr =  2.03E-08,  avg # of iterations =  3.4

     negative rho (up, down):  1.576E-02 0.000E+00

     total cpu time spent up to now is      545.8 secs

     total energy              =    -380.57766334 Ry
     estimated scf accuracy    <       0.00000689 Ry

     iteration # 11     ecut=   100.00 Ry     beta= 0.70
     CG style diagonalization
     ethr =  1.57E-08,  avg # of iterations =  3.3

     negative rho (up, down):  1.580E-02 0.000E+00

     total cpu time spent up to now is      586.9 secs

     total energy              =    -380.57766247 Ry
     estimated scf accuracy    <       0.00000371 Ry

     iteration # 12     ecut=   100.00 Ry     beta= 0.70
     CG style diagonalization
     ethr =  8.43E-09,  avg # of iterations =  4.3

     negative rho (up, down):  1.580E-02 0.000E+00

     total cpu time spent up to now is      640.5 secs

     total energy              =    -380.57766380 Ry
     estimated scf accuracy    <       0.00000063 Ry

     iteration # 13     ecut=   100.00 Ry     beta= 0.70
     CG style diagonalization
     ethr =  1.42E-09,  avg # of iterations =  6.3

     negative rho (up, down):  1.580E-02 0.000E+00

     total cpu time spent up to now is      718.1 secs

     total energy              =    -380.57766454 Ry
     estimated scf accuracy    <       0.00000004 Ry

     iteration # 14     ecut=   100.00 Ry     beta= 0.70
     CG style diagonalization
     c_bands:  1 eigenvalues not converged
     c_bands:  1 eigenvalues not converged
     ethr =  8.80E-11,  avg # of iterations =  9.6

     negative rho (up, down):  1.581E-02 0.000E+00

     total cpu time spent up to now is      838.9 secs

     total energy              =    -380.57766480 Ry
     estimated scf accuracy    <       0.00000001 Ry

     iteration # 15     ecut=   100.00 Ry     beta= 0.70
     CG style diagonalization
     ethr =  2.41E-11,  avg # of iterations =  6.1

     negative rho (up, down):  1.581E-02 0.000E+00

     total cpu time spent up to now is      915.9 secs

     End of self-consistent calculation

          k = 0.0000 0.0000 0.0000 (  6909 PWs)   bands (ev):

   -45.1711 -21.8484 -21.7706 -21.7685  -7.1680  -6.0154  -5.7553  -4.4133
    -4.4127  -4.3725  -4.2525  -4.1462   4.8352   6.7319   6.7477   7.0996
     8.7102   8.7138   8.9430   9.2862   9.4429   9.4460

          k = 0.0000 0.0000 0.1896 (  6863 PWs)   bands (ev):

   -45.1709 -21.8643 -21.7700 -21.7679  -7.0279  -5.9738  -5.7080  -4.4253
    -4.4247  -4.3715  -4.2448  -4.1983   4.1886   6.7723   6.7861   7.4188
     8.5235   8.5297   8.8865   9.1707   9.5320   9.5339

          k = 0.0000 0.0000 0.3792 (  6872 PWs)   bands (ev):

   -45.1705 -21.8897 -21.7690 -21.7668  -6.7840  -5.9009  -5.6376  -4.4447
    -4.4441  -4.3698  -4.2882  -4.2338   3.5256   6.7677   6.8184   6.8281
     8.3247   8.3366   8.7989   9.6240   9.6248  10.3151

          k = 0.0000 0.1426 0.0000 (  6885 PWs)   bands (ev):

   -45.1708 -21.8478 -21.7838 -21.7700  -7.0598  -5.9898  -5.7316  -4.4322
    -4.4115  -4.3837  -4.2552  -4.1364   4.4525   6.7764   6.8292   7.1689
     8.6413   8.7338   8.9590   9.1495   9.1817   9.5474

          k = 0.0000 0.1426 0.1896 (  6872 PWs)   bands (ev):

   -45.1706 -21.8636 -21.7831 -21.7693  -6.9272  -5.9564  -5.6821  -4.4350
    -4.4239  -4.3830  -4.2496  -4.1699   3.9732   6.6558   6.8736   7.4590
     8.2853   8.5225   8.8926   9.0763   9.2696   9.7316

          k = 0.0000 0.1426 0.3792 (  6889 PWs)   bands (ev):

   -45.1702 -21.8889 -21.7820 -21.7683  -6.7027  -5.8977  -5.6018  -4.4437
    -4.4369  -4.3819  -4.2517  -4.2200   3.4057   6.4083   6.9219   7.0889
     8.0255   8.3305   8.9791   9.1211   9.3709  10.4256

          k = 0.0000 0.2851 0.0000 (  6865 PWs)   bands (ev):

   -45.1702 -21.8464 -21.8180 -21.7685  -6.8006  -5.9302  -5.6865  -4.4655
    -4.4096  -4.4078  -4.2563  -4.1324   3.8681   6.6213   7.0132   7.0468
     8.5151   8.5374   8.8384   8.8393   9.2579   9.9098

          k = 0.0000 0.2851 0.1896 (  6868 PWs)   bands (ev):

   -45.1699 -21.8619 -21.8173 -21.7679  -6.6972  -5.9061  -5.6274  -4.4479
    -4.4219  -4.4086  -4.2492  -4.1303   3.5728   6.4692   7.1037   7.1087
     8.0858   8.3595   8.5306   8.9314   9.2508  10.1422

          k = 0.0000 0.2851 0.3792 (  6885 PWs)   bands (ev):

   -45.1696 -21.8869 -21.8160 -21.7668  -6.5485  -5.8490  -5.5125  -4.4429
    -4.4129  -4.4087  -4.2727  -4.1040   3.1626   6.1359   6.9470   7.1697
     7.7532   8.0353   8.2253   9.0011   9.6561  10.2503

          k = 0.0000 0.4277 0.0000 (  6838 PWs)   bands (ev):

   -45.1696 -21.8467 -21.8438 -21.7674  -6.5723  -5.8648  -5.6775  -4.4878
    -4.4286  -4.4065  -4.2367  -4.1589   3.5435   6.1251   7.2690   7.3161
     7.9522   8.0715   8.7357   8.8849   9.3104  10.8255

          k = 0.0000 0.4277 0.1896 (  6848 PWs)   bands (ev):

   -45.1694 -21.8604 -21.8445 -21.7667  -6.5178  -5.8209  -5.6107  -4.4632
    -4.4292  -4.4202  -4.2122  -4.1355   3.3241   6.1032   7.1200   7.4230
     7.4893   7.9561   8.6585   8.8892   9.2335  10.5876

          k = 0.0000 0.4277 0.3792 (  6872 PWs)   bands (ev):

   -45.1690 -21.8851 -21.8431 -21.7656  -6.4706  -5.7347  -5.4473  -4.4422
    -4.4301  -4.4168  -4.2604  -4.0292   3.0024   5.9400   6.5855   7.3908
     7.5015   7.9043   7.9152   8.8934   9.8307  10.1367

          k = 0.1429 0.0000 0.0000 (  6883 PWs)   bands (ev):

   -45.1708 -21.8478 -21.7863 -21.7678  -7.0583  -5.9892  -5.7314  -4.4317
    -4.4121  -4.3839  -4.2552  -4.1358   4.4534   6.7849   6.8137   7.1676
     8.6457   8.7294   8.9607   9.1507   9.1803   9.5471

          k = 0.1429 0.0000 0.1896 (  6868 PWs)   bands (ev):

   -45.1706 -21.8635 -21.7856 -21.7672  -6.9256  -5.9561  -5.6819  -4.4345
    -4.4244  -4.3832  -4.2503  -4.1684   3.9744   6.6641   6.8601   7.4568
     8.2847   8.5162   8.8936   9.0811   9.2689   9.7325

          k = 0.1429 0.0000 0.3792 (  6882 PWs)   bands (ev):

   -45.1702 -21.8889 -21.7845 -21.7662  -6.7008  -5.8981  -5.6017  -4.4443
    -4.4366  -4.3821  -4.2533  -4.2167   3.4073   6.4140   6.9128   7.0873
     8.0296   8.3186   8.9762   9.1278   9.3688  10.4249

          k = 0.1429 0.1426 0.0000 (  6866 PWs)   bands (ev):

   -45.1705 -21.8472 -21.7856 -21.7831  -6.9513  -5.9630  -5.7203  -4.4354
    -4.4260  -4.3907  -4.2403  -4.1267   4.1771   6.7342   6.9093   7.2340
     8.2815   8.5105   9.0071   9.0415   9.4073   9.6908

          k = 0.1429 0.1426 0.1896 (  6870 PWs)   bands (ev):

   -45.1703 -21.8628 -21.7850 -21.7824  -6.8242  -5.9393  -5.6708  -4.4403
    -4.4260  -4.3894  -4.2334  -4.1458   3.8292   6.6235   6.6944   7.4707
     8.1504   8.2857   8.8254   9.1514   9.4374   9.7493

          k = 0.1429 0.1426 0.3792 (  6869 PWs)   bands (ev):

   -45.1699 -21.8880 -21.7838 -21.7813  -6.6140  -5.8999  -5.5846  -4.4594
    -4.4005  -4.3852  -4.2336  -4.1822   3.3537   6.4361   6.4641   7.1542
     8.0635   8.0921   8.7453   9.2281   9.4767  10.3010

          k = 0.1429 0.2851 0.0000 (  6869 PWs)   bands (ev):

   -45.1699 -21.8458 -21.8172 -21.7841  -6.6962  -5.9037  -5.7041  -4.4643
    -4.4194  -4.3885  -4.2231  -4.1232   3.6916   6.5882   6.9954   7.1354
     7.9178   8.2881   8.7439   9.1566   9.3763  10.1048

          k = 0.1429 0.2851 0.1896 (  6871 PWs)   bands (ev):

   -45.1696 -21.8612 -21.8165 -21.7834  -6.5929  -5.8941  -5.6507  -4.4490
    -4.4255  -4.3785  -4.2104  -4.1112   3.5199   6.4316   6.5924   7.1873
     7.6985   8.2066   8.8456   9.1239   9.3667  10.0674

          k = 0.1429 0.2851 0.3792 (  6868 PWs)   bands (ev):

   -45.1693 -21.8861 -21.8152 -21.7823  -6.4469  -5.8684  -5.5391  -4.4479
    -4.4070  -4.3465  -4.2192  -4.0817   3.2225   6.0752   6.4999   6.8385
     7.2741   8.0200   8.8917   9.1736   9.6731   9.9576

          k = 0.1429 0.4277 0.0000 (  6844 PWs)   bands (ev):

   -45.1693 -21.8459 -21.8430 -21.7828  -6.4726  -5.8417  -5.7176  -4.4750
    -4.4102  -4.3742  -4.2081  -4.1501   3.3961   6.1381   7.0710   7.4642
     7.5087   8.1014   8.4914   9.1475   9.4127  10.6283

          k = 0.1429 0.4277 0.1896 (  6868 PWs)   bands (ev):

   -45.1691 -21.8597 -21.8437 -21.7822  -6.4125  -5.8180  -5.6616  -4.4535
    -4.4136  -4.3611  -4.1810  -4.1150   3.3059   6.1076   6.5128   6.9882
     7.5578   8.3413   8.5023   9.1353   9.3783  10.2577

          k = 0.1429 0.4277 0.3792 (  6857 PWs)   bands (ev):

   -45.1687 -21.8844 -21.8423 -21.7811  -6.3651  -5.7691  -5.5108  -4.4425
    -4.3847  -4.3368  -4.2030  -4.0092   3.1230   5.9061   6.3231   6.5287
     6.9060   8.1570   8.8403   9.0190   9.4405  10.0422

          k = 0.2857 0.0000 0.0000 (  6869 PWs)   bands (ev):

   -45.1701 -21.8464 -21.8212 -21.7663  -6.7958  -5.9282  -5.6855  -4.4649
    -4.4102  -4.4084  -4.2554  -4.1313   3.8684   6.6160   7.0119   7.0313
     8.5193   8.5305   8.8403   8.8405   9.2573   9.9113

          k = 0.2857 0.0000 0.1896 (  6865 PWs)   bands (ev):

   -45.1699 -21.8619 -21.8205 -21.7657  -6.6921  -5.9049  -5.6266  -4.4473
    -4.4224  -4.4093  -4.2497  -4.1271   3.5750   6.4680   7.0954   7.0988
     8.0843   8.3532   8.5265   8.9279   9.2554  10.1468

          k = 0.2857 0.0000 0.3792 (  6886 PWs)   bands (ev):

   -45.1695 -21.8868 -21.8192 -21.7646  -6.5430  -5.8493  -5.5118  -4.4434
    -4.4123  -4.4094  -4.2735  -4.0989   3.1671   6.1384   6.9422   7.1617
     7.7453   8.0305   8.2137   8.9952   9.6658  10.2443

          k = 0.2857 0.1426 0.0000 (  6861 PWs)   bands (ev):

   -45.1698 -21.8458 -21.8204 -21.7815  -6.6929  -5.9023  -5.7033  -4.4642
    -4.4195  -4.3887  -4.2227  -4.1226   3.6914   6.5819   6.9903   7.1317
     7.9200   8.2882   8.7456   9.1503   9.3764  10.1074

          k = 0.2857 0.1426 0.1896 (  6870 PWs)   bands (ev):

   -45.1696 -21.8612 -21.8198 -21.7809  -6.5894  -5.8932  -5.6501  -4.4488
    -4.4256  -4.3787  -4.2110  -4.1088   3.5212   6.4299   6.5862   7.1850
     7.6985   8.2013   8.8390   9.1215   9.3682  10.0717

          k = 0.2857 0.1426 0.3792 (  6868 PWs)   bands (ev):

   -45.1692 -21.8860 -21.8185 -21.7797  -6.4432  -5.8683  -5.5386  -4.4477
    -4.4071  -4.3467  -4.2207  -4.0774   3.2256   6.0774   6.4946   6.8369
     7.2678   8.0148   8.8846   9.1654   9.6816   9.9537

          k = 0.2857 0.2851 0.0000 (  6866 PWs)   bands (ev):

   -45.1692 -21.8444 -21.8187 -21.8154  -6.4560  -5.8446  -5.7415  -4.4545
    -4.4149  -4.3452  -4.1625  -4.1184   3.3248   6.5733   6.6815   7.3395
     7.5027   7.8048   8.5710   9.1360   9.6773  10.1778

          k = 0.2857 0.2851 0.1896 (  6863 PWs)   bands (ev):

   -45.1690 -21.8596 -21.8181 -21.8147  -6.3561  -5.8636  -5.7018  -4.4291
    -4.4153  -4.3180  -4.1378  -4.0809   3.3567   6.2675   6.2834   6.7416
     7.4127   7.8039   9.0566   9.2523   9.7039   9.8070

          k = 0.2857 0.2851 0.3792 (  6871 PWs)   bands (ev):

   -45.1686 -21.8842 -21.8169 -21.8136  -6.2314  -5.8937  -5.5889  -4.4118
    -4.3884  -4.2602  -4.1053  -4.0247   3.3406   5.7963   5.9299   6.4317
     7.0802   7.2766   8.9918   9.5972   9.6490   9.8637

          k = 0.2857 0.4277 0.0000 (  6878 PWs)   bands (ev):

   -45.1687 -21.8441 -21.8414 -21.8173  -6.2631  -5.7944  -5.7707  -4.4468
    -4.3930  -4.2837  -4.1464  -4.1241   3.0643   6.1552   6.6915   7.1803
     7.6409   7.8763   8.1062   9.1427   9.8035  10.0808

          k = 0.2857 0.4277 0.1896 (  6849 PWs)   bands (ev):

   -45.1684 -21.8581 -21.8418 -21.8167  -6.1764  -5.8153  -5.7533  -4.4189
    -4.3866  -4.2367  -4.1100  -4.0689   3.1993   6.0665   6.1772   6.3814
     7.1536   7.9237   8.8498   9.2993   9.5077   9.8758

          k = 0.2857 0.4277 0.3792 (  6849 PWs)   bands (ev):

   -45.1681 -21.8826 -21.8406 -21.8156  -6.1228  -5.8412  -5.6286  -4.3903
    -4.3570  -4.1730  -4.0558  -3.9624   3.4101   5.5458   5.6879   6.1015
     6.7218   7.2649   8.2220   9.7265   9.8145  10.0518

          k = 0.4286 0.0000 0.0000 (  6834 PWs)   bands (ev):

   -45.1696 -21.8500 -21.8443 -21.7652  -6.5647  -5.8611  -5.6763  -4.4872
    -4.4296  -4.4070  -4.2339  -4.1586   3.5431   6.1116   7.2658   7.2988
     7.9565   8.0669   8.7360   8.8848   9.3099  10.8322

          k = 0.4286 0.0000 0.1896 (  6851 PWs)   bands (ev):

   -45.1694 -21.8603 -21.8484 -21.7645  -6.5104  -5.8178  -5.6098  -4.4625
    -4.4302  -4.4206  -4.2121  -4.1311   3.3269   6.0911   7.1176   7.4073
     7.4862   7.9518   8.6556   8.8854   9.2348  10.5909

          k = 0.4286 0.0000 0.3792 (  6878 PWs)   bands (ev):

   -45.1690 -21.8850 -21.8470 -21.7634  -6.4642  -5.7324  -5.4463  -4.4426
    -4.4310  -4.4161  -4.2603  -4.0226   3.0092   5.9360   6.5776   7.3826
     7.4956   7.8917   7.9095   8.8860   9.8232  10.1388

          k = 0.4286 0.1426 0.0000 (  6849 PWs)   bands (ev):

   -45.1693 -21.8491 -21.8437 -21.7803  -6.4669  -5.8384  -5.7166  -4.4747
    -4.4103  -4.3745  -4.2060  -4.1502   3.3953   6.1240   7.0652   7.4585
     7.5114   8.1026   8.4908   9.1408   9.4108  10.6356

          k = 0.4286 0.1426 0.1896 (  6867 PWs)   bands (ev):

   -45.1691 -21.8596 -21.8476 -21.7796  -6.4069  -5.8151  -5.6609  -4.4532
    -4.4136  -4.3614  -4.1818  -4.1111   3.3077   6.0951   6.5063   6.9912
     7.5581   8.3316   8.4936   9.1323   9.3779  10.2607

          k = 0.4286 0.1426 0.3792 (  6858 PWs)   bands (ev):

   -45.1687 -21.8843 -21.8462 -21.7785  -6.3606  -5.7665  -5.5101  -4.4423
    -4.3845  -4.3371  -4.2044  -4.0029   3.1287   5.9037   6.3163   6.5205
     6.9049   8.1531   8.8222   9.0120   9.4339  10.0477

          k = 0.4286 0.2851 0.0000 (  6873 PWs)   bands (ev):

   -45.1686 -21.8472 -21.8422 -21.8139  -6.2613  -5.7931  -5.7693  -4.4469
    -4.3929  -4.2824  -4.1482  -4.1226   3.0635   6.1401   6.7022   7.1794
     7.6360   7.8766   8.1074   9.1418   9.7872  10.0952

          k = 0.4286 0.2851 0.1896 (  6842 PWs)   bands (ev):

   -45.1684 -21.8580 -21.8458 -21.8133  -6.1748  -5.8133  -5.7528  -4.4191
    -4.3862  -4.2358  -4.1126  -4.0657   3.1995   6.0555   6.1738   6.3879
     7.1558   7.9236   8.8389   9.2993   9.5086   9.8742

          k = 0.4286 0.2851 0.3792 (  6851 PWs)   bands (ev):

   -45.1681 -21.8826 -21.8446 -21.8122  -6.1226  -5.8379  -5.6284  -4.3906
    -4.3562  -4.1727  -4.0594  -3.9571   3.4128   5.5423   5.6920   6.0945
     6.7157   7.2697   8.2140   9.7201   9.8080  10.0559

          k = 0.4286 0.4277 0.0000 (  6866 PWs)   bands (ev):

   -45.1681 -21.8457 -21.8421 -21.8395  -6.1442  -5.7574  -5.7502  -4.4314
    -4.3461  -4.2129  -4.1655  -4.0556   2.8040   6.0005   6.3985   7.3579
     7.4626   7.8451   8.0203   8.8743   9.4287  10.2543

          k = 0.4286 0.4277 0.1896 (  6865 PWs)   bands (ev):

   -45.1679 -21.8566 -21.8443 -21.8403  -6.0114  -5.8058  -5.7967  -4.4010
    -4.3401  -4.1306  -4.0767  -4.0245   3.0510   5.9523   6.1614   6.2174
     6.5967   7.8924   8.4819   9.2085   9.2305  10.2461

          k = 0.4286 0.4277 0.3792 (  6851 PWs)   bands (ev):

   -45.1675 -21.8810 -21.8432 -21.8392  -5.9298  -5.8849  -5.7117  -4.3518
    -4.3343  -4.0292  -3.9407  -3.9351   3.6090   5.3473   5.4595   5.8795
     6.5081   6.8300   7.1579  10.0425  10.0625  10.2331

     highest occupied level (ev):    10.8322

!    total energy              =    -380.57766481 Ry
     estimated scf accuracy    <          2.0E-09 Ry

     The total energy is the sum of the following terms:
     one-electron contribution =     -79.73395249 Ry
     hartree contribution      =      69.94437375 Ry
     xc contribution           =    -102.67750068 Ry
     ewald contribution        =    -268.11058539 Ry

     convergence has been achieved in  15 iterations

     negative rho (up, down):  1.581E-02 0.000E+00

     Forces acting on atoms (cartesian axes, Ry/au):

     atom    1 type  1   force =     0.00000000    0.00000000    0.00012792
     atom    2 type  2   force =     0.00000000    0.00000000   -0.00206994
     atom    3 type  3   force =     0.00000000    0.00000000    0.00187598
     atom    4 type  3   force =     0.00000000    0.00000000   -0.00017994
     atom    5 type  3   force =     0.00000000    0.00000000    0.00024597

     Total force =     0.002813     Total SCF correction =     0.000226


     Computing stress (Cartesian axis) and pressure


     negative rho (up, down):  1.581E-02 0.000E+00
          total   stress  (Ry/bohr**3)                   (kbar)     P=        1.57
   0.00003877   0.00000000   0.00000000            5.70        0.00        0.00
   0.00000000   0.00001291   0.00000000            0.00        1.90        0.00
   0.00000000   0.00000000  -0.00001975            0.00        0.00       -2.91


     BFGS Geometry Optimization
     Energy error            =      0.0E+00 Ry
     Gradient error          =      2.1E-03 Ry/Bohr

     number of scf cycles    =   1
     number of bfgs steps    =   0

     energy             new  =    -380.5776648134 Ry

     new trust radius        =       0.0020699359 bohr
     new conv_thr            =       0.0000000100 Ry


ATOMIC_POSITIONS (crystal)
Pb            0.0000000000        0.0000000000        1.0052070831
Ti            0.5000000000        0.5000000000        0.5392425624
O             0.5000000000        0.5000000000        0.0997232748
O             0.5000000000        0.0000000000        0.6115279239
O             0.0000000000        0.5000000000        0.6115834436



     Writing config-only to output data dir ./PTO2.save/
     NEW-OLD atomic charge density approx. for the potential

     Check: negative core charge=   -0.000003

     negative rho (up, down):  1.580E-02 0.000E+00

     total cpu time spent up to now is      943.5 secs

     Self-consistent Calculation

     iteration #  1     ecut=   100.00 Ry     beta= 0.70
     CG style diagonalization
     ethr =  1.00E-06,  avg # of iterations =  2.9

     Threshold (ethr) on eigenvalues was too large:
     Diagonalizing with lowered threshold

     CG style diagonalization
     c_bands:  1 eigenvalues not converged
     c_bands:  1 eigenvalues not converged
     c_bands:  1 eigenvalues not converged
     c_bands:  1 eigenvalues not converged
     c_bands:  1 eigenvalues not converged
     c_bands:  1 eigenvalues not converged
     c_bands:  1 eigenvalues not converged
     c_bands:  1 eigenvalues not converged
     c_bands:  1 eigenvalues not converged
     c_bands:  1 eigenvalues not converged
     c_bands:  1 eigenvalues not converged
     c_bands:  3 eigenvalues not converged
     c_bands:  1 eigenvalues not converged
     c_bands:  1 eigenvalues not converged
     c_bands:  1 eigenvalues not converged
     c_bands:  1 eigenvalues not converged
     c_bands:  1 eigenvalues not converged
     c_bands:  2 eigenvalues not converged
     c_bands:  1 eigenvalues not converged
     c_bands:  1 eigenvalues not converged
     c_bands:  1 eigenvalues not converged
     ethr =  7.66E-09,  avg # of iterations =  6.6

     negative rho (up, down):  1.580E-02 0.000E+00

     total cpu time spent up to now is     1071.8 secs

     total energy              =    -380.57766877 Ry
     estimated scf accuracy    <       0.00000308 Ry

     iteration #  2     ecut=   100.00 Ry     beta= 0.70
     CG style diagonalization
     ethr =  6.99E-09,  avg # of iterations =  4.6

     negative rho (up, down):  1.580E-02 0.000E+00

     total cpu time spent up to now is     1129.0 secs

     total energy              =    -380.57766879 Ry
     estimated scf accuracy    <       0.00000582 Ry

     iteration #  3     ecut=   100.00 Ry     beta= 0.70
     CG style diagonalization
     ethr =  6.99E-09,  avg # of iterations =  4.3

     negative rho (up, down):  1.580E-02 0.000E+00

     total cpu time spent up to now is     1182.4 secs

     total energy              =    -380.57767002 Ry
     estimated scf accuracy    <       0.00000071 Ry

     iteration #  4     ecut=   100.00 Ry     beta= 0.70
     CG style diagonalization
     ethr =  1.60E-09,  avg # of iterations =  3.6

     negative rho (up, down):  1.580E-02 0.000E+00

     total cpu time spent up to now is     1227.4 secs

     total energy              =    -380.57767015 Ry
     estimated scf accuracy    <       0.00000005 Ry

     iteration #  5     ecut=   100.00 Ry     beta= 0.70
     CG style diagonalization
     ethr =  1.24E-10,  avg # of iterations =  4.6

     negative rho (up, down):  1.580E-02 0.000E+00

     total cpu time spent up to now is     1284.4 secs

     End of self-consistent calculation

          k = 0.0000 0.0000 0.0000 (  6909 PWs)   bands (ev):

   -45.1662 -21.8466 -21.7654 -21.7634  -7.1669  -6.0133  -5.7566  -4.4140
    -4.4134  -4.3735  -4.2535  -4.1467   4.8343   6.7329   6.7486   7.1018
     8.7011   8.7044   8.9432   9.2792   9.4447   9.4480

          k = 0.0000 0.0000 0.1896 (  6863 PWs)   bands (ev):

   -45.1659 -21.8625 -21.7648 -21.7627  -7.0264  -5.9716  -5.7095  -4.4261
    -4.4255  -4.3725  -4.2459  -4.1988   4.1869   6.7722   6.7858   7.4207
     8.5172   8.5233   8.8867   9.1670   9.5335   9.5354

          k = 0.0000 0.0000 0.3792 (  6872 PWs)   bands (ev):

   -45.1656 -21.8880 -21.7638 -21.7617  -6.7818  -5.8986  -5.6397  -4.4454
    -4.4448  -4.3709  -4.2889  -4.2349   3.5225   6.7692   6.8163   6.8256
     8.3221   8.3341   8.7990   9.6257   9.6264  10.3153

          k = 0.0000 0.1426 0.0000 (  6885 PWs)   bands (ev):

   -45.1659 -21.8460 -21.7787 -21.7648  -7.0587  -5.9878  -5.7329  -4.4330
    -4.4122  -4.3847  -4.2561  -4.1368   4.4519   6.7774   6.8302   7.1696
     8.6368   8.7246   8.9580   9.1511   9.1795   9.5447

          k = 0.0000 0.1426 0.1896 (  6872 PWs)   bands (ev):

   -45.1656 -21.8617 -21.7780 -21.7642  -6.9258  -5.9544  -5.6837  -4.4358
    -4.4246  -4.3840  -4.2506  -4.1704   3.9718   6.6557   6.8735   7.4599
     8.2823   8.5164   8.8919   9.0745   9.2707   9.7313

          k = 0.0000 0.1426 0.3792 (  6889 PWs)   bands (ev):

   -45.1653 -21.8871 -21.7769 -21.7631  -6.7005  -5.8955  -5.6040  -4.4445
    -4.4377  -4.3829  -4.2527  -4.2206   3.4032   6.4067   6.9196   7.0904
     8.0242   8.3281   8.9808   9.1193   9.3725  10.4263

          k = 0.0000 0.2851 0.0000 (  6865 PWs)   bands (ev):

   -45.1652 -21.8446 -21.8129 -21.7634  -6.7997  -5.9284  -5.6879  -4.4663
    -4.4105  -4.4087  -4.2570  -4.1329   3.8677   6.6226   7.0133   7.0482
     8.5151   8.5383   8.8304   8.8390   9.2538   9.9072

          k = 0.0000 0.2851 0.1896 (  6868 PWs)   bands (ev):

   -45.1650 -21.8601 -21.8121 -21.7627  -6.6959  -5.9044  -5.6291  -4.4487
    -4.4226  -4.4097  -4.2500  -4.1307   3.5719   6.4697   7.1039   7.1092
     8.0864   8.3568   8.5298   8.9284   9.2492  10.1410

          k = 0.0000 0.2851 0.3792 (  6885 PWs)   bands (ev):

   -45.1646 -21.8851 -21.8108 -21.7616  -6.5464  -5.8472  -5.5149  -4.4436
    -4.4137  -4.4098  -4.2736  -4.1044   3.1611   6.1339   6.9493   7.1677
     7.7534   8.0372   8.2240   9.0013   9.6526  10.2512

          k = 0.0000 0.4277 0.0000 (  6838 PWs)   bands (ev):

   -45.1647 -21.8436 -21.8399 -21.7622  -6.5713  -5.8633  -5.6790  -4.4885
    -4.4296  -4.4072  -4.2372  -4.1596   3.5429   6.1280   7.2682   7.3183
     7.9537   8.0726   8.7363   8.8749   9.3059  10.8233

          k = 0.0000 0.4277 0.1896 (  6848 PWs)   bands (ev):

   -45.1645 -21.8585 -21.8394 -21.7615  -6.5163  -5.8194  -5.6126  -4.4640
    -4.4302  -4.4209  -4.2129  -4.1359   3.3233   6.1057   7.1199   7.4246
     7.4894   7.9550   8.6577   8.8833   9.2331  10.5854

          k = 0.0000 0.4277 0.3792 (  6872 PWs)   bands (ev):

   -45.1641 -21.8833 -21.8379 -21.7604  -6.4686  -5.7332  -5.4500  -4.4429
    -4.4311  -4.4176  -4.2612  -4.0295   3.0016   5.9398   6.5865   7.3917
     7.4994   7.9048   7.9172   8.8917   9.8300  10.1337

          k = 0.1429 0.0000 0.0000 (  6883 PWs)   bands (ev):

   -45.1659 -21.8460 -21.7811 -21.7627  -7.0573  -5.9872  -5.7327  -4.4324
    -4.4128  -4.3849  -4.2561  -4.1363   4.4529   6.7859   6.8147   7.1683
     8.6411   8.7205   8.9595   9.1525   9.1783   9.5445

          k = 0.1429 0.0000 0.1896 (  6868 PWs)   bands (ev):

   -45.1656 -21.8617 -21.7805 -21.7621  -6.9242  -5.9541  -5.6834  -4.4352
    -4.4252  -4.3842  -4.2513  -4.1689   3.9731   6.6640   6.8602   7.4576
     8.2816   8.5103   8.8931   9.0792   9.2700   9.7322

          k = 0.1429 0.0000 0.3792 (  6882 PWs)   bands (ev):

   -45.1653 -21.8871 -21.7794 -21.7610  -6.6986  -5.8960  -5.6038  -4.4450
    -4.4374  -4.3831  -4.2543  -4.2173   3.4048   6.4123   6.9108   7.0887
     8.0284   8.3161   8.9781   9.1260   9.3703  10.4257

          k = 0.1429 0.1426 0.0000 (  6866 PWs)   bands (ev):

   -45.1656 -21.8453 -21.7805 -21.7780  -6.9503  -5.9611  -5.7216  -4.4362
    -4.4267  -4.3917  -4.2412  -4.1271   4.1768   6.7355   6.9105   7.2334
     8.2750   8.5109   9.0023   9.0411   9.4096   9.6850

          k = 0.1429 0.1426 0.1896 (  6870 PWs)   bands (ev):

   -45.1653 -21.8610 -21.7798 -21.7773  -6.8229  -5.9374  -5.6725  -4.4411
    -4.4268  -4.3903  -4.2344  -4.1463   3.8281   6.6233   6.6946   7.4705
     8.1475   8.2859   8.8208   9.1504   9.4392   9.7478

          k = 0.1429 0.1426 0.3792 (  6869 PWs)   bands (ev):

   -45.1650 -21.8862 -21.7787 -21.7762  -6.6119  -5.8979  -5.5869  -4.4602
    -4.4013  -4.3860  -4.2347  -4.1827   3.3516   6.4341   6.4628   7.1563
     8.0638   8.0906   8.7435   9.2270   9.4781  10.3018

          k = 0.1429 0.2851 0.0000 (  6869 PWs)   bands (ev):

   -45.1649 -21.8439 -21.8121 -21.7789  -6.6954  -5.9020  -5.7053  -4.4651
    -4.4202  -4.3895  -4.2240  -4.1237   3.6914   6.5902   6.9946   7.1369
     7.9179   8.2818   8.7450   9.1552   9.3758  10.1007

          k = 0.1429 0.2851 0.1896 (  6871 PWs)   bands (ev):

   -45.1647 -21.8594 -21.8114 -21.7782  -6.5916  -5.8923  -5.6523  -4.4498
    -4.4262  -4.3795  -4.2113  -4.1116   3.5193   6.4320   6.5925   7.1878
     7.6977   8.2062   8.8439   9.1227   9.3656  10.0660

          k = 0.1429 0.2851 0.3792 (  6868 PWs)   bands (ev):

   -45.1643 -21.8843 -21.8101 -21.7771  -6.4450  -5.8666  -5.5415  -4.4487
    -4.4079  -4.3473  -4.2202  -4.0820   3.2211   6.0733   6.4997   6.8398
     7.2757   8.0212   8.8876   9.1757   9.6700   9.9585

          k = 0.1429 0.4277 0.0000 (  6844 PWs)   bands (ev):

   -45.1644 -21.8429 -21.8390 -21.7777  -6.4720  -5.8402  -5.7187  -4.4757
    -4.4109  -4.3753  -4.2087  -4.1508   3.3959   6.1411   7.0698   7.4667
     7.5092   8.1034   8.4827   9.1479   9.4104  10.6264

          k = 0.1429 0.4277 0.1896 (  6868 PWs)   bands (ev):

   -45.1642 -21.8578 -21.8386 -21.7770  -6.4113  -5.8166  -5.6633  -4.4543
    -4.4143  -4.3622  -4.1818  -4.1155   3.3055   6.1100   6.5131   6.9880
     7.5575   8.3408   8.5022   9.1317   9.3783  10.2556

          k = 0.1429 0.4277 0.3792 (  6857 PWs)   bands (ev):

   -45.1638 -21.8826 -21.8372 -21.7759  -6.3633  -5.7676  -5.5132  -4.4433
    -4.3855  -4.3380  -4.2037  -4.0095   3.1222   5.9054   6.3243   6.5300
     6.9057   8.1590   8.8416   9.0152   9.4403  10.0393

          k = 0.2857 0.0000 0.0000 (  6869 PWs)   bands (ev):

   -45.1652 -21.8446 -21.8161 -21.7612  -6.7948  -5.9265  -5.6868  -4.4657
    -4.4111  -4.4093  -4.2563  -4.1318   3.8681   6.6172   7.0122   7.0328
     8.5198   8.5315   8.8319   8.8408   9.2534   9.9088

          k = 0.2857 0.0000 0.1896 (  6865 PWs)   bands (ev):

   -45.1650 -21.8601 -21.8154 -21.7605  -6.6907  -5.9034  -5.6282  -4.4481
    -4.4232  -4.4103  -4.2505  -4.1276   3.5744   6.4684   7.0961   7.0990
     8.0852   8.3508   8.5258   8.9250   9.2537  10.1457

          k = 0.2857 0.0000 0.3792 (  6886 PWs)   bands (ev):

   -45.1646 -21.8850 -21.8141 -21.7595  -6.5409  -5.8477  -5.5141  -4.4441
    -4.4131  -4.4104  -4.2744  -4.0993   3.1658   6.1363   6.9448   7.1602
     7.7453   8.0327   8.2124   8.9952   9.6622  10.2454

          k = 0.2857 0.1426 0.0000 (  6861 PWs)   bands (ev):

   -45.1649 -21.8439 -21.8153 -21.7764  -6.6921  -5.9006  -5.7046  -4.4649
    -4.4203  -4.3897  -4.2236  -4.1231   3.6913   6.5839   6.9896   7.1332
     7.9205   8.2818   8.7470   9.1489   9.3758  10.1033

          k = 0.2857 0.1426 0.1896 (  6870 PWs)   bands (ev):

   -45.1647 -21.8593 -21.8146 -21.7757  -6.5882  -5.8915  -5.6517  -4.4496
    -4.4264  -4.3796  -4.2119  -4.1093   3.5208   6.4303   6.5863   7.1857
     7.6982   8.2008   8.8375   9.1204   9.3671  10.0703

          k = 0.2857 0.1426 0.3792 (  6868 PWs)   bands (ev):

   -45.1643 -21.8842 -21.8134 -21.7746  -6.4413  -5.8668  -5.5409  -4.4485
    -4.4080  -4.3475  -4.2216  -4.0778   3.2245   6.0754   6.4944   6.8384
     7.2698   8.0160   8.8805   9.1676   9.6783   9.9546

          k = 0.2857 0.2851 0.0000 (  6866 PWs)   bands (ev):

   -45.1642 -21.8425 -21.8135 -21.8103  -6.4558  -5.8429  -5.7423  -4.4551
    -4.4158  -4.3461  -4.1636  -4.1189   3.3251   6.5763   6.6821   7.3414
     7.5005   7.7978   8.5753   9.1345   9.6784  10.1747

          k = 0.2857 0.2851 0.1896 (  6863 PWs)   bands (ev):

   -45.1640 -21.8577 -21.8129 -21.8096  -6.3553  -5.8620  -5.7032  -4.4298
    -4.4162  -4.3189  -4.1388  -4.0814   3.3568   6.2678   6.2830   6.7430
     7.4132   7.8040   9.0545   9.2522   9.7046   9.8047

          k = 0.2857 0.2851 0.3792 (  6871 PWs)   bands (ev):

   -45.1636 -21.8824 -21.8117 -21.8084  -6.2298  -5.8922  -5.5912  -4.4128
    -4.3892  -4.2613  -4.1062  -4.0250   3.3399   5.7951   5.9305   6.4317
     7.0821   7.2799   8.9898   9.5946   9.6507   9.8615

          k = 0.2857 0.4277 0.0000 (  6878 PWs)   bands (ev):

   -45.1637 -21.8414 -21.8371 -21.8121  -6.2636  -5.7932  -5.7706  -4.4475
    -4.3939  -4.2845  -4.1471  -4.1252   3.0647   6.1580   6.6942   7.1772
     7.6429   7.8689   8.1093   9.1424   9.8037  10.0808

          k = 0.2857 0.4277 0.1896 (  6849 PWs)   bands (ev):

   -45.1635 -21.8562 -21.8367 -21.8115  -6.1760  -5.8141  -5.7541  -4.4196
    -4.3875  -4.2377  -4.1107  -4.0695   3.1996   6.0676   6.1777   6.3819
     7.1549   7.9232   8.8502   9.2973   9.5052   9.8772

          k = 0.2857 0.4277 0.3792 (  6849 PWs)   bands (ev):

   -45.1631 -21.8808 -21.8354 -21.8104  -6.1214  -5.8398  -5.6307  -4.3912
    -4.3578  -4.1744  -4.0564  -3.9628   3.4100   5.5466   5.6864   6.1033
     6.7231   7.2679   8.2210   9.7235   9.8160  10.0493

          k = 0.4286 0.0000 0.0000 (  6834 PWs)   bands (ev):

   -45.1646 -21.8453 -21.8421 -21.7600  -6.5636  -5.8598  -5.6778  -4.4879
    -4.4306  -4.4077  -4.2346  -4.1593   3.5427   6.1147   7.2655   7.3009
     7.9585   8.0682   8.7362   8.8751   9.3056  10.8301

          k = 0.4286 0.0000 0.1896 (  6851 PWs)   bands (ev):

   -45.1644 -21.8585 -21.8433 -21.7593  -6.5088  -5.8166  -5.6117  -4.4633
    -4.4312  -4.4213  -4.2129  -4.1317   3.3264   6.0938   7.1177   7.4090
     7.4867   7.9511   8.6549   8.8796   9.2342  10.5886

          k = 0.4286 0.0000 0.3792 (  6878 PWs)   bands (ev):

   -45.1640 -21.8832 -21.8418 -21.7582  -6.4621  -5.7312  -5.4489  -4.4433
    -4.4321  -4.4168  -4.2611  -4.0230   3.0087   5.9359   6.5790   7.3835
     7.4941   7.8922   7.9115   8.8841   9.8228  10.1354

          k = 0.4286 0.1426 0.0000 (  6849 PWs)   bands (ev):

   -45.1643 -21.8444 -21.8413 -21.7751  -6.4661  -5.8371  -5.7178  -4.4754
    -4.4110  -4.3755  -4.2068  -4.1508   3.3953   6.1272   7.0640   7.4610
     7.5124   8.1047   8.4822   9.1410   9.4086  10.6336

          k = 0.4286 0.1426 0.1896 (  6867 PWs)   bands (ev):

   -45.1641 -21.8578 -21.8425 -21.7745  -6.4056  -5.8139  -5.6626  -4.4539
    -4.4143  -4.3626  -4.1825  -4.1116   3.3076   6.0977   6.5067   6.9913
     7.5581   8.3312   8.4934   9.1288   9.3777  10.2585

          k = 0.4286 0.1426 0.3792 (  6858 PWs)   bands (ev):

   -45.1638 -21.8825 -21.8411 -21.7733  -6.3586  -5.7653  -5.5126  -4.4431
    -4.3853  -4.3383  -4.2050  -4.0033   3.1283   5.9030   6.3174   6.5222
     6.9048   8.1550   8.8238   9.0083   9.4337  10.0446

          k = 0.4286 0.2851 0.0000 (  6873 PWs)   bands (ev):

   -45.1637 -21.8426 -21.8397 -21.8088  -6.2616  -5.7921  -5.7692  -4.4475
    -4.3938  -4.2833  -4.1488  -4.1237   3.0641   6.1432   6.7049   7.1763
     7.6383   7.8692   8.1106   9.1414   9.7875  10.0952

          k = 0.4286 0.2851 0.1896 (  6842 PWs)   bands (ev):

   -45.1635 -21.8562 -21.8406 -21.8082  -6.1743  -5.8123  -5.7536  -4.4198
    -4.3870  -4.2369  -4.1132  -4.0665   3.1999   6.0568   6.1744   6.3885
     7.1570   7.9231   8.8396   9.2972   9.5060   9.8756

          k = 0.4286 0.2851 0.3792 (  6851 PWs)   bands (ev):

   -45.1631 -21.8808 -21.8394 -21.8071  -6.1211  -5.8368  -5.6305  -4.3915
    -4.3570  -4.1741  -4.0600  -3.9576   3.4130   5.5430   5.6905   6.0966
     6.7174   7.2722   8.2132   9.7171   9.8095  10.0534

          k = 0.4286 0.4277 0.0000 (  6866 PWs)   bands (ev):

   -45.1632 -21.8412 -21.8385 -21.8355  -6.1460  -5.7563  -5.7489  -4.4321
    -4.3471  -4.2134  -4.1660  -4.0572   2.8047   6.0028   6.4034   7.3536
     7.4571   7.8468   8.0230   8.8741   9.4292  10.2561

          k = 0.4286 0.4277 0.1896 (  6865 PWs)   bands (ev):

   -45.1629 -21.8547 -21.8392 -21.8352  -6.0127  -5.8045  -5.7962  -4.4017
    -4.3410  -4.1314  -4.0771  -4.0259   3.0519   5.9542   6.1619   6.2165
     6.5995   7.8923   8.4824   9.2070   9.2283  10.2480

          k = 0.4286 0.4277 0.3792 (  6851 PWs)   bands (ev):

   -45.1626 -21.8792 -21.8380 -21.8340  -5.9286  -5.8838  -5.7137  -4.3525
    -4.3353  -4.0307  -3.9414  -3.9355   3.6101   5.3469   5.4585   5.8814
     6.5130   6.8304   7.1574  10.0397  10.0600  10.2349

     highest occupied level (ev):    10.8301

!    total energy              =    -380.57767018 Ry
     estimated scf accuracy    <          6.6E-09 Ry

     The total energy is the sum of the following terms:
     one-electron contribution =     -79.74476589 Ry
     hartree contribution      =      69.95094227 Ry
     xc contribution           =    -102.67844152 Ry
     ewald contribution        =    -268.10540503 Ry

     convergence has been achieved in   5 iterations

     negative rho (up, down):  1.580E-02 0.000E+00

     Forces acting on atoms (cartesian axes, Ry/au):

     atom    1 type  1   force =     0.00000000    0.00000000   -0.00007341
     atom    2 type  2   force =     0.00000000    0.00000000   -0.00076906
     atom    3 type  3   force =     0.00000000    0.00000000    0.00064103
     atom    4 type  3   force =     0.00000000    0.00000000   -0.00009282
     atom    5 type  3   force =     0.00000000    0.00000000    0.00029425

     Total force =     0.001050     Total SCF correction =     0.000162
     SCF correction compared to forces is large: reduce conv_thr to get better values


     Computing stress (Cartesian axis) and pressure


     negative rho (up, down):  1.580E-02 0.000E+00
          total   stress  (Ry/bohr**3)                   (kbar)     P=        2.00
   0.00003791   0.00000000   0.00000000            5.58        0.00        0.00
   0.00000000   0.00001234   0.00000000            0.00        1.82        0.00
   0.00000000   0.00000000  -0.00000950            0.00        0.00       -1.40


     BFGS Geometry Optimization
     Energy error            =      0.0E+00 Ry
     Gradient error          =      7.7E-04 Ry/Bohr

     bfgs converged in   1 scf cycles and   0 bfgs steps
     (criteria: energy <  1.0E-04 Ry, force <  1.0E-03 Ry/Bohr)

     End of BFGS Geometry Optimization

     Final energy             =    -380.5776701814 Ry
Begin final coordinates

ATOMIC_POSITIONS (crystal)
Pb            0.0000000000        0.0000000000        1.0052070831
Ti            0.5000000000        0.5000000000        0.5392425624
O             0.5000000000        0.5000000000        0.0997232748
O             0.5000000000        0.0000000000        0.6115279239
O             0.0000000000        0.5000000000        0.6115834436
End final coordinates



     Writing all to output data dir ./PTO2.save/
 
     init_run     :     16.85s CPU     17.25s WALL (       1 calls)
     electrons    :   1197.26s CPU   1238.29s WALL (       2 calls)
     update_pot   :      0.87s CPU      0.87s WALL (       1 calls)
     forces       :      7.03s CPU      7.20s WALL (       2 calls)
     stress       :     43.77s CPU     44.26s WALL (       2 calls)

     Called by init_run:
     wfcinit      :     11.74s CPU     12.01s WALL (       1 calls)
     potinit      :      0.18s CPU      0.19s WALL (       1 calls)
     hinit0       :      4.05s CPU      4.07s WALL (       1 calls)

     Called by electrons:
     c_bands      :   1084.45s CPU   1120.99s WALL (      21 calls)
     sum_band     :     97.22s CPU    100.01s WALL (      21 calls)
     v_of_rho     :      0.61s CPU      0.62s WALL (      22 calls)
     newd         :     16.10s CPU     17.82s WALL (      22 calls)
     mix_rho      :      0.32s CPU      0.35s WALL (      21 calls)

     Called by c_bands:
     init_us_2    :     28.01s CPU     28.14s WALL (    2256 calls)
     init_us_2:cp :     27.93s CPU     28.09s WALL (    2256 calls)
     ccgdiagg     :    951.20s CPU    983.91s WALL (    1008 calls)
     wfcrot       :    128.57s CPU    130.84s WALL (     912 calls)

     Called by *cgdiagg:
     h_psi        :    737.74s CPU    756.92s WALL (   84704 calls)
     s_psi        :    173.97s CPU    184.15s WALL (  168496 calls)

     Called by h_psi:
     h_psi:calbec :     90.81s CPU     93.92s WALL (   84704 calls)
     vloc_psi     :    549.05s CPU    561.40s WALL (   84704 calls)
     add_vuspsi   :     90.10s CPU     94.75s WALL (   84704 calls)
     hs_1psi      :    712.85s CPU    734.10s WALL (   83792 calls)
     s_1psi       :    175.89s CPU    182.44s WALL (   83792 calls)

     General routines
     calbec       :    177.01s CPU    186.78s WALL (  169984 calls)
     fft          :      0.24s CPU      0.24s WALL (     106 calls)
     ffts         :      0.04s CPU      0.05s WALL (      21 calls)
     fftw         :    502.00s CPU    511.46s WALL (  230752 calls)
 
     Parallel routines
 
     PWSCF        :  21m 8.04s CPU  21m51.80s WALL

 
   This run was terminated on:   9:18:23  11Apr2022            

=------------------------------------------------------------------------------=
   JOB DONE.
=------------------------------------------------------------------------------=
