
     Program PWSCF v.7.0 starts on 11Apr2022 at 10:40:49 

     This program is part of the open-source Quantum ESPRESSO suite
     for quantum simulation of materials; please cite
         "P. Giannozzi et al., J. Phys.:Condens. Matter 21 395502 (2009);
         "P. Giannozzi et al., J. Phys.:Condens. Matter 29 465901 (2017);
         "P. Giannozzi et al., J. Chem. Phys. 152 154105 (2020);
          URL http://www.quantum-espresso.org", 
     in publications or presentations arising from this work. More details at
     http://www.quantum-espresso.org/quote

     Parallel version (MPI), running on     1 processors

     MPI processes distributed on     1 nodes
     89557 MiB available memory on the printing compute node when the environment starts
 
     Waiting for input...
     Reading input from standard input
Warning: card &CELL ignored
Warning: card  CELL_DYNAMICS = 'BFGS', ignored
Warning: card  PRESS=0.1D0, ignored
Warning: card / ignored

     Current dimensions of program PWSCF are:
     Max number of different atomic species (ntypx) = 10
     Max number of k-points (npk) =  40000
     Max angular momentum in pseudopotentials (lmaxx) =  4
     Message from routine setup:
     using ibrav=0 with symmetry is DISCOURAGED, use correct ibrav instead

     Subspace diagonalization in iterative solution of the eigenvalue problem:
     a serial algorithm will be used

 
     G-vector sticks info
     --------------------
     sticks:   dense  smooth     PW     G-vecs:    dense   smooth      PW
     Sum        1697    1697    485                54933    54933    8217
 
     Using Slab Decomposition
 


     bravais-lattice index     =            0
     lattice parameter (alat)  =       7.3301  a.u.
     unit-cell volume          =     406.4547 (a.u.)^3
     number of atoms/cell      =            5
     number of atomic types    =            3
     number of electrons       =        44.00
     number of Kohn-Sham states=           22
     kinetic-energy cutoff     =     100.0000  Ry
     charge density cutoff     =     400.0000  Ry
     scf convergence threshold =      1.0E-08
     mixing beta               =       0.7000
     number of iterations used =            8  plain     mixing
     energy convergence thresh.=      1.0E-04
     force convergence thresh. =      1.0E-03
     Exchange-correlation= SLA  PZ   NOGX NOGC
                           (   1   1   0   0   0   0   0)
     nstep                     =           50


     celldm(1)=   7.330059  celldm(2)=   0.000000  celldm(3)=   0.000000
     celldm(4)=   0.000000  celldm(5)=   0.000000  celldm(6)=   0.000000

     crystal axes: (cart. coord. in units of alat)
               a(1) = (   1.000000   0.000000   0.000000 )  
               a(2) = (   0.000000   0.994045   0.000000 )  
               a(3) = (   0.000000   0.000000   1.038207 )  

     reciprocal axes: (cart. coord. in units 2 pi/alat)
               b(1) = (  1.000000  0.000000  0.000000 )  
               b(2) = (  0.000000  1.005991  0.000000 )  
               b(3) = (  0.000000  0.000000  0.963199 )  


     PseudoPot. # 1 for Pb read from file:
     ./Pb_LDA.UPF
     MD5 check sum: 062a37469794d955244864f8fe2e5624
     Pseudo is Ultrasoft + core correction, Zval = 14.0
     Generated by new atomic code, or converted to UPF format
     Using radial grid of  899 points,  6 beta functions with: 
                l(1) =   0
                l(2) =   0
                l(3) =   1
                l(4) =   1
                l(5) =   2
                l(6) =   2
     Q(r) pseudized with  6 coefficients,  rinner =    1.000   1.000   1.000
                                                       1.000   1.000

     PseudoPot. # 2 for Ti read from file:
     ./Ti_LDA.UPF
     MD5 check sum: 0d9f225c038fe889ca2a701dcc8d72cb
     Pseudo is Ultrasoft + core correction, Zval = 12.0
     Generated by new atomic code, or converted to UPF format
     Using radial grid of  851 points,  6 beta functions with: 
                l(1) =   0
                l(2) =   0
                l(3) =   1
                l(4) =   1
                l(5) =   2
                l(6) =   2
     Q(r) pseudized with  6 coefficients,  rinner =    1.000   1.000   1.000
                                                       1.000   1.000

     PseudoPot. # 3 for O  read from file:
     ./O_LDA.UPF
     MD5 check sum: 194b818514d2a7dbb603bb78519a4f40
     Pseudo is Ultrasoft + core correction, Zval =  6.0
     Generated by new atomic code, or converted to UPF format
     Using radial grid of  737 points,  5 beta functions with: 
                l(1) =   0
                l(2) =   0
                l(3) =   1
                l(4) =   1
                l(5) =   2
     Q(r) pseudized with  8 coefficients,  rinner =    0.900   0.900   0.900
                                                       0.900   0.900

     atomic species   valence    mass     pseudopotential
        Pb            14.00   207.20000     Pb( 1.00)
        Ti            12.00    47.88000     Ti( 1.00)
        O              6.00    16.00000     O ( 1.00)

      4 Sym. Ops. (no inversion) found



   Cartesian axes

     site n.     atom                  positions (alat units)
         1           Pb  tau(   1) = (   0.0000000   0.0000000   1.0435954  )
         2           Ti  tau(   2) = (   0.5000000   0.4970224   0.5601254  )
         3           O   tau(   3) = (   0.5000000   0.4970224   0.1032795  )
         4           O   tau(   4) = (   0.5000000   0.0000000   0.6349167  )
         5           O   tau(   5) = (   0.0000000   0.4970224   0.6349167  )

     number of k points=    48
                       cart. coord. in units 2pi/alat
        k(    1) = (   0.0000000   0.0000000   0.0000000), wk =   0.0081633
        k(    2) = (   0.0000000   0.0000000   0.1926399), wk =   0.0163265
        k(    3) = (   0.0000000   0.0000000   0.3852797), wk =   0.0163265
        k(    4) = (   0.0000000   0.1437130   0.0000000), wk =   0.0163265
        k(    5) = (   0.0000000   0.1437130   0.1926399), wk =   0.0326531
        k(    6) = (   0.0000000   0.1437130   0.3852797), wk =   0.0326531
        k(    7) = (   0.0000000   0.2874260   0.0000000), wk =   0.0163265
        k(    8) = (   0.0000000   0.2874260   0.1926399), wk =   0.0326531
        k(    9) = (   0.0000000   0.2874260   0.3852797), wk =   0.0326531
        k(   10) = (   0.0000000   0.4311390   0.0000000), wk =   0.0163265
        k(   11) = (   0.0000000   0.4311390   0.1926399), wk =   0.0326531
        k(   12) = (   0.0000000   0.4311390   0.3852797), wk =   0.0326531
        k(   13) = (   0.1428571   0.0000000   0.0000000), wk =   0.0163265
        k(   14) = (   0.1428571   0.0000000   0.1926399), wk =   0.0326531
        k(   15) = (   0.1428571   0.0000000   0.3852797), wk =   0.0326531
        k(   16) = (   0.1428571   0.1437130   0.0000000), wk =   0.0326531
        k(   17) = (   0.1428571   0.1437130   0.1926399), wk =   0.0653061
        k(   18) = (   0.1428571   0.1437130   0.3852797), wk =   0.0653061
        k(   19) = (   0.1428571   0.2874260   0.0000000), wk =   0.0326531
        k(   20) = (   0.1428571   0.2874260   0.1926399), wk =   0.0653061
        k(   21) = (   0.1428571   0.2874260   0.3852797), wk =   0.0653061
        k(   22) = (   0.1428571   0.4311390   0.0000000), wk =   0.0326531
        k(   23) = (   0.1428571   0.4311390   0.1926399), wk =   0.0653061
        k(   24) = (   0.1428571   0.4311390   0.3852797), wk =   0.0653061
        k(   25) = (   0.2857143   0.0000000   0.0000000), wk =   0.0163265
        k(   26) = (   0.2857143   0.0000000   0.1926399), wk =   0.0326531
        k(   27) = (   0.2857143   0.0000000   0.3852797), wk =   0.0326531
        k(   28) = (   0.2857143   0.1437130   0.0000000), wk =   0.0326531
        k(   29) = (   0.2857143   0.1437130   0.1926399), wk =   0.0653061
        k(   30) = (   0.2857143   0.1437130   0.3852797), wk =   0.0653061
        k(   31) = (   0.2857143   0.2874260   0.0000000), wk =   0.0326531
        k(   32) = (   0.2857143   0.2874260   0.1926399), wk =   0.0653061
        k(   33) = (   0.2857143   0.2874260   0.3852797), wk =   0.0653061
        k(   34) = (   0.2857143   0.4311390   0.0000000), wk =   0.0326531
        k(   35) = (   0.2857143   0.4311390   0.1926399), wk =   0.0653061
        k(   36) = (   0.2857143   0.4311390   0.3852797), wk =   0.0653061
        k(   37) = (   0.4285714   0.0000000   0.0000000), wk =   0.0163265
        k(   38) = (   0.4285714   0.0000000   0.1926399), wk =   0.0326531
        k(   39) = (   0.4285714   0.0000000   0.3852797), wk =   0.0326531
        k(   40) = (   0.4285714   0.1437130   0.0000000), wk =   0.0326531
        k(   41) = (   0.4285714   0.1437130   0.1926399), wk =   0.0653061
        k(   42) = (   0.4285714   0.1437130   0.3852797), wk =   0.0653061
        k(   43) = (   0.4285714   0.2874260   0.0000000), wk =   0.0326531
        k(   44) = (   0.4285714   0.2874260   0.1926399), wk =   0.0653061
        k(   45) = (   0.4285714   0.2874260   0.3852797), wk =   0.0653061
        k(   46) = (   0.4285714   0.4311390   0.0000000), wk =   0.0326531
        k(   47) = (   0.4285714   0.4311390   0.1926399), wk =   0.0653061
        k(   48) = (   0.4285714   0.4311390   0.3852797), wk =   0.0653061

     Dense  grid:    54933 G-vectors     FFT dimensions: (  48,  48,  50)

     Estimated max dynamical RAM per process >     328.16 MB

     Check: negative core charge=   -0.000003

     Initial potential from superposition of free atoms

     starting charge      42.9982, renormalised to      44.0000

     negative rho (up, down):  1.707E-02 0.000E+00
     Starting wfcs are   31 randomized atomic wfcs

     total cpu time spent up to now is       18.9 secs

     Self-consistent Calculation

     iteration #  1     ecut=   100.00 Ry     beta= 0.70
     CG style diagonalization
     ethr =  1.00E-02,  avg # of iterations =  2.1

     negative rho (up, down):  1.436E-02 0.000E+00

     total cpu time spent up to now is       52.8 secs

     total energy              =    -380.06142618 Ry
     estimated scf accuracy    <       1.02539862 Ry

     iteration #  2     ecut=   100.00 Ry     beta= 0.70
     CG style diagonalization
     ethr =  2.33E-03,  avg # of iterations =  4.9

     negative rho (up, down):  1.505E-02 0.000E+00

     total cpu time spent up to now is      116.6 secs

     total energy              =    -379.76656405 Ry
     estimated scf accuracy    <       3.88628778 Ry

     iteration #  3     ecut=   100.00 Ry     beta= 0.70
     CG style diagonalization
     ethr =  2.33E-03,  avg # of iterations =  4.5

     negative rho (up, down):  1.565E-02 0.000E+00

     total cpu time spent up to now is      346.7 secs

     total energy              =    -380.54788632 Ry
     estimated scf accuracy    <       0.25038944 Ry

     iteration #  4     ecut=   100.00 Ry     beta= 0.70
     CG style diagonalization
     ethr =  5.69E-04,  avg # of iterations =  3.4

     negative rho (up, down):  1.568E-02 0.000E+00

     total cpu time spent up to now is      391.3 secs

     total energy              =    -380.56065227 Ry
     estimated scf accuracy    <       0.05202736 Ry

     iteration #  5     ecut=   100.00 Ry     beta= 0.70
     CG style diagonalization
     ethr =  1.18E-04,  avg # of iterations =  3.8

     negative rho (up, down):  1.568E-02 0.000E+00

     total cpu time spent up to now is      440.3 secs

     total energy              =    -380.57586341 Ry
     estimated scf accuracy    <       0.00472636 Ry

     iteration #  6     ecut=   100.00 Ry     beta= 0.70
     CG style diagonalization
     ethr =  1.07E-05,  avg # of iterations =  4.1

     negative rho (up, down):  1.567E-02 0.000E+00

     total cpu time spent up to now is      493.1 secs

     total energy              =    -380.57739468 Ry
     estimated scf accuracy    <       0.00723426 Ry

     iteration #  7     ecut=   100.00 Ry     beta= 0.70
     CG style diagonalization
     ethr =  1.07E-05,  avg # of iterations =  3.2

     negative rho (up, down):  1.568E-02 0.000E+00

     total cpu time spent up to now is      534.8 secs

     total energy              =    -380.57694388 Ry
     estimated scf accuracy    <       0.00258609 Ry

     iteration #  8     ecut=   100.00 Ry     beta= 0.70
     CG style diagonalization
     ethr =  5.88E-06,  avg # of iterations =  3.6

     negative rho (up, down):  1.570E-02 0.000E+00

     total cpu time spent up to now is      581.3 secs

     total energy              =    -380.57745870 Ry
     estimated scf accuracy    <       0.00000767 Ry

     iteration #  9     ecut=   100.00 Ry     beta= 0.70
     CG style diagonalization
     c_bands:  1 eigenvalues not converged
     c_bands:  1 eigenvalues not converged
     c_bands:  1 eigenvalues not converged
     c_bands:  1 eigenvalues not converged
     c_bands:  1 eigenvalues not converged
     c_bands:  1 eigenvalues not converged
     ethr =  1.74E-08,  avg # of iterations =  8.5

     negative rho (up, down):  1.573E-02 0.000E+00

     total cpu time spent up to now is      690.6 secs

     total energy              =    -380.57751675 Ry
     estimated scf accuracy    <       0.00001399 Ry

     iteration # 10     ecut=   100.00 Ry     beta= 0.70
     CG style diagonalization
     ethr =  1.74E-08,  avg # of iterations =  3.6

     negative rho (up, down):  1.577E-02 0.000E+00

     total cpu time spent up to now is      737.3 secs

     total energy              =    -380.57751652 Ry
     estimated scf accuracy    <       0.00000734 Ry

     iteration # 11     ecut=   100.00 Ry     beta= 0.70
     CG style diagonalization
     ethr =  1.67E-08,  avg # of iterations =  3.1

     negative rho (up, down):  1.583E-02 0.000E+00

     total cpu time spent up to now is      777.2 secs

     total energy              =    -380.57751497 Ry
     estimated scf accuracy    <       0.00000499 Ry

     iteration # 12     ecut=   100.00 Ry     beta= 0.70
     CG style diagonalization
     ethr =  1.13E-08,  avg # of iterations =  4.0

     negative rho (up, down):  1.582E-02 0.000E+00

     total cpu time spent up to now is      828.6 secs

     total energy              =    -380.57751633 Ry
     estimated scf accuracy    <       0.00000042 Ry

     iteration # 13     ecut=   100.00 Ry     beta= 0.70
     CG style diagonalization
     ethr =  9.46E-10,  avg # of iterations =  7.3

     negative rho (up, down):  1.582E-02 0.000E+00

     total cpu time spent up to now is      922.5 secs

     total energy              =    -380.57751722 Ry
     estimated scf accuracy    <       0.00000004 Ry

     iteration # 14     ecut=   100.00 Ry     beta= 0.70
     CG style diagonalization
     ethr =  8.79E-11,  avg # of iterations =  8.3

     negative rho (up, down):  1.583E-02 0.000E+00

     total cpu time spent up to now is     1029.9 secs

     total energy              =    -380.57751738 Ry
     estimated scf accuracy    <       0.00000003 Ry

     iteration # 15     ecut=   100.00 Ry     beta= 0.70
     CG style diagonalization
     ethr =  6.49E-11,  avg # of iterations =  4.5

     negative rho (up, down):  1.583E-02 0.000E+00

     total cpu time spent up to now is     1087.6 secs

     total energy              =    -380.57751738 Ry
     estimated scf accuracy    <       0.00000002 Ry

     iteration # 16     ecut=   100.00 Ry     beta= 0.70
     CG style diagonalization
     ethr =  4.94E-11,  avg # of iterations =  3.7

     negative rho (up, down):  1.583E-02 0.000E+00

     total cpu time spent up to now is     1134.9 secs

     End of self-consistent calculation

          k = 0.0000 0.0000 0.0000 (  6865 PWs)   bands (ev):

   -45.1625 -21.8548 -21.7595 -21.7536  -7.1575  -6.0047  -5.7635  -4.4156
    -4.4137  -4.3779  -4.2681  -4.1301   4.8592   6.6966   6.7432   7.1388
     8.7014   8.7118   8.9744   9.2900   9.4270   9.4375

          k = 0.0000 0.0000 0.1926 (  6860 PWs)   bands (ev):

   -45.1622 -21.8723 -21.7588 -21.7529  -7.0095  -5.9607  -5.7106  -4.4286
    -4.4268  -4.3768  -4.2572  -4.1846   4.2048   6.7402   6.7810   7.4200
     8.5023   8.5204   8.9120   9.1835   9.5215   9.5277

          k = 0.0000 0.0000 0.3853 (  6872 PWs)   bands (ev):

   -45.1618 -21.9004 -21.7576 -21.7517  -6.7528  -5.8833  -5.6299  -4.4495
    -4.4478  -4.3750  -4.2799  -4.2397   3.5308   6.7056   6.7901   6.8184
     8.2913   8.3264   8.8151   9.6187   9.6212  10.3609

          k = 0.0000 0.1437 0.0000 (  6869 PWs)   bands (ev):

   -45.1622 -21.8542 -21.7749 -21.7529  -7.0485  -5.9785  -5.7410  -4.4328
    -4.4144  -4.3891  -4.2690  -4.1216   4.4662   6.7799   6.8144   7.1983
     8.6389   8.7131   8.9680   9.1485   9.1820   9.5518

          k = 0.0000 0.1437 0.1926 (  6885 PWs)   bands (ev):

   -45.1619 -21.8716 -21.7741 -21.7522  -6.9077  -5.9437  -5.6864  -4.4355
    -4.4278  -4.3883  -4.2618  -4.1557   3.9881   6.6703   6.8296   7.4709
     8.2606   8.4911   8.8872   9.0965   9.2658   9.7467

          k = 0.0000 0.1437 0.3853 (  6870 PWs)   bands (ev):

   -45.1615 -21.8995 -21.7728 -21.7511  -6.6702  -5.8826  -5.5959  -4.4491
    -4.4376  -4.3870  -4.2582  -4.2090   3.4155   6.3826   6.8855   7.0600
     8.0135   8.2839   8.9702   9.1337   9.3666  10.4635

          k = 0.0000 0.2874 0.0000 (  6855 PWs)   bands (ev):

   -45.1615 -21.8528 -21.8092 -21.7515  -6.7869  -5.9185  -5.6988  -4.4666
    -4.4143  -4.4114  -4.2641  -4.1218   3.8727   6.6361   7.0028   7.0632
     8.5022   8.5281   8.8433   8.8561   9.2647   9.8956

          k = 0.0000 0.2874 0.1926 (  6873 PWs)   bands (ev):

   -45.1613 -21.8699 -21.8083 -21.7508  -6.6744  -5.8953  -5.6359  -4.4474
    -4.4258  -4.4138  -4.2573  -4.1164   3.5861   6.4828   7.0699   7.1192
     8.0650   8.3257   8.5151   8.9211   9.2785  10.1466

          k = 0.0000 0.2874 0.3853 (  6869 PWs)   bands (ev):

   -45.1608 -21.8975 -21.8068 -21.7495  -6.5144  -5.8382  -5.5104  -4.4482
    -4.4138  -4.4096  -4.2788  -4.0874   3.1812   6.1177   6.9385   7.1371
     7.7062   8.0188   8.1839   8.9851   9.6623  10.2614

          k = 0.0000 0.4311 0.0000 (  6848 PWs)   bands (ev):

   -45.1610 -21.8514 -21.8366 -21.7503  -6.5543  -5.8547  -5.6931  -4.4890
    -4.4338  -4.4094  -4.2346  -4.1563   3.5444   6.1310   7.2786   7.3072
     7.9969   8.0419   8.7474   8.8733   9.3217  10.8070

          k = 0.0000 0.4311 0.1926 (  6842 PWs)   bands (ev):

   -45.1607 -21.8684 -21.8356 -21.7496  -6.4908  -5.8110  -5.6252  -4.4625
    -4.4343  -4.4240  -4.2143  -4.1232   3.3366   6.1101   7.1284   7.3909
     7.4838   7.9257   8.6509   8.8657   9.2747  10.5528

          k = 0.0000 0.4311 0.3853 (  6868 PWs)   bands (ev):

   -45.1603 -21.8957 -21.8340 -21.7483  -6.4384  -5.7225  -5.4501  -4.4475
    -4.4351  -4.4125  -4.2630  -4.0087   3.0271   5.9332   6.5619   7.3592
     7.4707   7.8778   7.8892   8.8586   9.8242  10.1189

          k = 0.1429 0.0000 0.0000 (  6873 PWs)   bands (ev):

   -45.1622 -21.8542 -21.7679 -21.7589  -7.0526  -5.9804  -5.7419  -4.4345
    -4.4126  -4.3885  -4.2692  -4.1231   4.4639   6.7882   6.8258   7.2024
     8.6268   8.7263   8.9630   9.1434   9.1874   9.5526

          k = 0.1429 0.0000 0.1926 (  6881 PWs)   bands (ev):

   -45.1619 -21.8716 -21.7672 -21.7582  -6.9122  -5.9448  -5.6871  -4.4371
    -4.4260  -4.3877  -4.2604  -4.1597   3.9847   6.6457   6.8694   7.4772
     8.2617   8.5095   8.8856   9.0829   9.2674   9.7441

          k = 0.1429 0.0000 0.3853 (  6889 PWs)   bands (ev):

   -45.1615 -21.8995 -21.7659 -21.7570  -6.6757  -5.8816  -5.5963  -4.4475
    -4.4383  -4.3865  -4.2545  -4.2178   3.4109   6.3664   6.9120   7.0646
     8.0010   8.3192   8.9785   9.1146   9.3725  10.4660

          k = 0.1429 0.1437 0.0000 (  6854 PWs)   bands (ev):

   -45.1619 -21.8536 -21.7742 -21.7672  -6.9452  -5.9534  -5.7311  -4.4384
    -4.4270  -4.3948  -4.2536  -4.1149   4.1820   6.7263   6.9459   7.2597
     8.2918   8.5023   8.9852   9.0567   9.3948   9.6897

          k = 0.1429 0.1437 0.1926 (  6878 PWs)   bands (ev):

   -45.1617 -21.8709 -21.7735 -21.7665  -6.8101  -5.9280  -5.6770  -4.4422
    -4.4283  -4.3934  -4.2448  -4.1355   3.8386   6.6139   6.6996   7.4863
     8.1496   8.2633   8.8062   9.1640   9.4265   9.7577

          k = 0.1429 0.1437 0.3853 (  6873 PWs)   bands (ev):

   -45.1612 -21.8987 -21.7722 -21.7652  -6.5879  -5.8858  -5.5805  -4.4621
    -4.4026  -4.3876  -4.2414  -4.1748   3.3612   6.4116   6.4301   7.1542
     8.0527   8.0639   8.7249   9.2337   9.4661  10.3318

          k = 0.1429 0.2874 0.0000 (  6854 PWs)   bands (ev):

   -45.1612 -21.8521 -21.8085 -21.7657  -6.6890  -5.8930  -5.7153  -4.4670
    -4.4215  -4.3925  -4.2336  -4.1147   3.6882   6.5959   6.9981   7.1714
     7.9316   8.2889   8.7661   9.1341   9.3772  10.0842

          k = 0.1429 0.2874 0.1926 (  6862 PWs)   bands (ev):

   -45.1610 -21.8692 -21.8076 -21.7649  -6.5764  -5.8839  -5.6588  -4.4503
    -4.4284  -4.3823  -4.2205  -4.0997   3.5268   6.4419   6.5884   7.1861
     7.7009   8.1907   8.8301   9.1158   9.3727  10.0629

          k = 0.1429 0.2874 0.3853 (  6876 PWs)   bands (ev):

   -45.1606 -21.8967 -21.8062 -21.7637  -6.4196  -5.8582  -5.5372  -4.4503
    -4.4093  -4.3472  -4.2283  -4.0669   3.2378   6.0638   6.4745   6.8197
     7.2648   8.0027   8.8366   9.1543   9.6739   9.9709

          k = 0.1429 0.4311 0.0000 (  6832 PWs)   bands (ev):

   -45.1607 -21.8507 -21.8358 -21.7645  -6.4633  -5.8316  -5.7286  -4.4777
    -4.4126  -4.3798  -4.2103  -4.1487   3.3881   6.1424   7.0758   7.4956
     7.5274   8.1261   8.4803   9.1257   9.4204  10.6237

          k = 0.1429 0.4311 0.1926 (  6847 PWs)   bands (ev):

   -45.1605 -21.8677 -21.8349 -21.7637  -6.3931  -5.8084  -5.6727  -4.4545
    -4.4165  -4.3676  -4.1852  -4.1048   3.3106   6.1131   6.5097   6.9991
     7.5514   8.3224   8.4931   9.1222   9.3976  10.2339

          k = 0.1429 0.4311 0.3853 (  6857 PWs)   bands (ev):

   -45.1601 -21.8950 -21.8333 -21.7624  -6.3400  -5.7576  -5.5114  -4.4445
    -4.3854  -4.3423  -4.2072  -3.9901   3.1438   5.8998   6.3147   6.5170
     6.8653   8.1475   8.8004   8.9709   9.4114  10.0610

          k = 0.2857 0.0000 0.0000 (  6859 PWs)   bands (ev):

   -45.1616 -21.8529 -21.8000 -21.7576  -6.8005  -5.9246  -5.7021  -4.4680
    -4.4125  -4.4097  -4.2666  -4.1251   3.8730   6.6511   7.0481   7.0677
     8.5160   8.5234   8.8387   8.8499   9.2667   9.8904

          k = 0.2857 0.0000 0.1926 (  6869 PWs)   bands (ev):

   -45.1613 -21.8700 -21.7991 -21.7568  -6.6888  -5.8990  -5.6386  -4.4491
    -4.4242  -4.4120  -4.2563  -4.1258   3.5798   6.4861   7.1086   7.1346
     8.0698   8.3449   8.5277   8.9305   9.2644  10.1330

          k = 0.2857 0.0000 0.3853 (  6874 PWs)   bands (ev):

   -45.1609 -21.8976 -21.7976 -21.7556  -6.5298  -5.8376  -5.5127  -4.4467
    -4.4120  -4.4111  -4.2766  -4.1030   3.1681   6.1098   6.9536   7.1596
     7.7302   8.0342   8.2192   9.0021   9.6302  10.2820

          k = 0.2857 0.1437 0.0000 (  6861 PWs)   bands (ev):

   -45.1613 -21.8522 -21.7992 -21.7728  -6.6982  -5.8975  -5.7176  -4.4674
    -4.4211  -4.3920  -4.2350  -4.1168   3.6895   6.6137   7.0166   7.1801
     7.9255   8.2881   8.7605   9.1531   9.3765  10.0759

          k = 0.2857 0.1437 0.1926 (  6865 PWs)   bands (ev):

   -45.1611 -21.8693 -21.7983 -21.7720  -6.5861  -5.8867  -5.6607  -4.4508
    -4.4281  -4.3818  -4.2190  -4.1064   3.5233   6.4466   6.6068   7.1934
     7.7007   8.2068   8.8496   9.1243   9.3666  10.0496

          k = 0.2857 0.1437 0.3853 (  6869 PWs)   bands (ev):

   -45.1606 -21.8968 -21.7969 -21.7708  -6.4297  -5.8585  -5.5387  -4.4507
    -4.4090  -4.3466  -4.2240  -4.0797   3.2285   6.0568   6.4906   6.8247
     7.2840   8.0183   8.8573   9.1787   9.6461   9.9849

          k = 0.2857 0.2874 0.0000 (  6847 PWs)   bands (ev):

   -45.1606 -21.8507 -21.8068 -21.7974  -6.4636  -5.8369  -5.7494  -4.4587
    -4.4173  -4.3490  -4.1775  -4.1142   3.3113   6.5971   6.7003   7.3872
     7.5280   7.8058   8.6016   9.1428   9.6603  10.1601

          k = 0.2857 0.2874 0.1926 (  6861 PWs)   bands (ev):

   -45.1604 -21.8677 -21.8060 -21.7966  -6.3533  -5.8562  -5.7089  -4.4318
    -4.4184  -4.3219  -4.1499  -4.0753   3.3519   6.2757   6.3048   6.7477
     7.4233   7.8082   9.0724   9.2733   9.6880   9.7875

          k = 0.2857 0.2874 0.3853 (  6867 PWs)   bands (ev):

   -45.1600 -21.8950 -21.8047 -21.7953  -6.2180  -5.8866  -5.5870  -4.4153
    -4.3893  -4.2633  -4.1123  -4.0174   3.3478   5.7900   5.9329   6.4003
     7.0734   7.2952   8.9540   9.5977   9.6437   9.8591

          k = 0.2857 0.4311 0.0000 (  6866 PWs)   bands (ev):

   -45.1601 -21.8493 -21.8340 -21.7960  -6.2748  -5.7885  -5.7677  -4.4517
    -4.3962  -4.2858  -4.1533  -4.1332   3.0431   6.1545   6.7391   7.2038
     7.6768   7.8727   8.1446   9.1540   9.7555  10.1243

          k = 0.2857 0.4311 0.1926 (  6841 PWs)   bands (ev):

   -45.1599 -21.8662 -21.8332 -21.7952  -6.1748  -5.8079  -5.7564  -4.4224
    -4.3896  -4.2422  -4.1188  -4.0661   3.1883   6.0677   6.1885   6.4052
     7.1699   7.9133   8.8740   9.3129   9.5039   9.8610

          k = 0.2857 0.4311 0.3853 (  6862 PWs)   bands (ev):

   -45.1595 -21.8934 -21.8317 -21.7940  -6.1140  -5.8309  -5.6257  -4.3939
    -4.3570  -4.1826  -4.0626  -3.9473   3.4204   5.5452   5.6887   6.0950
     6.6879   7.2767   8.1915   9.7027   9.7884  10.0716

          k = 0.4286 0.0000 0.0000 (  6846 PWs)   bands (ev):

   -45.1611 -21.8516 -21.8256 -21.7565  -6.5757  -5.8662  -5.6966  -4.4906
    -4.4310  -4.4079  -4.2428  -4.1574   3.5470   6.1707   7.3168   7.3290
     7.9840   8.0568   8.7479   8.8726   9.3238  10.7850

          k = 0.4286 0.0000 0.1926 (  6858 PWs)   bands (ev):

   -45.1609 -21.8686 -21.8246 -21.7557  -6.5117  -5.8204  -5.6279  -4.4642
    -4.4315  -4.4226  -4.2146  -4.1364   3.3292   6.1453   7.1367   7.4357
     7.4935   7.9398   8.6602   8.8762   9.2702  10.5426

          k = 0.4286 0.0000 0.3853 (  6875 PWs)   bands (ev):

   -45.1605 -21.8960 -21.8229 -21.7545  -6.4562  -5.7297  -5.4531  -4.4461
    -4.4323  -4.4142  -4.2632  -4.0291   3.0074   5.9415   6.5888   7.3849
     7.4847   7.9070   7.9184   8.8802   9.8378  10.1201

          k = 0.4286 0.1437 0.0000 (  6854 PWs)   bands (ev):

   -45.1608 -21.8509 -21.8247 -21.7717  -6.4794  -5.8419  -5.7315  -4.4784
    -4.4123  -4.3790  -4.2165  -4.1488   3.3916   6.1838   7.0937   7.5145
     7.5182   8.1220   8.4814   9.1462   9.4264  10.5999

          k = 0.4286 0.1437 0.1926 (  6865 PWs)   bands (ev):

   -45.1606 -21.8679 -21.8238 -21.7709  -6.4086  -5.8173  -5.6748  -4.4551
    -4.4167  -4.3665  -4.1832  -4.1166   3.3061   6.1494   6.5288   6.9911
     7.5508   8.3479   8.5225   9.1319   9.3975  10.2239

          k = 0.4286 0.1437 0.3853 (  6874 PWs)   bands (ev):

   -45.1602 -21.8953 -21.8221 -21.7696  -6.3522  -5.7658  -5.5133  -4.4450
    -4.3860  -4.3414  -4.2028  -4.0095   3.1271   5.9043   6.3358   6.5435
     6.8692   8.1591   8.8535   8.9930   9.4273  10.0467

          k = 0.4286 0.2874 0.0000 (  6878 PWs)   bands (ev):

   -45.1602 -21.8494 -21.8228 -21.8055  -6.2800  -5.7910  -5.7732  -4.4515
    -4.3965  -4.2892  -4.1474  -4.1388   3.0457   6.1983   6.7090   7.2067
     7.6906   7.8708   8.1417   9.1569   9.8026  10.0816

          k = 0.4286 0.2874 0.1926 (  6850 PWs)   bands (ev):

   -45.1599 -21.8663 -21.8219 -21.8047  -6.1791  -5.8136  -5.7583  -4.4217
    -4.3910  -4.2443  -4.1114  -4.0758   3.1880   6.0982   6.1994   6.3874
     7.1634   7.9132   8.9067   9.3142   9.5002   9.8643

          k = 0.4286 0.2874 0.3853 (  6860 PWs)   bands (ev):

   -45.1595 -21.8935 -21.8205 -21.8035  -6.1137  -5.8409  -5.6261  -4.3929
    -4.3594  -4.1833  -4.0513  -3.9638   3.4125   5.5556   5.6766   6.1136
     6.7094   7.2615   8.2144   9.7234   9.8083  10.0571

          k = 0.4286 0.4311 0.0000 (  6857 PWs)   bands (ev):

   -45.1596 -21.8479 -21.8325 -21.8212  -6.1692  -5.7535  -5.7422  -4.4369
    -4.3514  -4.2158  -4.1662  -4.0795   2.7770   6.0218   6.4441   7.3737
     7.4661   7.8843   8.0619   8.8886   9.4897  10.2360

          k = 0.4286 0.4311 0.1926 (  6865 PWs)   bands (ev):

   -45.1594 -21.8648 -21.8318 -21.8204  -6.0234  -5.8038  -5.7920  -4.4047
    -4.3455  -4.1348  -4.0745  -4.0429   3.0319   5.9724   6.1776   6.2248
     6.6258   7.8762   8.5312   9.2404   9.2573  10.2265

          k = 0.4286 0.4311 0.3853 (  6859 PWs)   bands (ev):

   -45.1590 -21.8920 -21.8305 -21.8191  -5.9278  -5.8822  -5.7067  -4.3527
    -4.3394  -4.0441  -3.9446  -3.9251   3.6109   5.3456   5.4491   5.8878
     6.5504   6.7859   7.1584  10.0504  10.0767  10.2129

     highest occupied level (ev):    10.8070

!    total energy              =    -380.57751738 Ry
     estimated scf accuracy    <          6.4E-09 Ry

     The total energy is the sum of the following terms:
     one-electron contribution =     -79.64520880 Ry
     hartree contribution      =      69.90277868 Ry
     xc contribution           =    -102.67767305 Ry
     ewald contribution        =    -268.15741420 Ry

     convergence has been achieved in  16 iterations

     negative rho (up, down):  1.583E-02 0.000E+00

     Forces acting on atoms (cartesian axes, Ry/au):

     atom    1 type  1   force =     0.00000000    0.00000000   -0.00048576
     atom    2 type  2   force =     0.00000000    0.00000000    0.00777245
     atom    3 type  3   force =     0.00000000    0.00000000   -0.00645470
     atom    4 type  3   force =     0.00000000    0.00000000    0.00019038
     atom    5 type  3   force =     0.00000000    0.00000000   -0.00102236

     Total force =     0.010168     Total SCF correction =     0.000442


     Computing stress (Cartesian axis) and pressure


     negative rho (up, down):  1.583E-02 0.000E+00
          total   stress  (Ry/bohr**3)                   (kbar)     P=        1.62
  -0.00006327   0.00000000   0.00000000           -9.31        0.00        0.00
   0.00000000   0.00001167   0.00000000            0.00        1.72        0.00
   0.00000000   0.00000000   0.00008462            0.00        0.00       12.45


     BFGS Geometry Optimization
     Energy error            =      0.0E+00 Ry
     Gradient error          =      7.8E-03 Ry/Bohr

     number of scf cycles    =   1
     number of bfgs steps    =   0

     energy             new  =    -380.5775173802 Ry

     new trust radius        =       0.0077724457 bohr
     new conv_thr            =       0.0000000100 Ry


ATOMIC_POSITIONS (crystal)
Pb            0.0000000000        0.0000000000        1.0051265770
Ti            0.5000000000        0.5000000000        0.5405337203
O             0.5000000000        0.5000000000        0.0986305569
O             0.5000000000        0.0000000000        0.6115763959
O             0.0000000000        0.5000000000        0.6114170379



     Writing config-only to output data dir ./PTO2.save/
     NEW-OLD atomic charge density approx. for the potential

     Check: negative core charge=   -0.000003

     negative rho (up, down):  1.584E-02 0.000E+00

     total cpu time spent up to now is     1162.5 secs

     Self-consistent Calculation

     iteration #  1     ecut=   100.00 Ry     beta= 0.70
     CG style diagonalization
     ethr =  1.00E-06,  avg # of iterations =  4.9

     negative rho (up, down):  1.585E-02 0.000E+00

     total cpu time spent up to now is     1231.8 secs

     total energy              =    -380.57754872 Ry
     estimated scf accuracy    <       0.00005068 Ry

     iteration #  2     ecut=   100.00 Ry     beta= 0.70
     CG style diagonalization
     ethr =  1.15E-07,  avg # of iterations =  4.8

     negative rho (up, down):  1.584E-02 0.000E+00

     total cpu time spent up to now is     1293.3 secs

     total energy              =    -380.57755716 Ry
     estimated scf accuracy    <       0.00014262 Ry

     iteration #  3     ecut=   100.00 Ry     beta= 0.70
     CG style diagonalization
     ethr =  1.15E-07,  avg # of iterations =  4.4

     negative rho (up, down):  1.584E-02 0.000E+00

     total cpu time spent up to now is     1349.4 secs

     total energy              =    -380.57758365 Ry
     estimated scf accuracy    <       0.00000826 Ry

     iteration #  4     ecut=   100.00 Ry     beta= 0.70
     CG style diagonalization
     ethr =  1.88E-08,  avg # of iterations =  3.7

     negative rho (up, down):  1.584E-02 0.000E+00

     total cpu time spent up to now is     1397.2 secs

     total energy              =    -380.57758580 Ry
     estimated scf accuracy    <       0.00000098 Ry

     iteration #  5     ecut=   100.00 Ry     beta= 0.70
     CG style diagonalization
     ethr =  2.24E-09,  avg # of iterations =  4.5

     negative rho (up, down):  1.584E-02 0.000E+00

     total cpu time spent up to now is     1454.9 secs

     total energy              =    -380.57758630 Ry
     estimated scf accuracy    <       0.00000018 Ry

     iteration #  6     ecut=   100.00 Ry     beta= 0.70
     CG style diagonalization
     ethr =  4.09E-10,  avg # of iterations =  4.2

     negative rho (up, down):  1.584E-02 0.000E+00

     total cpu time spent up to now is     1509.0 secs

     total energy              =    -380.57758637 Ry
     estimated scf accuracy    <       0.00000004 Ry

     iteration #  7     ecut=   100.00 Ry     beta= 0.70
     CG style diagonalization
     ethr =  9.49E-11,  avg # of iterations =  4.2

     negative rho (up, down):  1.584E-02 0.000E+00

     total cpu time spent up to now is     1563.5 secs

     End of self-consistent calculation

          k = 0.0000 0.0000 0.0000 (  6865 PWs)   bands (ev):

   -45.1788 -21.8595 -21.7767 -21.7709  -7.1611  -6.0122  -5.7589  -4.4138
    -4.4119  -4.3750  -4.2653  -4.1294   4.8620   6.6939   6.7404   7.1310
     8.7359   8.7463   8.9737   9.3157   9.4203   9.4313

          k = 0.0000 0.0000 0.1926 (  6860 PWs)   bands (ev):

   -45.1786 -21.8769 -21.7760 -21.7702  -7.0145  -5.9684  -5.7050  -4.4268
    -4.4250  -4.3739  -4.2542  -4.1836   4.2106   6.7416   6.7822   7.4141
     8.5259   8.5438   8.9115   9.1964   9.5162   9.5223

          k = 0.0000 0.0000 0.3853 (  6872 PWs)   bands (ev):

   -45.1782 -21.9050 -21.7749 -21.7690  -6.7607  -5.8914  -5.6219  -4.4477
    -4.4460  -4.3721  -4.2784  -4.2364   3.5415   6.7010   6.8001   6.8279
     8.2997   8.3351   8.8149   9.6130   9.6151  10.3599

          k = 0.0000 0.1437 0.0000 (  6869 PWs)   bands (ev):

   -45.1785 -21.8589 -21.7921 -21.7702  -7.0519  -5.9857  -5.7364  -4.4308
    -4.4126  -4.3862  -4.2664  -4.1209   4.4678   6.7767   6.8112   7.1957
     8.6579   8.7461   8.9708   9.1441   9.1895   9.5625

          k = 0.0000 0.1437 0.1926 (  6885 PWs)   bands (ev):

   -45.1783 -21.8762 -21.7913 -21.7695  -6.9125  -5.9511  -5.6806  -4.4335
    -4.4259  -4.3854  -4.2591  -4.1548   3.9927   6.6713   6.8303   7.4678
     8.2723   8.5133   8.8896   9.1033   9.2622   9.7480

          k = 0.0000 0.1437 0.3853 (  6870 PWs)   bands (ev):

   -45.1779 -21.9041 -21.7901 -21.7684  -6.6779  -5.8903  -5.5876  -4.4473
    -4.4355  -4.3841  -4.2553  -4.2077   3.4243   6.3891   6.8950   7.0558
     8.0178   8.2922   8.9641   9.1405   9.3607  10.4603

          k = 0.0000 0.2874 0.0000 (  6855 PWs)   bands (ev):

   -45.1779 -21.8575 -21.8263 -21.7688  -6.7897  -5.9249  -5.6940  -4.4645
    -4.4115  -4.4095  -4.2621  -4.1208   3.8739   6.6317   6.9980   7.0629
     8.5008   8.5295   8.8538   8.8751   9.2793   9.9048

          k = 0.0000 0.2874 0.1926 (  6873 PWs)   bands (ev):

   -45.1776 -21.8746 -21.8255 -21.7680  -6.6789  -5.9014  -5.6298  -4.4453
    -4.4240  -4.4110  -4.2551  -4.1157   3.5888   6.4815   7.0687   7.1187
     8.0632   8.3356   8.5183   8.9319   9.2851  10.1503

          k = 0.0000 0.2874 0.3853 (  6869 PWs)   bands (ev):

   -45.1772 -21.9021 -21.8241 -21.7668  -6.5216  -5.8444  -5.5017  -4.4464
    -4.4109  -4.4074  -4.2762  -4.0870   3.1863   6.1260   6.9294   7.1453
     7.7062   8.0119   8.1890   8.9838   9.6761  10.2569

          k = 0.0000 0.4311 0.0000 (  6848 PWs)   bands (ev):

   -45.1773 -21.8566 -21.8533 -21.7676  -6.5572  -5.8601  -5.6880  -4.4871
    -4.4309  -4.4077  -4.2333  -4.1548   3.5461   6.1204   7.2709   7.3101
     7.9914   8.0389   8.7462   8.9100   9.3381  10.8143

          k = 0.0000 0.4311 0.1926 (  6842 PWs)   bands (ev):

   -45.1771 -21.8730 -21.8528 -21.7669  -6.4958  -5.8160  -5.6181  -4.4605
    -4.4314  -4.4223  -4.2124  -4.1224   3.3387   6.1010   7.1290   7.3852
     7.4834   7.9303   8.6537   8.8868   9.2772  10.5606

          k = 0.0000 0.4311 0.3853 (  6868 PWs)   bands (ev):

   -45.1767 -21.9003 -21.8512 -21.7656  -6.4454  -5.7279  -5.4403  -4.4457
    -4.4322  -4.4105  -4.2608  -4.0086   3.0297   5.9349   6.5574   7.3563
     7.4792   7.8765   7.8822   8.8639   9.8290  10.1278

          k = 0.1429 0.0000 0.0000 (  6873 PWs)   bands (ev):

   -45.1786 -21.8589 -21.7852 -21.7761  -7.0560  -5.9875  -5.7373  -4.4325
    -4.4108  -4.3856  -4.2666  -4.1223   4.4654   6.7852   6.8225   7.1997
     8.6459   8.7598   8.9661   9.1377   9.1949   9.5625

          k = 0.1429 0.0000 0.1926 (  6881 PWs)   bands (ev):

   -45.1783 -21.8763 -21.7845 -21.7754  -6.9170  -5.9520  -5.6813  -4.4351
    -4.4242  -4.3848  -4.2576  -4.1588   3.9890   6.6470   6.8700   7.4740
     8.2742   8.5313   8.8874   9.0896   9.2639   9.7448

          k = 0.1429 0.0000 0.3853 (  6889 PWs)   bands (ev):

   -45.1779 -21.9041 -21.7832 -21.7742  -6.6835  -5.8891  -5.5881  -4.4457
    -4.4363  -4.3836  -4.2514  -4.2165   3.4195   6.3734   6.9211   7.0604
     8.0054   8.3275   8.9716   9.1213   9.3671  10.4625

          k = 0.1429 0.1437 0.0000 (  6854 PWs)   bands (ev):

   -45.1783 -21.8583 -21.7914 -21.7845  -6.9482  -5.9604  -5.7265  -4.4364
    -4.4250  -4.3922  -4.2510  -4.1141   4.1827   6.7221   6.9419   7.2617
     8.3162   8.5021   9.0035   9.0586   9.3860   9.7104

          k = 0.1429 0.1437 0.1926 (  6878 PWs)   bands (ev):

   -45.1780 -21.8756 -21.7907 -21.7838  -6.8146  -5.9352  -5.6711  -4.4402
    -4.4263  -4.3908  -4.2420  -4.1346   3.8419   6.6154   6.6994   7.4871
     8.1602   8.2640   8.8234   9.1678   9.4205   9.7619

          k = 0.1429 0.1437 0.3853 (  6873 PWs)   bands (ev):

   -45.1776 -21.9033 -21.7894 -21.7825  -6.5953  -5.8931  -5.5719  -4.4599
    -4.4002  -4.3856  -4.2382  -4.1739   3.3686   6.4179   6.4375   7.1468
     8.0545   8.0671   8.7311   9.2377   9.4612  10.3281

          k = 0.1429 0.2874 0.0000 (  6854 PWs)   bands (ev):

   -45.1776 -21.8569 -21.8256 -21.7830  -6.6911  -5.8993  -5.7109  -4.4650
    -4.4195  -4.3898  -4.2313  -4.1138   3.6884   6.5890   7.0010   7.1671
     7.9312   8.3133   8.7619   9.1394   9.3794  10.0990

          k = 0.1429 0.2874 0.1926 (  6862 PWs)   bands (ev):

   -45.1774 -21.8739 -21.8248 -21.7822  -6.5803  -5.8900  -5.6529  -4.4482
    -4.4264  -4.3796  -4.2181  -4.0990   3.5285   6.4409   6.5885   7.1849
     7.7039   8.1919   8.8367   9.1203   9.3779  10.0669

          k = 0.1429 0.2874 0.3853 (  6876 PWs)   bands (ev):

   -45.1769 -21.9013 -21.8234 -21.7810  -6.4263  -5.8644  -5.5284  -4.4480
    -4.4069  -4.3449  -4.2256  -4.0664   3.2423   6.0716   6.4767   6.8144
     7.2589   7.9985   8.8518   9.1465   9.6860   9.9668

          k = 0.1429 0.4311 0.0000 (  6832 PWs)   bands (ev):

   -45.1771 -21.8560 -21.8525 -21.7817  -6.4649  -5.8369  -5.7248  -4.4758
    -4.4107  -4.3768  -4.2086  -4.1473   3.3884   6.1314   7.0803   7.4887
     7.5240   8.1195   8.5126   9.1252   9.4288  10.6302

          k = 0.1429 0.4311 0.1926 (  6847 PWs)   bands (ev):

   -45.1768 -21.8724 -21.8521 -21.7810  -6.3971  -5.8133  -5.6666  -4.4525
    -4.4147  -4.3644  -4.1833  -4.1040   3.3117   6.1043   6.5086   7.0006
     7.5531   8.3236   8.4932   9.1358   9.3990  10.2408

          k = 0.1429 0.4311 0.3853 (  6857 PWs)   bands (ev):

   -45.1764 -21.8996 -21.8505 -21.7797  -6.3465  -5.7628  -5.5022  -4.4423
    -4.3834  -4.3389  -4.2054  -3.9898   3.1459   5.9031   6.3106   6.5119
     6.8670   8.1399   8.7956   8.9846   9.4129  10.0711

          k = 0.2857 0.0000 0.0000 (  6859 PWs)   bands (ev):

   -45.1780 -21.8576 -21.8172 -21.7748  -6.8036  -5.9307  -5.6971  -4.4660
    -4.4097  -4.4078  -4.2644  -4.1240   3.8737   6.6468   7.0433   7.0669
     8.5159   8.5209   8.8486   8.8706   9.2811   9.8995

          k = 0.2857 0.0000 0.1926 (  6869 PWs)   bands (ev):

   -45.1777 -21.8747 -21.8164 -21.7740  -6.6936  -5.9047  -5.6325  -4.4471
    -4.4224  -4.4091  -4.2540  -4.1248   3.5820   6.4853   7.1075   7.1336
     8.0671   8.3540   8.5307   8.9416   9.2714  10.1361

          k = 0.2857 0.0000 0.3853 (  6874 PWs)   bands (ev):

   -45.1773 -21.9022 -21.8149 -21.7728  -6.5374  -5.8431  -5.5040  -4.4450
    -4.4091  -4.4091  -4.2741  -4.1022   3.1726   6.1187   6.9440   7.1676
     7.7304   8.0262   8.2235   9.0017   9.6447  10.2769

          k = 0.2857 0.1437 0.0000 (  6861 PWs)   bands (ev):

   -45.1777 -21.8569 -21.8165 -21.7900  -6.7006  -5.9036  -5.7131  -4.4655
    -4.4191  -4.3893  -4.2325  -4.1158   3.6894   6.6070   7.0195   7.1751
     7.9249   8.3121   8.7562   9.1580   9.3788  10.0909

          k = 0.2857 0.1437 0.1926 (  6865 PWs)   bands (ev):

   -45.1774 -21.8740 -21.8156 -21.7893  -6.5902  -5.8925  -5.6547  -4.4487
    -4.4261  -4.3792  -4.2166  -4.1055   3.5247   6.4462   6.6068   7.1916
     7.7021   8.2091   8.8566   9.1277   9.3720  10.0535

          k = 0.2857 0.1437 0.3853 (  6869 PWs)   bands (ev):

   -45.1770 -21.9014 -21.8142 -21.7880  -6.4368  -5.8642  -5.5300  -4.4484
    -4.4066  -4.3444  -4.2215  -4.0790   3.2325   6.0651   6.4928   6.8191
     7.2771   8.0141   8.8730   9.1707   9.6588   9.9805

          k = 0.2857 0.2874 0.0000 (  6847 PWs)   bands (ev):

   -45.1770 -21.8555 -21.8240 -21.8147  -6.4637  -5.8429  -5.7466  -4.4570
    -4.4151  -4.3464  -4.1744  -4.1133   3.3099   6.5869   6.6983   7.3811
     7.5367   7.8316   8.5857   9.1485   9.6565  10.1713

          k = 0.2857 0.2874 0.1926 (  6861 PWs)   bands (ev):

   -45.1768 -21.8724 -21.8232 -21.8139  -6.3556  -5.8620  -5.7039  -4.4300
    -4.4160  -4.3192  -4.1470  -4.0746   3.3515   6.2756   6.3064   6.7436
     7.4212   7.8076   9.0811   9.2737   9.6862   9.7948

          k = 0.2857 0.2874 0.3853 (  6867 PWs)   bands (ev):

   -45.1763 -21.8996 -21.8219 -21.8126  -6.2238  -5.8922  -5.5786  -4.4128
    -4.3873  -4.2602  -4.1098  -4.0171   3.3501   5.7952   5.9313   6.4015
     7.0659   7.2831   8.9624   9.6060   9.6371   9.8682

          k = 0.2857 0.4311 0.0000 (  6866 PWs)   bands (ev):

   -45.1765 -21.8545 -21.8508 -21.8133  -6.2722  -5.7917  -5.7696  -4.4500
    -4.3939  -4.2834  -4.1512  -4.1309   3.0413   6.1442   6.7300   7.2161
     7.6689   7.9001   8.1331   9.1548   9.7548  10.1239

          k = 0.2857 0.4311 0.1926 (  6841 PWs)   bands (ev):

   -45.1762 -21.8709 -21.8504 -21.8125  -6.1756  -5.8119  -5.7538  -4.4205
    -4.3873  -4.2389  -4.1168  -4.0648   3.1869   6.0634   6.1872   6.4046
     7.1654   7.9148   8.8722   9.3212   9.5133   9.8558

          k = 0.2857 0.4311 0.3853 (  6862 PWs)   bands (ev):

   -45.1758 -21.8980 -21.8489 -21.8113  -6.1190  -5.8358  -5.6176  -4.3915
    -4.3551  -4.1780  -4.0611  -3.9468   3.4203   5.5426   5.6948   6.0891
     6.6829   7.2654   8.1949   9.7142   9.7829  10.0815

          k = 0.4286 0.0000 0.0000 (  6846 PWs)   bands (ev):

   -45.1775 -21.8563 -21.8429 -21.7737  -6.5792  -5.8709  -5.6914  -4.4888
    -4.4281  -4.4061  -4.2410  -4.1559   3.5481   6.1599   7.3184   7.3215
     7.9774   8.0529   8.7474   8.9090   9.3399  10.7926

          k = 0.4286 0.0000 0.1926 (  6858 PWs)   bands (ev):

   -45.1772 -21.8733 -21.8419 -21.7730  -6.5172  -5.8248  -5.6207  -4.4624
    -4.4286  -4.4208  -4.2128  -4.1353   3.3306   6.1366   7.1363   7.4306
     7.4921   7.9431   8.6629   8.8976   9.2734  10.5502

          k = 0.4286 0.0000 0.3853 (  6875 PWs)   bands (ev):

   -45.1768 -21.9006 -21.8402 -21.7717  -6.4638  -5.7342  -5.4432  -4.4444
    -4.4294  -4.4125  -4.2612  -4.0284   3.0090   5.9448   6.5820   7.3818
     7.4938   7.8997   7.9153   8.8866   9.8464  10.1256

          k = 0.4286 0.1437 0.0000 (  6854 PWs)   bands (ev):

   -45.1772 -21.8557 -21.8420 -21.7889  -6.4817  -5.8466  -5.7276  -4.4766
    -4.4103  -4.3759  -4.2145  -4.1473   3.3914   6.1727   7.0981   7.5043
     7.5166   8.1150   8.5134   9.1458   9.4347  10.6068

          k = 0.4286 0.1437 0.1926 (  6865 PWs)   bands (ev):

   -45.1769 -21.8726 -21.8411 -21.7881  -6.4132  -5.8215  -5.6685  -4.4532
    -4.4148  -4.3633  -4.1815  -4.1154   3.3065   6.1409   6.5277   6.9912
     7.5514   8.3510   8.5214   9.1450   9.3991  10.2310

          k = 0.4286 0.1437 0.3853 (  6874 PWs)   bands (ev):

   -45.1765 -21.8999 -21.8395 -21.7869  -6.3593  -5.7702  -5.5042  -4.4428
    -4.3840  -4.3381  -4.2012  -4.0088   3.1284   5.9091   6.3316   6.5368
     6.8699   8.1519   8.8485   9.0063   9.4304  10.0562

          k = 0.4286 0.2874 0.0000 (  6878 PWs)   bands (ev):

   -45.1765 -21.8542 -21.8401 -21.8226  -6.2778  -5.7952  -5.7736  -4.4499
    -4.3942  -4.2867  -4.1455  -4.1361   3.0437   6.1879   6.6993   7.2192
     7.6822   7.8990   8.1295   9.1579   9.8008  10.0822

          k = 0.4286 0.2874 0.1926 (  6850 PWs)   bands (ev):

   -45.1763 -21.8710 -21.8392 -21.8219  -6.1804  -5.8176  -5.7552  -4.4200
    -4.3886  -4.2410  -4.1096  -4.0741   3.1863   6.0953   6.1975   6.3854
     7.1587   7.9152   8.9050   9.3220   9.5095   9.8595

          k = 0.4286 0.2874 0.3853 (  6860 PWs)   bands (ev):

   -45.1759 -21.8981 -21.8378 -21.8207  -6.1193  -5.8451  -5.6181  -4.3905
    -4.3575  -4.1788  -4.0502  -3.9629   3.4119   5.5532   5.6829   6.1079
     6.7027   7.2513   8.2179   9.7346   9.8029  10.0671

          k = 0.4286 0.4311 0.0000 (  6857 PWs)   bands (ev):

   -45.1760 -21.8531 -21.8493 -21.8385  -6.1620  -5.7572  -5.7473  -4.4353
    -4.3489  -4.2143  -4.1652  -4.0748   2.7741   6.0138   6.4267   7.3908
     7.4873   7.8777   8.0517   8.8892   9.4874  10.2292

          k = 0.4286 0.4311 0.1926 (  6865 PWs)   bands (ev):

   -45.1758 -21.8695 -21.8490 -21.8377  -6.0181  -5.8076  -5.7948  -4.4031
    -4.3428  -4.1326  -4.0737  -4.0389   3.0286   5.9660   6.1769   6.2285
     6.6150   7.8767   8.5291   9.2466   9.2653  10.2197

          k = 0.4286 0.4311 0.3853 (  6859 PWs)   bands (ev):

   -45.1754 -21.8966 -21.8477 -21.8364  -5.9318  -5.8866  -5.6994  -4.3510
    -4.3368  -4.0387  -3.9431  -3.9247   3.6068   5.3475   5.4530   5.8819
     6.5327   6.7840   7.1602  10.0614  10.0861  10.2066

     highest occupied level (ev):    10.8143

!    total energy              =    -380.57758638 Ry
     estimated scf accuracy    <          6.4E-09 Ry

     The total energy is the sum of the following terms:
     one-electron contribution =     -79.60424150 Ry
     hartree contribution      =      69.87761623 Ry
     xc contribution           =    -102.67411413 Ry
     ewald contribution        =    -268.17684698 Ry

     convergence has been achieved in   7 iterations

     negative rho (up, down):  1.584E-02 0.000E+00

     Forces acting on atoms (cartesian axes, Ry/au):

     atom    1 type  1   force =     0.00000000    0.00000000    0.00063789
     atom    2 type  2   force =     0.00000000    0.00000000    0.00285611
     atom    3 type  3   force =     0.00000000    0.00000000   -0.00193055
     atom    4 type  3   force =     0.00000000    0.00000000   -0.00023991
     atom    5 type  3   force =     0.00000000    0.00000000   -0.00132354

     Total force =     0.003755     Total SCF correction =     0.000246


     Computing stress (Cartesian axis) and pressure


     negative rho (up, down):  1.584E-02 0.000E+00
          total   stress  (Ry/bohr**3)                   (kbar)     P=       -0.35
  -0.00006309   0.00000000   0.00000000           -9.28        0.00        0.00
   0.00000000   0.00001166   0.00000000            0.00        1.72        0.00
   0.00000000   0.00000000   0.00004439            0.00        0.00        6.53

     Energy error            =      6.9E-05 Ry
     Gradient error          =      2.9E-03 Ry/Bohr

     number of scf cycles    =   2
     number of bfgs steps    =   1

     energy             old  =    -380.5775173802 Ry
     energy             new  =    -380.5775863806 Ry

     CASE: energy            _new < energy            _old

     new trust radius        =       0.0046754887 bohr
     new conv_thr            =            1.0E-10 Ry


ATOMIC_POSITIONS (crystal)
Pb            0.0000000000        0.0000000000        1.0052519305
Ti            0.5000000000        0.5000000000        0.5411480984
O             0.5000000000        0.5000000000        0.0982088637
O             0.5000000000        0.0000000000        0.6115292914
O             0.0000000000        0.5000000000        0.6111461039



     Writing config-only to output data dir ./PTO2.save/
     NEW-OLD atomic charge density approx. for the potential

     Check: negative core charge=   -0.000003

     negative rho (up, down):  1.582E-02 0.000E+00

     total cpu time spent up to now is     1591.0 secs

     Self-consistent Calculation

     iteration #  1     ecut=   100.00 Ry     beta= 0.70
     CG style diagonalization
     ethr =  1.00E-06,  avg # of iterations =  3.7

     Threshold (ethr) on eigenvalues was too large:
     Diagonalizing with lowered threshold

     CG style diagonalization
     c_bands:  2 eigenvalues not converged
     c_bands:  1 eigenvalues not converged
     c_bands:  1 eigenvalues not converged
     c_bands:  1 eigenvalues not converged
     c_bands:  2 eigenvalues not converged
     c_bands:  1 eigenvalues not converged
     c_bands:  1 eigenvalues not converged
     c_bands:  2 eigenvalues not converged
     c_bands:  1 eigenvalues not converged
     c_bands:  1 eigenvalues not converged
     c_bands:  1 eigenvalues not converged
     c_bands:  1 eigenvalues not converged
     c_bands:  1 eigenvalues not converged
     c_bands:  1 eigenvalues not converged
     c_bands:  1 eigenvalues not converged
     c_bands:  1 eigenvalues not converged
     c_bands:  1 eigenvalues not converged
     ethr =  2.86E-08,  avg # of iterations =  6.3

     negative rho (up, down):  1.582E-02 0.000E+00

     total cpu time spent up to now is     1731.0 secs

     total energy              =    -380.57759167 Ry
     estimated scf accuracy    <       0.00001332 Ry

     iteration #  2     ecut=   100.00 Ry     beta= 0.70
     CG style diagonalization
     ethr =  3.03E-08,  avg # of iterations =  4.7

     negative rho (up, down):  1.582E-02 0.000E+00

     total cpu time spent up to now is     1792.4 secs

     total energy              =    -380.57759225 Ry
     estimated scf accuracy    <       0.00003493 Ry

     iteration #  3     ecut=   100.00 Ry     beta= 0.70
     CG style diagonalization
     ethr =  3.03E-08,  avg # of iterations =  4.4

     negative rho (up, down):  1.582E-02 0.000E+00

     total cpu time spent up to now is     1849.0 secs

     total energy              =    -380.57759925 Ry
     estimated scf accuracy    <       0.00000217 Ry

     iteration #  4     ecut=   100.00 Ry     beta= 0.70
     CG style diagonalization
     ethr =  4.92E-09,  avg # of iterations =  3.9

     negative rho (up, down):  1.582E-02 0.000E+00

     total cpu time spent up to now is     1899.0 secs

     total energy              =    -380.57759975 Ry
     estimated scf accuracy    <       0.00000031 Ry

     iteration #  5     ecut=   100.00 Ry     beta= 0.70
     CG style diagonalization
     ethr =  7.03E-10,  avg # of iterations =  4.4

     negative rho (up, down):  1.582E-02 0.000E+00

     total cpu time spent up to now is     1955.3 secs

     total energy              =    -380.57759993 Ry
     estimated scf accuracy    <       0.00000004 Ry

     iteration #  6     ecut=   100.00 Ry     beta= 0.70
     CG style diagonalization
     ethr =  9.01E-11,  avg # of iterations =  4.3

     negative rho (up, down):  1.582E-02 0.000E+00

     total cpu time spent up to now is     2010.8 secs

     total energy              =    -380.57759994 Ry
     estimated scf accuracy    <       0.00000001 Ry

     iteration #  7     ecut=   100.00 Ry     beta= 0.70
     CG style diagonalization
     ethr =  2.71E-11,  avg # of iterations =  4.7

     negative rho (up, down):  1.582E-02 0.000E+00

     total cpu time spent up to now is     2072.2 secs

     total energy              =    -380.57759995 Ry
     estimated scf accuracy    <          9.1E-09 Ry

     iteration #  8     ecut=   100.00 Ry     beta= 0.70
     CG style diagonalization
     ethr =  2.06E-11,  avg # of iterations =  4.1

     negative rho (up, down):  1.582E-02 0.000E+00

     total cpu time spent up to now is     2125.7 secs

     total energy              =    -380.57759995 Ry
     estimated scf accuracy    <          3.2E-10 Ry

     iteration #  9     ecut=   100.00 Ry     beta= 0.70
     CG style diagonalization
     ethr =  7.29E-13,  avg # of iterations =  8.0

     negative rho (up, down):  1.582E-02 0.000E+00

     total cpu time spent up to now is     2228.3 secs

     End of self-consistent calculation

          k = 0.0000 0.0000 0.0000 (  6865 PWs)   bands (ev):

   -45.1869 -21.8615 -21.7852 -21.7795  -7.1619  -6.0149  -5.7569  -4.4137
    -4.4118  -4.3746  -4.2643  -4.1307   4.8628   6.6939   6.7402   7.1254
     8.7554   8.7656   8.9746   9.3300   9.4181   9.4300

          k = 0.0000 0.0000 0.1926 (  6860 PWs)   bands (ev):

   -45.1866 -21.8789 -21.7845 -21.7788  -7.0159  -5.9712  -5.7025  -4.4267
    -4.4249  -4.3735  -4.2532  -4.1849   4.2129   6.7443   6.7845   7.4102
     8.5389   8.5565   8.9124   9.2034   9.5149   9.5210

          k = 0.0000 0.0000 0.3853 (  6872 PWs)   bands (ev):

   -45.1862 -21.9069 -21.7834 -21.7776  -6.7635  -5.8944  -5.6182  -4.4476
    -4.4459  -4.3717  -4.2796  -4.2354   3.5464   6.6981   6.8084   6.8352
     8.3031   8.3389   8.8160   9.6116   9.6131  10.3592

          k = 0.0000 0.1437 0.0000 (  6869 PWs)   bands (ev):

   -45.1866 -21.8609 -21.8006 -21.7788  -7.0525  -5.9883  -5.7342  -4.4306
    -4.4125  -4.3858  -4.2658  -4.1223   4.4684   6.7765   6.8100   7.1942
     8.6675   8.7642   8.9736   9.1442   9.1944   9.5690

          k = 0.0000 0.1437 0.1926 (  6885 PWs)   bands (ev):

   -45.1863 -21.8782 -21.7998 -21.7781  -6.9138  -5.9537  -5.6779  -4.4333
    -4.4258  -4.3850  -4.2584  -4.1562   3.9945   6.6730   6.8327   7.4660
     8.2784   8.5256   8.8916   9.1080   9.2617   9.7490

          k = 0.0000 0.1437 0.3853 (  6870 PWs)   bands (ev):

   -45.1859 -21.9060 -21.7986 -21.7770  -6.6805  -5.8931  -5.5837  -4.4472
    -4.4354  -4.3837  -4.2548  -4.2088   3.4284   6.3936   6.9030   7.0541
     8.0194   8.2957   8.9623   9.1452   9.3585  10.4579

          k = 0.0000 0.2874 0.0000 (  6855 PWs)   bands (ev):

   -45.1859 -21.8596 -21.8348 -21.7774  -6.7901  -5.9270  -5.6914  -4.4643
    -4.4111  -4.4093  -4.2622  -4.1221   3.8745   6.6300   6.9968   7.0622
     8.5003   8.5303   8.8537   8.8948   9.2882   9.9091

          k = 0.0000 0.2874 0.1926 (  6873 PWs)   bands (ev):

   -45.1857 -21.8766 -21.8340 -21.7766  -6.6800  -5.9034  -5.6266  -4.4451
    -4.4239  -4.4105  -4.2550  -4.1172   3.5899   6.4816   7.0698   7.1185
     8.0623   8.3418   8.5206   8.9388   9.2892  10.1520

          k = 0.0000 0.2874 0.3853 (  6869 PWs)   bands (ev):

   -45.1853 -21.9040 -21.8326 -21.7755  -6.5240  -5.8463  -5.4973  -4.4464
    -4.4105  -4.4072  -4.2760  -4.0885   3.1885   6.1316   6.9241   7.1525
     7.7062   8.0097   8.1920   8.9831   9.6840  10.2534

          k = 0.0000 0.4311 0.0000 (  6848 PWs)   bands (ev):

   -45.1854 -21.8629 -21.8576 -21.7762  -6.5575  -5.8616  -5.6849  -4.4871
    -4.4305  -4.4076  -4.2343  -4.1555   3.5471   6.1148   7.2678   7.3112
     7.9891   8.0386   8.7466   8.9317   9.3481  10.8174

          k = 0.0000 0.4311 0.1926 (  6842 PWs)   bands (ev):

   -45.1852 -21.8751 -21.8613 -21.7755  -6.4970  -5.8174  -5.6142  -4.4605
    -4.4310  -4.4222  -4.2126  -4.1239   3.3397   6.0964   7.1298   7.3835
     7.4837   7.9346   8.6559   8.8988   9.2789  10.5639

          k = 0.0000 0.4311 0.3853 (  6868 PWs)   bands (ev):

   -45.1848 -21.9023 -21.8597 -21.7742  -6.4478  -5.7292  -5.4351  -4.4457
    -4.4318  -4.4105  -4.2609  -4.0102   3.0306   5.9365   6.5550   7.3563
     7.4861   7.8775   7.8786   8.8658   9.8297  10.1330

          k = 0.1429 0.0000 0.0000 (  6873 PWs)   bands (ev):

   -45.1866 -21.8609 -21.7938 -21.7846  -7.0567  -5.9900  -5.7351  -4.4323
    -4.4107  -4.3852  -4.2659  -4.1236   4.4656   6.7842   6.8221   7.1982
     8.6560   8.7782   8.9694   9.1363   9.1993   9.5684

          k = 0.1429 0.0000 0.1926 (  6881 PWs)   bands (ev):

   -45.1864 -21.8783 -21.7931 -21.7839  -6.9184  -5.9545  -5.6786  -4.4350
    -4.4241  -4.3844  -4.2568  -4.1601   3.9906   6.6490   6.8720   7.4723
     8.2808   8.5431   8.8884   9.0945   9.2634   9.7453

          k = 0.1429 0.0000 0.3853 (  6889 PWs)   bands (ev):

   -45.1860 -21.9061 -21.7918 -21.7828  -6.6862  -5.8915  -5.5843  -4.4456
    -4.4364  -4.3831  -4.2508  -4.2175   3.4232   6.3784   6.9281   7.0590
     8.0069   8.3312   8.9690   9.1261   9.3656  10.4598

          k = 0.1429 0.1437 0.0000 (  6854 PWs)   bands (ev):

   -45.1863 -21.8603 -21.8000 -21.7931  -6.9487  -5.9627  -5.7242  -4.4363
    -4.4249  -4.3918  -4.2505  -4.1155   4.1829   6.7211   6.9398   7.2634
     8.3296   8.5027   9.0138   9.0607   9.3820   9.7216

          k = 0.1429 0.1437 0.1926 (  6878 PWs)   bands (ev):

   -45.1861 -21.8775 -21.7992 -21.7924  -6.8157  -5.9376  -5.6682  -4.4400
    -4.4262  -4.3904  -4.2414  -4.1360   3.8432   6.6178   6.7001   7.4880
     8.1653   8.2650   8.8331   9.1711   9.4183   9.7635

          k = 0.1429 0.1437 0.3853 (  6873 PWs)   bands (ev):

   -45.1857 -21.9052 -21.7980 -21.7911  -6.5978  -5.8955  -5.5678  -4.4597
    -4.4000  -4.3855  -4.2374  -4.1753   3.3718   6.4223   6.4430   7.1434
     8.0536   8.0711   8.7342   9.2408   9.4600  10.3250

          k = 0.1429 0.2874 0.0000 (  6854 PWs)   bands (ev):

   -45.1857 -21.8590 -21.8341 -21.7916  -6.6911  -5.9013  -5.7085  -4.4649
    -4.4193  -4.3895  -4.2311  -4.1151   3.6886   6.5860   7.0036   7.1644
     7.9323   8.3260   8.7601   9.1433   9.3812  10.1065

          k = 0.1429 0.2874 0.1926 (  6862 PWs)   bands (ev):

   -45.1854 -21.8759 -21.8333 -21.7908  -6.5810  -5.8919  -5.6498  -4.4480
    -4.4263  -4.3792  -4.2178  -4.1004   3.5294   6.4412   6.5892   7.1852
     7.7061   8.1918   8.8402   9.1244   9.3815  10.0682

          k = 0.1429 0.2874 0.3853 (  6876 PWs)   bands (ev):

   -45.1850 -21.9033 -21.8319 -21.7896  -6.4283  -5.8664  -5.5241  -4.4477
    -4.4067  -4.3447  -4.2252  -4.0679   3.2443   6.0769   6.4790   6.8116
     7.2566   7.9963   8.8597   9.1438   9.6927   9.9636

          k = 0.1429 0.4311 0.0000 (  6832 PWs)   bands (ev):

   -45.1851 -21.8621 -21.8569 -21.7903  -6.4646  -5.8383  -5.7223  -4.4758
    -4.4106  -4.3762  -4.2094  -4.1481   3.3890   6.1257   7.0832   7.4844
     7.5243   8.1155   8.5307   9.1262   9.4340  10.6328

          k = 0.1429 0.4311 0.1926 (  6847 PWs)   bands (ev):

   -45.1849 -21.8744 -21.8606 -21.7896  -6.3978  -5.8146  -5.6632  -4.4524
    -4.4146  -4.3637  -4.1836  -4.1054   3.3124   6.0998   6.5085   7.0026
     7.5549   8.3236   8.4935   9.1446   9.4004  10.2436

          k = 0.1429 0.4311 0.3853 (  6857 PWs)   bands (ev):

   -45.1845 -21.9016 -21.8590 -21.7884  -6.3484  -5.7641  -5.4976  -4.4420
    -4.3834  -4.3381  -4.2056  -3.9913   3.1468   5.9055   6.3093   6.5099
     6.8687   8.1357   8.7939   8.9926   9.4118  10.0771

          k = 0.2857 0.0000 0.0000 (  6859 PWs)   bands (ev):

   -45.1860 -21.8596 -21.8258 -21.7833  -6.8043  -5.9324  -5.6945  -4.4659
    -4.4094  -4.4076  -4.2643  -4.1251   3.8736   6.6454   7.0420   7.0655
     8.5146   8.5198   8.8496   8.8894   9.2894   9.9036

          k = 0.2857 0.0000 0.1926 (  6869 PWs)   bands (ev):

   -45.1858 -21.8767 -21.8250 -21.7826  -6.6950  -5.9061  -5.6292  -4.4471
    -4.4223  -4.4087  -4.2538  -4.1260   3.5823   6.4858   7.1084   7.1330
     8.0650   8.3591   8.5324   8.9486   9.2761  10.1372

          k = 0.2857 0.0000 0.3853 (  6874 PWs)   bands (ev):

   -45.1854 -21.9042 -21.8235 -21.7814  -6.5402  -5.8441  -5.4997  -4.4449
    -4.4093  -4.4087  -4.2738  -4.1033   3.1738   6.1248   6.9380   7.1739
     7.7307   8.0226   8.2259   9.0020   9.6533  10.2726

          k = 0.2857 0.1437 0.0000 (  6861 PWs)   bands (ev):

   -45.1857 -21.8590 -21.8251 -21.7985  -6.7008  -5.9052  -5.7107  -4.4654
    -4.4189  -4.3889  -4.2322  -4.1169   3.6891   6.6043   7.0218   7.1720
     7.9252   8.3246   8.7536   9.1615   9.3809  10.0984

          k = 0.2857 0.1437 0.1926 (  6865 PWs)   bands (ev):

   -45.1855 -21.8760 -21.8242 -21.7978  -6.5913  -5.8940  -5.6516  -4.4487
    -4.4260  -4.3788  -4.2163  -4.1066   3.5249   6.4470   6.6075   7.1911
     7.7026   8.2101   8.8602   9.1308   9.3758  10.0548

          k = 0.2857 0.1437 0.3853 (  6869 PWs)   bands (ev):

   -45.1851 -21.9034 -21.8228 -21.7965  -6.4392  -5.8654  -5.5257  -4.4482
    -4.4064  -4.3443  -4.2212  -4.0802   3.2338   6.0708   6.4952   6.8158
     7.2734   8.0119   8.8812   9.1677   9.6661   9.9770

          k = 0.2857 0.2874 0.0000 (  6847 PWs)   bands (ev):

   -45.1851 -21.8576 -21.8324 -21.8233  -6.4628  -5.8443  -5.7447  -4.4571
    -4.4148  -4.3463  -4.1739  -4.1145   3.3097   6.5821   6.6981   7.3772
     7.5418   7.8449   8.5768   9.1509   9.6558  10.1766

          k = 0.2857 0.2874 0.1926 (  6861 PWs)   bands (ev):

   -45.1848 -21.8744 -21.8317 -21.8225  -6.3557  -5.8634  -5.7011  -4.4301
    -4.4157  -4.3188  -4.1465  -4.0759   3.3516   6.2761   6.3077   6.7423
     7.4190   7.8069   9.0854   9.2744   9.6866   9.7980

          k = 0.2857 0.2874 0.3853 (  6867 PWs)   bands (ev):

   -45.1844 -21.9016 -21.8304 -21.8212  -6.2253  -5.8937  -5.5744  -4.4124
    -4.3873  -4.2595  -4.1095  -4.0184   3.3513   5.7985   5.9314   6.4031
     7.0615   7.2753   8.9648   9.6111   9.6350   9.8738

          k = 0.2857 0.4311 0.0000 (  6866 PWs)   bands (ev):

   -45.1845 -21.8603 -21.8555 -21.8219  -6.2700  -5.7920  -5.7692  -4.4501
    -4.3937  -4.2835  -4.1515  -4.1312   3.0413   6.1389   6.7259   7.2226
     7.6646   7.9143   8.1268   9.1546   9.7553  10.1231

          k = 0.2857 0.4311 0.1926 (  6841 PWs)   bands (ev):

   -45.1843 -21.8729 -21.8589 -21.8211  -6.1748  -5.8127  -5.7518  -4.4206
    -4.3871  -4.2383  -4.1169  -4.0657   3.1870   6.0612   6.1865   6.4052
     7.1623   7.9147   8.8707   9.3260   9.5178   9.8543

          k = 0.2857 0.4311 0.3853 (  6862 PWs)   bands (ev):

   -45.1839 -21.9000 -21.8575 -21.8199  -6.1200  -5.8371  -5.6137  -4.3911
    -4.3551  -4.1764  -4.0614  -3.9480   3.4211   5.5416   5.6982   6.0868
     6.6802   7.2578   8.1944   9.7209   9.7816  10.0872

          k = 0.4286 0.0000 0.0000 (  6846 PWs)   bands (ev):

   -45.1855 -21.8584 -21.8514 -21.7822  -6.5803  -5.8714  -5.6883  -4.4889
    -4.4277  -4.4060  -4.2415  -4.1564   3.5482   6.1539   7.3177   7.3187
     7.9734   8.0517   8.7490   8.9297   9.3493  10.7959

          k = 0.4286 0.0000 0.1926 (  6858 PWs)   bands (ev):

   -45.1853 -21.8753 -21.8505 -21.7815  -6.5192  -5.8250  -5.6167  -4.4626
    -4.4282  -4.4207  -4.2130  -4.1361   3.3303   6.1319   7.1359   7.4291
     7.4909   7.9459   8.6648   8.9097   9.2757  10.5536

          k = 0.4286 0.0000 0.3853 (  6875 PWs)   bands (ev):

   -45.1849 -21.9026 -21.8489 -21.7802  -6.4669  -5.7341  -5.4380  -4.4443
    -4.4290  -4.4128  -4.2615  -4.0294   3.0084   5.9475   6.5772   7.3814
     7.5001   7.8959   7.9150   8.8898   9.8493  10.1290

          k = 0.4286 0.1437 0.0000 (  6854 PWs)   bands (ev):

   -45.1852 -21.8578 -21.8505 -21.7974  -6.4820  -5.8470  -5.7251  -4.4767
    -4.4102  -4.3754  -4.2148  -4.1480   3.3912   6.1666   7.1008   7.4990
     7.5160   8.1105   8.5310   9.1470   9.4396  10.6098

          k = 0.4286 0.1437 0.1926 (  6865 PWs)   bands (ev):

   -45.1850 -21.8746 -21.8497 -21.7966  -6.4147  -5.8217  -5.6651  -4.4533
    -4.4147  -4.3626  -4.1818  -4.1163   3.3062   6.1363   6.5275   6.9917
     7.5520   8.3520   8.5210   9.1529   9.4010  10.2341

          k = 0.4286 0.1437 0.3853 (  6874 PWs)   bands (ev):

   -45.1846 -21.9018 -21.8481 -21.7954  -6.3620  -5.7702  -5.4995  -4.4426
    -4.3840  -4.3373  -4.2018  -4.0097   3.1279   5.9126   6.3303   6.5329
     6.8704   8.1480   8.8464   9.0138   9.4305  10.0621

          k = 0.4286 0.2874 0.0000 (  6878 PWs)   bands (ev):

   -45.1846 -21.8563 -21.8486 -21.8311  -6.2761  -5.7956  -5.7726  -4.4500
    -4.3941  -4.2866  -4.1462  -4.1359   3.0433   6.1821   6.6948   7.2259
     7.6773   7.9136   8.1225   9.1580   9.8007  10.0822

          k = 0.4286 0.2874 0.1926 (  6850 PWs)   bands (ev):

   -45.1843 -21.8730 -21.8478 -21.8304  -6.1802  -5.8178  -5.7529  -4.4201
    -4.3883  -4.2404  -4.1100  -4.0745   3.1859   6.0936   6.1964   6.3847
     7.1555   7.9156   8.9030   9.3265   9.5140   9.8584

          k = 0.4286 0.2874 0.3853 (  6860 PWs)   bands (ev):

   -45.1839 -21.9001 -21.8464 -21.8292  -6.1212  -5.8452  -5.6142  -4.3903
    -4.3574  -4.1772  -4.0509  -3.9636   3.4117   5.5526   5.6865   6.1053
     6.6981   7.2452   8.2173   9.7409   9.8017  10.0731

          k = 0.4286 0.4311 0.0000 (  6857 PWs)   bands (ev):

   -45.1841 -21.8588 -21.8542 -21.8470  -6.1583  -5.7570  -5.7483  -4.4354
    -4.3486  -4.2152  -4.1665  -4.0732   2.7739   6.0099   6.4169   7.3996
     7.4981   7.8740   8.0460   8.8887   9.4848  10.2270

          k = 0.4286 0.4311 0.1926 (  6865 PWs)   bands (ev):

   -45.1838 -21.8715 -21.8575 -21.8464  -6.0152  -5.8077  -5.7949  -4.4032
    -4.3425  -4.1327  -4.0749  -4.0378   3.0284   5.9629   6.1760   6.2299
     6.6084   7.8764   8.5262   9.2501   9.2698  10.2175

          k = 0.4286 0.4311 0.3853 (  6859 PWs)   bands (ev):

   -45.1834 -21.8986 -21.8562 -21.8451  -5.9323  -5.8875  -5.6958  -4.3511
    -4.3364  -4.0366  -3.9434  -3.9258   3.6069   5.3480   5.4544   5.8794
     6.5224   6.7820   7.1583  10.0676  10.0913  10.2047

     highest occupied level (ev):    10.8174

!    total energy              =    -380.57759995 Ry
     estimated scf accuracy    <          4.2E-11 Ry

     The total energy is the sum of the following terms:
     one-electron contribution =     -79.56974788 Ry
     hartree contribution      =      69.85786170 Ry
     xc contribution           =    -102.67204361 Ry
     ewald contribution        =    -268.19367016 Ry

     convergence has been achieved in   9 iterations

     negative rho (up, down):  1.582E-02 0.000E+00

     Forces acting on atoms (cartesian axes, Ry/au):

     atom    1 type  1   force =     0.00000000    0.00000000    0.00110062
     atom    2 type  2   force =     0.00000000    0.00000000    0.00031283
     atom    3 type  3   force =     0.00000000    0.00000000    0.00020957
     atom    4 type  3   force =     0.00000000    0.00000000   -0.00035707
     atom    5 type  3   force =     0.00000000    0.00000000   -0.00126596

     Total force =     0.001756     Total SCF correction =     0.000029


     Computing stress (Cartesian axis) and pressure


     negative rho (up, down):  1.582E-02 0.000E+00
          total   stress  (Ry/bohr**3)                   (kbar)     P=       -1.54
  -0.00006367   0.00000000   0.00000000           -9.37        0.00        0.00
   0.00000000   0.00001046   0.00000000            0.00        1.54        0.00
   0.00000000   0.00000000   0.00002176            0.00        0.00        3.20

     Energy error            =      1.4E-05 Ry
     Gradient error          =      1.3E-03 Ry/Bohr

     number of scf cycles    =   3
     number of bfgs steps    =   2

     energy             old  =    -380.5775863806 Ry
     energy             new  =    -380.5775999528 Ry

     CASE: energy            _new < energy            _old

     new trust radius        =       0.0019927268 bohr
     new conv_thr            =            1.0E-10 Ry


ATOMIC_POSITIONS (crystal)
Pb            0.0000000000        0.0000000000        1.0054521429
Ti            0.5000000000        0.5000000000        0.5413530504
O             0.5000000000        0.5000000000        0.0981314669
O             0.5000000000        0.0000000000        0.6114633762
O             0.0000000000        0.5000000000        0.6108842515



     Writing config-only to output data dir ./PTO2.save/
     NEW-OLD atomic charge density approx. for the potential

     Check: negative core charge=   -0.000003

     negative rho (up, down):  1.578E-02 0.000E+00

     total cpu time spent up to now is     2256.0 secs

     Self-consistent Calculation

     iteration #  1     ecut=   100.00 Ry     beta= 0.70
     CG style diagonalization
     ethr =  1.00E-06,  avg # of iterations =  3.0

     Threshold (ethr) on eigenvalues was too large:
     Diagonalizing with lowered threshold

     CG style diagonalization
     c_bands:  1 eigenvalues not converged
     c_bands:  1 eigenvalues not converged
     c_bands:  2 eigenvalues not converged
     c_bands:  1 eigenvalues not converged
     c_bands:  1 eigenvalues not converged
     c_bands:  1 eigenvalues not converged
     c_bands:  1 eigenvalues not converged
     c_bands:  1 eigenvalues not converged
     c_bands:  1 eigenvalues not converged
     c_bands:  1 eigenvalues not converged
     c_bands:  1 eigenvalues not converged
     ethr =  5.22E-09,  avg # of iterations =  7.0

     negative rho (up, down):  1.579E-02 0.000E+00

     total cpu time spent up to now is     2395.5 secs

     total energy              =    -380.57760303 Ry
     estimated scf accuracy    <       0.00000094 Ry

     iteration #  2     ecut=   100.00 Ry     beta= 0.70
     CG style diagonalization
     ethr =  2.13E-09,  avg # of iterations =  4.7

     negative rho (up, down):  1.579E-02 0.000E+00

     total cpu time spent up to now is     2455.3 secs

     total energy              =    -380.57760314 Ry
     estimated scf accuracy    <       0.00000090 Ry

     iteration #  3     ecut=   100.00 Ry     beta= 0.70
     CG style diagonalization
     ethr =  2.05E-09,  avg # of iterations =  4.1

     negative rho (up, down):  1.579E-02 0.000E+00

     total cpu time spent up to now is     2508.7 secs

     total energy              =    -380.57760338 Ry
     estimated scf accuracy    <       0.00000029 Ry

     iteration #  4     ecut=   100.00 Ry     beta= 0.70
     CG style diagonalization
     ethr =  6.67E-10,  avg # of iterations =  3.6

     negative rho (up, down):  1.579E-02 0.000E+00

     total cpu time spent up to now is     2554.7 secs

     total energy              =    -380.57760343 Ry
     estimated scf accuracy    <       0.00000001 Ry

     iteration #  5     ecut=   100.00 Ry     beta= 0.70
     CG style diagonalization
     ethr =  2.39E-11,  avg # of iterations =  5.0

     negative rho (up, down):  1.579E-02 0.000E+00

     total cpu time spent up to now is     2618.3 secs

     total energy              =    -380.57760344 Ry
     estimated scf accuracy    <          3.0E-09 Ry

     iteration #  6     ecut=   100.00 Ry     beta= 0.70
     CG style diagonalization
     ethr =  6.81E-12,  avg # of iterations =  4.6

     negative rho (up, down):  1.579E-02 0.000E+00

     total cpu time spent up to now is     2677.9 secs

     total energy              =    -380.57760344 Ry
     estimated scf accuracy    <          1.4E-09 Ry

     iteration #  7     ecut=   100.00 Ry     beta= 0.70
     CG style diagonalization
     ethr =  3.21E-12,  avg # of iterations =  4.2

     negative rho (up, down):  1.579E-02 0.000E+00

     total cpu time spent up to now is     2731.4 secs

     total energy              =    -380.57760344 Ry
     estimated scf accuracy    <          2.5E-10 Ry

     iteration #  8     ecut=   100.00 Ry     beta= 0.70
     CG style diagonalization
     ethr =  5.73E-13,  avg # of iterations =  5.3

     negative rho (up, down):  1.579E-02 0.000E+00

     total cpu time spent up to now is     2798.7 secs

     End of self-consistent calculation

          k = 0.0000 0.0000 0.0000 (  6865 PWs)   bands (ev):

   -45.1885 -21.8616 -21.7869 -21.7812  -7.1608  -6.0143  -5.7568  -4.4146
    -4.4127  -4.3756  -4.2647  -4.1328   4.8624   6.6955   6.7416   7.1226
     8.7613   8.7710   8.9760   9.3342   9.4190   9.4317

          k = 0.0000 0.0000 0.1926 (  6860 PWs)   bands (ev):

   -45.1882 -21.8790 -21.7862 -21.7805  -7.0149  -5.9705  -5.7023  -4.4276
    -4.4258  -4.3745  -4.2537  -4.1870   4.2127   6.7470   6.7868   7.4083
     8.5426   8.5598   8.9139   9.2053   9.5161   9.5222

          k = 0.0000 0.0000 0.3853 (  6872 PWs)   bands (ev):

   -45.1878 -21.9070 -21.7850 -21.7794  -6.7626  -5.8935  -5.6179  -4.4485
    -4.4468  -4.3727  -4.2819  -4.2360   3.5468   6.6969   6.8135   6.8394
     8.3030   8.3391   8.8175   9.6129   9.6139  10.3589

          k = 0.0000 0.1437 0.0000 (  6869 PWs)   bands (ev):

   -45.1882 -21.8610 -21.8022 -21.7806  -7.0514  -5.9876  -5.7339  -4.4314
    -4.4134  -4.3868  -4.2664  -4.1244   4.4683   6.7780   6.8102   7.1936
     8.6698   8.7694   8.9754   9.1466   9.1971   9.5711

          k = 0.0000 0.1437 0.1926 (  6885 PWs)   bands (ev):

   -45.1879 -21.8783 -21.8015 -21.7799  -6.9127  -5.9529  -5.6775  -4.4342
    -4.4267  -4.3860  -4.2590  -4.1584   3.9944   6.6746   6.8352   7.4655
     8.2798   8.5292   8.8930   9.1103   9.2630   9.7496

          k = 0.0000 0.1437 0.3853 (  6870 PWs)   bands (ev):

   -45.1875 -21.9061 -21.8003 -21.7787  -6.6795  -5.8922  -5.5832  -4.4481
    -4.4364  -4.3848  -4.2557  -4.2108   3.4287   6.3958   6.9080   7.0542
     8.0193   8.2958   8.9636   9.1474   9.3591  10.4568

          k = 0.0000 0.2874 0.0000 (  6855 PWs)   bands (ev):

   -45.1875 -21.8597 -21.8364 -21.7791  -6.7888  -5.9260  -5.6908  -4.4652
    -4.4121  -4.4103  -4.2633  -4.1243   3.8746   6.6304   6.9979   7.0618
     8.5010   8.5309   8.8547   8.9019   9.2916   9.9096

          k = 0.0000 0.2874 0.1926 (  6873 PWs)   bands (ev):

   -45.1873 -21.8767 -21.8357 -21.7784  -6.6788  -5.9024  -5.6259  -4.4461
    -4.4248  -4.4116  -4.2560  -4.1194   3.5900   6.4825   7.0719   7.1187
     8.0625   8.3445   8.5218   8.9413   9.2909  10.1521

          k = 0.0000 0.2874 0.3853 (  6869 PWs)   bands (ev):

   -45.1868 -21.9041 -21.8342 -21.7772  -6.5230  -5.8453  -5.4964  -4.4473
    -4.4115  -4.4083  -4.2770  -4.0907   3.1886   6.1342   6.9225   7.1571
     7.7064   8.0107   8.1931   8.9830   9.6866  10.2515

          k = 0.0000 0.4311 0.0000 (  6848 PWs)   bands (ev):

   -45.1870 -21.8645 -21.8578 -21.7780  -6.5562  -5.8605  -5.6839  -4.4881
    -4.4315  -4.4085  -4.2365  -4.1570   3.5475   6.1137   7.2682   7.3113
     7.9892   8.0400   8.7478   8.9389   9.3519  10.8174

          k = 0.0000 0.4311 0.1926 (  6842 PWs)   bands (ev):

   -45.1867 -21.8752 -21.8630 -21.7772  -6.4958  -5.8162  -5.6131  -4.4615
    -4.4320  -4.4231  -4.2139  -4.1262   3.3398   6.0956   7.1305   7.3845
     7.4844   7.9376   8.6572   8.9023   9.2799  10.5639

          k = 0.0000 0.4311 0.3853 (  6868 PWs)   bands (ev):

   -45.1863 -21.9024 -21.8614 -21.7760  -6.4469  -5.7279  -5.4339  -4.4466
    -4.4328  -4.4116  -4.2623  -4.0123   3.0304   5.9378   6.5545   7.3580
     7.4904   7.8779   7.8793   8.8655   9.8287  10.1344

          k = 0.1429 0.0000 0.0000 (  6873 PWs)   bands (ev):

   -45.1882 -21.8610 -21.7956 -21.7863  -7.0557  -5.9892  -5.7348  -4.4332
    -4.4115  -4.3862  -4.2665  -4.1257   4.4652   6.7846   6.8234   7.1978
     8.6586   8.7833   8.9717   9.1374   9.2012   9.5701

          k = 0.1429 0.0000 0.1926 (  6881 PWs)   bands (ev):

   -45.1879 -21.8784 -21.7948 -21.7856  -6.9174  -5.9536  -5.6782  -4.4360
    -4.4250  -4.3854  -4.2574  -4.1622   3.9902   6.6509   6.8742   7.4719
     8.2826   8.5463   8.8889   9.0969   9.2646   9.7454

          k = 0.1429 0.0000 0.3853 (  6889 PWs)   bands (ev):

   -45.1875 -21.9062 -21.7936 -21.7844  -6.6853  -5.8904  -5.5838  -4.4465
    -4.4375  -4.3842  -4.2516  -4.2195   3.4233   6.3809   6.9322   7.0596
     8.0065   8.3316   8.9694   9.1284   9.3666  10.4585

          k = 0.1429 0.1437 0.0000 (  6854 PWs)   bands (ev):

   -45.1879 -21.8604 -21.8016 -21.7949  -6.9475  -5.9618  -5.7238  -4.4371
    -4.4257  -4.3929  -4.2512  -4.1176   4.1828   6.7223   6.9393   7.2645
     8.3334   8.5039   9.0166   9.0623   9.3819   9.7246

          k = 0.1429 0.1437 0.1926 (  6878 PWs)   bands (ev):

   -45.1876 -21.8777 -21.8009 -21.7941  -6.8146  -5.9366  -5.6677  -4.4409
    -4.4272  -4.3915  -4.2421  -4.1381   3.8431   6.6200   6.7011   7.4889
     8.1664   8.2660   8.8360   9.1731   9.4189   9.7633

          k = 0.1429 0.1437 0.3853 (  6873 PWs)   bands (ev):

   -45.1872 -21.9054 -21.7996 -21.7929  -6.5967  -5.8945  -5.5673  -4.4607
    -4.4011  -4.3865  -4.2382  -4.1775   3.3720   6.4246   6.4460   7.1433
     8.0526   8.0736   8.7347   9.2428   9.4610  10.3233

          k = 0.1429 0.2874 0.0000 (  6854 PWs)   bands (ev):

   -45.1872 -21.8591 -21.8357 -21.7933  -6.6898  -5.9002  -5.7078  -4.4658
    -4.4203  -4.3905  -4.2322  -4.1173   3.6889   6.5861   7.0054   7.1636
     7.9340   8.3290   8.7601   9.1455   9.3823  10.1079

          k = 0.1429 0.2874 0.1926 (  6862 PWs)   bands (ev):

   -45.1870 -21.8760 -21.8350 -21.7926  -6.5797  -5.8909  -5.6491  -4.4490
    -4.4273  -4.3802  -4.2188  -4.1026   3.5296   6.4422   6.5901   7.1862
     7.7075   8.1911   8.8415   9.1267   9.3833  10.0679

          k = 0.1429 0.2874 0.3853 (  6876 PWs)   bands (ev):

   -45.1866 -21.9034 -21.8336 -21.7913  -6.4271  -5.8653  -5.5233  -4.4486
    -4.4077  -4.3456  -4.2262  -4.0701   3.2445   6.0793   6.4810   6.8110
     7.2570   7.9960   8.8614   9.1447   9.6947   9.9619

          k = 0.1429 0.4311 0.0000 (  6832 PWs)   bands (ev):

   -45.1867 -21.8637 -21.8571 -21.7921  -6.4631  -5.8371  -5.7212  -4.4768
    -4.4115  -4.3773  -4.2113  -4.1498   3.3895   6.1246   7.0847   7.4834
     7.5261   8.1144   8.5358   9.1278   9.4361  10.6327

          k = 0.1429 0.4311 0.1926 (  6847 PWs)   bands (ev):

   -45.1865 -21.8745 -21.8622 -21.7913  -6.3964  -5.8134  -5.6623  -4.4534
    -4.4156  -4.3646  -4.1849  -4.1077   3.3128   6.0991   6.5090   7.0043
     7.5563   8.3233   8.4938   9.1481   9.4016  10.2433

          k = 0.1429 0.4311 0.3853 (  6857 PWs)   bands (ev):

   -45.1861 -21.9017 -21.8607 -21.7901  -6.3473  -5.7629  -5.4966  -4.4429
    -4.3844  -4.3389  -4.2069  -3.9934   3.1469   5.9069   6.3100   6.5101
     6.8699   8.1346   8.7946   8.9950   9.4099  10.0791

          k = 0.2857 0.0000 0.0000 (  6859 PWs)   bands (ev):

   -45.1876 -21.8597 -21.8276 -21.7850  -6.8032  -5.9311  -5.6939  -4.4668
    -4.4104  -4.4085  -4.2653  -4.1269   3.8731   6.6460   7.0431   7.0644
     8.5135   8.5202   8.8517   8.8953   9.2922   9.9038

          k = 0.2857 0.0000 0.1926 (  6869 PWs)   bands (ev):

   -45.1873 -21.8768 -21.8267 -21.7842  -6.6941  -5.9046  -5.6285  -4.4481
    -4.4232  -4.4098  -4.2547  -4.1279   3.5817   6.4869   7.1102   7.1328
     8.0641   8.3611   8.5332   8.9512   9.2783  10.1368

          k = 0.2857 0.0000 0.3853 (  6874 PWs)   bands (ev):

   -45.1869 -21.9043 -21.8253 -21.7830  -6.5395  -5.8423  -5.4990  -4.4458
    -4.4106  -4.4097  -4.2749  -4.1051   3.1731   6.1278   6.9358   7.1776
     7.7311   8.0225   8.2267   9.0028   9.6564  10.2702

          k = 0.2857 0.1437 0.0000 (  6861 PWs)   bands (ev):

   -45.1873 -21.8591 -21.8268 -21.8002  -6.6996  -5.9038  -5.7100  -4.4664
    -4.4198  -4.3900  -4.2332  -4.1189   3.6889   6.6046   7.0232   7.1708
     7.9261   8.3278   8.7527   9.1633   9.3822  10.0998

          k = 0.2857 0.1437 0.1926 (  6865 PWs)   bands (ev):

   -45.1870 -21.8761 -21.8260 -21.7994  -6.5902  -5.8925  -5.6509  -4.4497
[...]
     ethr =  5.75E-09,  avg # of iterations =  6.2

     negative rho (up, down):  1.574E-02 0.000E+00

     total cpu time spent up to now is     2954.7 secs

     total energy              =    -380.57760768 Ry
     estimated scf accuracy    <       0.00000058 Ry

     iteration #  2     ecut=   100.00 Ry     beta= 0.70
     CG style diagonalization
     ethr =  1.31E-09,  avg # of iterations =  4.2

     negative rho (up, down):  1.575E-02 0.000E+00

     total cpu time spent up to now is     3007.9 secs

     total energy              =    -380.57760788 Ry
     estimated scf accuracy    <       0.00000022 Ry

     iteration #  3     ecut=   100.00 Ry     beta= 0.70
     CG style diagonalization
     ethr =  5.10E-10,  avg # of iterations =  4.2

     negative rho (up, down):  1.575E-02 0.000E+00

     total cpu time spent up to now is     3062.5 secs

     total energy              =    -380.57760795 Ry
     estimated scf accuracy    <       0.00000017 Ry

     iteration #  4     ecut=   100.00 Ry     beta= 0.70
     CG style diagonalization
     ethr =  3.94E-10,  avg # of iterations =  3.7

     negative rho (up, down):  1.575E-02 0.000E+00

     total cpu time spent up to now is     3109.7 secs

     total energy              =    -380.57760799 Ry
     estimated scf accuracy    <          2.4E-09 Ry

     iteration #  5     ecut=   100.00 Ry     beta= 0.70
     CG style diagonalization
     ethr =  5.41E-12,  avg # of iterations =  6.2

     negative rho (up, down):  1.575E-02 0.000E+00

     total cpu time spent up to now is     3189.1 secs

     total energy              =    -380.57760799 Ry
     estimated scf accuracy    <          1.7E-09 Ry

     iteration #  6     ecut=   100.00 Ry     beta= 0.70
     CG style diagonalization
     ethr =  3.78E-12,  avg # of iterations =  4.3

     negative rho (up, down):  1.575E-02 0.000E+00

     total cpu time spent up to now is     3245.2 secs

     total energy              =    -380.57760799 Ry
     estimated scf accuracy    <          4.3E-10 Ry

     iteration #  7     ecut=   100.00 Ry     beta= 0.70
     CG style diagonalization
     ethr =  9.88E-13,  avg # of iterations =  4.3

     negative rho (up, down):  1.575E-02 0.000E+00

     total cpu time spent up to now is     3301.5 secs

     End of self-consistent calculation

          k = 0.0000 0.0000 0.0000 (  6865 PWs)   bands (ev):

   -45.1887 -21.8613 -21.7871 -21.7816  -7.1592  -6.0127  -5.7571  -4.4158
    -4.4139  -4.3771  -4.2654  -4.1353   4.8618   6.6976   6.7435   7.1199
     8.7647   8.7739   8.9777   9.3366   9.4208   9.4343

          k = 0.0000 0.0000 0.1926 (  6860 PWs)   bands (ev):

   -45.1884 -21.8787 -21.7864 -21.7808  -7.0132  -5.9688  -5.7026  -4.4288
    -4.4270  -4.3760  -4.2545  -4.1897   4.2119   6.7500   6.7893   7.4067
     8.5445   8.5613   8.9156   9.2062   9.5180   9.5243

          k = 0.0000 0.0000 0.3853 (  6872 PWs)   bands (ev):

   -45.1880 -21.9067 -21.7853 -21.7797  -6.7607  -5.8915  -5.6183  -4.4497
    -4.4480  -4.3742  -4.2848  -4.2370   3.5463   6.6959   6.8184   6.8432
     8.3020   8.3386   8.8192   9.6150   9.6156  10.3588

          k = 0.0000 0.1437 0.0000 (  6869 PWs)   bands (ev):

   -45.1884 -21.8606 -21.8025 -21.7809  -7.0497  -5.9859  -5.7341  -4.4326
    -4.4146  -4.3883  -4.2674  -4.1270   4.4680   6.7800   6.8108   7.1932
     8.6707   8.7723   8.9771   9.1496   9.1995   9.5725

          k = 0.0000 0.1437 0.1926 (  6885 PWs)   bands (ev):

   -45.1881 -21.8780 -21.8017 -21.7802  -6.9109  -5.9512  -5.6777  -4.4355
    -4.4279  -4.3875  -4.2600  -4.1610   3.9939   6.6763   6.8382   7.4651
     8.2804   8.5312   8.8945   9.1121   9.2649   9.7502

          k = 0.0000 0.1437 0.3853 (  6870 PWs)   bands (ev):

   -45.1877 -21.9058 -21.8005 -21.7790  -6.6775  -5.8904  -5.5834  -4.4493
    -4.4377  -4.3863  -4.2570  -4.2133   3.4282   6.3976   6.9128   7.0547
     8.0189   8.2952   8.9658   9.1493   9.3603  10.4559

          k = 0.0000 0.2874 0.0000 (  6855 PWs)   bands (ev):

   -45.1877 -21.8594 -21.8367 -21.7795  -6.7871  -5.9242  -5.6906  -4.4664
    -4.4136  -4.4115  -4.2649  -4.1268   3.8747   6.6313   6.9997   7.0613
     8.5021   8.5316   8.8560   8.9069   9.2942   9.9091

          k = 0.0000 0.2874 0.1926 (  6873 PWs)   bands (ev):

   -45.1875 -21.8763 -21.8359 -21.7787  -6.6769  -5.9007  -5.6257  -4.4474
    -4.4260  -4.4131  -4.2573  -4.1221   3.5898   6.4837   7.0745   7.1190
     8.0630   8.3469   8.5229   8.9432   9.2923  10.1519

          k = 0.0000 0.2874 0.3853 (  6869 PWs)   bands (ev):

   -45.1871 -21.9038 -21.8345 -21.7775  -6.5210  -5.8435  -5.4963  -4.4485
    -4.4130  -4.4097  -4.2785  -4.0933   3.1882   6.1364   6.9217   7.1617
     7.7066   8.0126   8.1940   8.9831   9.6884  10.2497

          k = 0.0000 0.4311 0.0000 (  6848 PWs)   bands (ev):

   -45.1872 -21.8647 -21.8574 -21.7783  -6.5543  -5.8586  -5.6831  -4.4895
    -4.4330  -4.4097  -4.2391  -4.1591   3.5477   6.1137   7.2695   7.3113
     7.9901   8.0419   8.7493   8.9437   9.3547  10.8167

          k = 0.0000 0.4311 0.1926 (  6842 PWs)   bands (ev):

   -45.1870 -21.8748 -21.8632 -21.7775  -6.4939  -5.8143  -5.6126  -4.4630
    -4.4335  -4.4243  -4.2156  -4.1290   3.3397   6.0958   7.1314   7.3863
     7.4855   7.9407   8.6585   8.9044   9.2809  10.5631

          k = 0.0000 0.4311 0.3853 (  6868 PWs)   bands (ev):

   -45.1866 -21.9020 -21.8617 -21.7763  -6.4450  -5.7257  -5.4335  -4.4478
    -4.4343  -4.4131  -4.2641  -4.0148   3.0299   5.9391   6.5544   7.3603
     7.4946   7.8779   7.8816   8.8647   9.8272  10.1350

          k = 0.1429 0.0000 0.0000 (  6873 PWs)   bands (ev):

   -45.1884 -21.8607 -21.7959 -21.7865  -7.0540  -5.9874  -5.7350  -4.4345
    -4.4127  -4.3877  -4.2674  -4.1281   4.4646   6.7854   6.8253   7.1974
     8.6599   8.7859   8.9739   9.1393   9.2029   9.5710

          k = 0.1429 0.0000 0.1926 (  6881 PWs)   bands (ev):

   -45.1882 -21.8780 -21.7952 -21.7858  -6.9156  -5.9517  -5.6784  -4.4373
    -4.4262  -4.3870  -4.2584  -4.1647   3.9894   6.6530   6.8766   7.4718
     8.2836   8.5478   8.8895   9.0991   9.2663   9.7456

          k = 0.1429 0.0000 0.3853 (  6889 PWs)   bands (ev):

   -45.1878 -21.9058 -21.7939 -21.7847  -6.6834  -5.8882  -5.5841  -4.4477
    -4.4390  -4.3857  -4.2529  -4.2219   3.4225   6.3830   6.9359   7.0607
     8.0058   8.3312   8.9707   9.1304   9.3683  10.4573

          k = 0.1429 0.1437 0.0000 (  6854 PWs)   bands (ev):

   -45.1881 -21.8601 -21.8019 -21.7952  -6.9459  -5.9600  -5.7239  -4.4384
    -4.4270  -4.3943  -4.2523  -4.1201   4.1826   6.7240   6.9391   7.2655
     8.3354   8.5053   9.0181   9.0639   9.3827   9.7259

          k = 0.1429 0.1437 0.1926 (  6878 PWs)   bands (ev):

   -45.1879 -21.8773 -21.8011 -21.7945  -6.8128  -5.9347  -5.6678  -4.4422
    -4.4285  -4.3929  -4.2432  -4.1407   3.8426   6.6224   6.7023   7.4898
     8.1666   8.2673   8.8376   9.1751   9.4202   9.7627

          k = 0.1429 0.1437 0.3853 (  6873 PWs)   bands (ev):

   -45.1875 -21.9050 -21.7999 -21.7932  -6.5947  -5.8925  -5.5675  -4.4620
    -4.4025  -4.3879  -4.2393  -4.1801   3.3714   6.4266   6.4487   7.1439
     8.0515   8.0761   8.7348   9.2447   9.4628  10.3217

          k = 0.1429 0.2874 0.0000 (  6854 PWs)   bands (ev):

   -45.1875 -21.8588 -21.8359 -21.7937  -6.6880  -5.8982  -5.7075  -4.4671
    -4.4216  -4.3920  -4.2338  -4.1199   3.6892   6.5870   7.0071   7.1631
     7.9360   8.3303   8.7607   9.1474   9.3835  10.1082

          k = 0.1429 0.2874 0.1926 (  6862 PWs)   bands (ev):

   -45.1872 -21.8757 -21.8352 -21.7929  -6.5778  -5.8890  -5.6488  -4.4503
    -4.4286  -4.3816  -4.2202  -4.1052   3.5296   6.4435   6.5913   7.1876
     7.7089   8.1904   8.8426   9.1289   9.3848  10.0671

          k = 0.1429 0.2874 0.3853 (  6876 PWs)   bands (ev):

   -45.1868 -21.9031 -21.8338 -21.7917  -6.4250  -5.8635  -5.5232  -4.4499
    -4.4092  -4.3469  -4.2276  -4.0726   3.2442   6.0813   6.4830   6.8108
     7.2582   7.9961   8.8621   9.1466   9.6957   9.9604

          k = 0.1429 0.4311 0.0000 (  6832 PWs)   bands (ev):

   -45.1870 -21.8639 -21.8568 -21.7924  -6.4612  -5.8352  -5.7204  -4.4782
    -4.4128  -4.3788  -4.2138  -4.1519   3.3902   6.1245   7.0861   7.4830
     7.5286   8.1139   8.5386   9.1297   9.4379  10.6319

          k = 0.1429 0.4311 0.1926 (  6847 PWs)   bands (ev):

   -45.1867 -21.8742 -21.8625 -21.7917  -6.3944  -5.8114  -5.6617  -4.4548
    -4.4170  -4.3659  -4.1866  -4.1104   3.3131   6.0992   6.5099   7.0063
     7.5578   8.3229   8.4942   9.1509   9.4029  10.2423

          k = 0.1429 0.4311 0.3853 (  6857 PWs)   bands (ev):

   -45.1863 -21.9013 -21.8610 -21.7904  -6.3453  -5.7608  -5.4965  -4.4442
    -4.3858  -4.3401  -4.2087  -3.9959   3.1468   5.9083   6.3113   6.5109
     6.8711   8.1341   8.7961   8.9966   9.4076  10.0804

          k = 0.2857 0.0000 0.0000 (  6859 PWs)   bands (ev):

   -45.1878 -21.8594 -21.8279 -21.7852  -6.8017  -5.9289  -5.6936  -4.4682
    -4.4118  -4.4098  -4.2667  -4.1293   3.8724   6.6471   7.0448   7.0632
     8.5123   8.5211   8.8542   8.8989   9.2941   9.9031

          k = 0.2857 0.0000 0.1926 (  6869 PWs)   bands (ev):

   -45.1876 -21.8765 -21.8271 -21.7845  -6.6925  -5.9023  -5.6283  -4.4496
    -4.4244  -4.4113  -4.2560  -4.1303   3.5806   6.4883   7.1125   7.1328
     8.0634   8.3626   8.5337   8.9531   9.2801  10.1361

          k = 0.2857 0.0000 0.3853 (  6874 PWs)   bands (ev):

   -45.1872 -21.9040 -21.8256 -21.7833  -6.5379  -5.8395  -5.4989  -4.4470
    -4.4124  -4.4112  -4.2763  -4.1072   3.1718   6.1303   6.9343   7.1810
     7.7317   8.0231   8.2272   9.0038   9.6587  10.2679

          k = 0.2857 0.1437 0.0000 (  6861 PWs)   bands (ev):

   -45.1875 -21.8587 -21.8272 -21.8004  -6.6980  -5.9015  -5.7096  -4.4678
    -4.4211  -4.3915  -4.2347  -4.1213   3.6888   6.6057   7.0246   7.1700
     7.9271   8.3292   8.7522   9.1650   9.3836  10.0999

          k = 0.2857 0.1437 0.1926 (  6865 PWs)   bands (ev):

   -45.1873 -21.8758 -21.8263 -21.7997  -6.5885  -5.8902  -5.6506  -4.4512
    -4.4282  -4.3813  -4.2186  -4.1110   3.5241   6.4498   6.6096   7.1923
     7.7023   8.2102   8.8622   9.1339   9.3796  10.0537

          k = 0.2857 0.1437 0.3853 (  6869 PWs)   bands (ev):

   -45.1869 -21.9032 -21.8249 -21.7984  -6.4366  -5.8612  -5.5249  -4.4505
    -4.4089  -4.3468  -4.2238  -4.0842   3.2324   6.0760   6.4991   6.8141
     7.2727   8.0117   8.8842   9.1699   9.6700   9.9734

          k = 0.2857 0.2874 0.0000 (  6847 PWs)   bands (ev):

   -45.1869 -21.8574 -21.8343 -21.8254  -6.4598  -5.8404  -5.7431  -4.4595
    -4.4172  -4.3490  -4.1764  -4.1193   3.3109   6.5821   6.7006   7.3754
     7.5444   7.8488   8.5736   9.1507   9.6590  10.1769

          k = 0.2857 0.2874 0.1926 (  6861 PWs)   bands (ev):

   -45.1866 -21.8742 -21.8336 -21.8246  -6.3525  -5.8597  -5.6999  -4.4326
    -4.4180  -4.3213  -4.1490  -4.0804   3.3527   6.2779   6.3094   6.7442
     7.4160   7.8059   9.0867   9.2763   9.6898   9.7974

          k = 0.2857 0.2874 0.3853 (  6867 PWs)   bands (ev):

   -45.1862 -21.9014 -21.8323 -21.8233  -6.2219  -5.8903  -5.5738  -4.4146
    -4.3898  -4.2615  -4.1119  -4.0227   3.3518   5.8008   5.9341   6.4059
     7.0597   7.2703   8.9611   9.6142   9.6381   9.8774

          k = 0.2857 0.4311 0.0000 (  6866 PWs)   bands (ev):

   -45.1864 -21.8621 -21.8554 -21.8240  -6.2672  -5.7881  -5.7665  -4.4526
    -4.3961  -4.2870  -4.1547  -4.1352   3.0436   6.1380   6.7265   7.2253
     7.6632   7.9184   8.1244   9.1535   9.7579  10.1215

          k = 0.2857 0.4311 0.1926 (  6841 PWs)   bands (ev):

   -45.1861 -21.8727 -21.8608 -21.8232  -6.1713  -5.8094  -5.7500  -4.4230
    -4.3896  -4.2407  -4.1198  -4.0701   3.1895   6.0612   6.1866   6.4075
     7.1601   7.9129   8.8694   9.3290   9.5179   9.8570

          k = 0.2857 0.4311 0.3853 (  6862 PWs)   bands (ev):

   -45.1857 -21.8997 -21.8594 -21.8220  -6.1160  -5.8341  -5.6132  -4.3934
    -4.3577  -4.1778  -4.0642  -3.9521   3.4235   5.5428   5.7001   6.0881
     6.6793   7.2519   8.1890   9.7254   9.7845  10.0904

          k = 0.4286 0.0000 0.0000 (  6846 PWs)   bands (ev):

   -45.1873 -21.8583 -21.8534 -21.7841  -6.5781  -5.8667  -5.6865  -4.4915
    -4.4303  -4.4081  -4.2452  -4.1597   3.5470   6.1518   7.3144   7.3208
     7.9714   8.0534   8.7540   8.9395   9.3543  10.7955

          k = 0.4286 0.0000 0.1926 (  6858 PWs)   bands (ev):

   -45.1871 -21.8750 -21.8526 -21.7834  -6.5172  -5.8199  -5.6150  -4.4653
    -4.4308  -4.4228  -4.2160  -4.1401   3.3281   6.1307   7.1357   7.4320
     7.4899   7.9495   8.6665   8.9152   9.2785  10.5529

          k = 0.4286 0.0000 0.3853 (  6875 PWs)   bands (ev):

   -45.1867 -21.9023 -21.8510 -21.7821  -6.4652  -5.7281  -5.4365  -4.4464
    -4.4315  -4.4158  -4.2650  -4.0329   3.0050   5.9510   6.5729   7.3849
     7.5064   7.8948   7.9177   8.8911   9.8481  10.1302

          k = 0.4286 0.1437 0.0000 (  6854 PWs)   bands (ev):

   -45.1871 -21.8576 -21.8526 -21.7993  -6.4798  -5.8421  -5.7233  -4.4792
    -4.4124  -4.3778  -4.2183  -4.1518   3.3910   6.1643   7.1030   7.4973
     7.5166   8.1080   8.5380   9.1512   9.4427  10.6093

          k = 0.4286 0.1437 0.1926 (  6865 PWs)   bands (ev):

   -45.1868 -21.8744 -21.8518 -21.7985  -6.4126  -5.8166  -5.6636  -4.4559
    -4.4170  -4.3649  -4.1850  -4.1202   3.3050   6.1352   6.5287   6.9928
     7.5529   8.3520   8.5213   9.1576   9.4043  10.2333

          k = 0.4286 0.1437 0.3853 (  6874 PWs)   bands (ev):

   -45.1864 -21.9016 -21.8502 -21.7973  -6.3601  -5.7646  -5.4984  -4.4449
    -4.3864  -4.3394  -4.2054  -4.0131   3.1253   5.9163   6.3323   6.5311
     6.8709   8.1473   8.8478   9.0174   9.4274  10.0659

          k = 0.4286 0.2874 0.0000 (  6878 PWs)   bands (ev):

   -45.1864 -21.8562 -21.8507 -21.8330  -6.2741  -5.7911  -5.7695  -4.4526
    -4.3966  -4.2896  -4.1503  -4.1389   3.0450   6.1801   6.6949   7.2288
     7.6745   7.9179   8.1194   9.1575   9.8029  10.0813

          k = 0.4286 0.2874 0.1926 (  6850 PWs)   bands (ev):

   -45.1862 -21.8728 -21.8500 -21.8323  -6.1779  -5.8129  -5.7511  -4.4227
    -4.3907  -4.2427  -4.1136  -4.0779   3.1875   6.0935   6.1960   6.3855
     7.1534   7.9147   8.9004   9.3292   9.5143   9.8617

          k = 0.4286 0.2874 0.3853 (  6860 PWs)   bands (ev):

   -45.1858 -21.8999 -21.8486 -21.8311  -6.1188  -5.8403  -5.6137  -4.3927
    -4.3597  -4.1787  -4.0544  -3.9667   3.4124   5.5545   5.6886   6.1058
     6.6943   7.2422   8.2113   9.7447   9.8048  10.0767

          k = 0.4286 0.4311 0.0000 (  6857 PWs)   bands (ev):

   -45.1859 -21.8606 -21.8542 -21.8491  -6.1572  -5.7516  -5.7441  -4.4380
    -4.3511  -4.2194  -4.1714  -4.0749   2.7771   6.0096   6.4125   7.4028
     7.5014   7.8721   8.0434   8.8871   9.4808  10.2300

          k = 0.4286 0.4311 0.1926 (  6865 PWs)   bands (ev):

   -45.1856 -21.8713 -21.8594 -21.8485  -6.0137  -5.8028  -5.7920  -4.4057
    -4.3449  -4.1358  -4.0791  -4.0399   3.0322   5.9631   6.1753   6.2295
     6.6041   7.8750   8.5211   9.2518   9.2718  10.2205

          k = 0.4286 0.4311 0.3853 (  6859 PWs)   bands (ev):

   -45.1852 -21.8984 -21.8581 -21.8472  -5.9284  -5.8839  -5.6956  -4.3536
    -4.3388  -4.0377  -3.9459  -3.9294   3.6127   5.3474   5.4537   5.8805
     6.5172   6.7792   7.1509  10.0711  10.0942  10.2077

     highest occupied level (ev):    10.8167

!    total energy              =    -380.57760799 Ry
     estimated scf accuracy    <          1.2E-11 Ry

     The total energy is the sum of the following terms:
     one-electron contribution =     -79.52153187 Ry
     hartree contribution      =      69.83289014 Ry
     xc contribution           =    -102.67067202 Ry
     ewald contribution        =    -268.21829424 Ry

     convergence has been achieved in   7 iterations

     negative rho (up, down):  1.575E-02 0.000E+00

     Forces acting on atoms (cartesian axes, Ry/au):

     atom    1 type  1   force =     0.00000000    0.00000000    0.00095502
     atom    2 type  2   force =     0.00000000    0.00000000   -0.00056642
     atom    3 type  3   force =     0.00000000    0.00000000    0.00058792
     atom    4 type  3   force =     0.00000000    0.00000000   -0.00018771
     atom    5 type  3   force =     0.00000000    0.00000000   -0.00078880

     Total force =     0.001495     Total SCF correction =     0.000006


     Computing stress (Cartesian axis) and pressure


     negative rho (up, down):  1.575E-02 0.000E+00
          total   stress  (Ry/bohr**3)                   (kbar)     P=       -2.21
  -0.00006447   0.00000000   0.00000000           -9.48        0.00        0.00
   0.00000000   0.00000831   0.00000000            0.00        1.22        0.00
   0.00000000   0.00000000   0.00001107            0.00        0.00        1.63

     Energy error            =      4.6E-06 Ry
     Gradient error          =      9.6E-04 Ry/Bohr

     bfgs converged in   5 scf cycles and   4 bfgs steps
     (criteria: energy <  1.0E-04 Ry, force <  1.0E-03 Ry/Bohr)

     End of BFGS Geometry Optimization

     Final energy             =    -380.5776079934 Ry

     File ./PTO2.bfgs deleted, as requested
Begin final coordinates

ATOMIC_POSITIONS (crystal)
Pb            0.0000000000        0.0000000000        1.0057003925
Ti            0.5000000000        0.5000000000        0.5414815100
O             0.5000000000        0.5000000000        0.0981154619
O             0.5000000000        0.0000000000        0.6113907096
O             0.0000000000        0.5000000000        0.6105962139
End final coordinates



     Writing all to output data dir ./PTO2.save/
 
     init_run     :     17.18s CPU     17.55s WALL (       1 calls)
     electrons    :   2907.81s CPU   3172.19s WALL (       5 calls)
     update_pot   :      3.48s CPU      3.50s WALL (       4 calls)
     forces       :     17.83s CPU     18.26s WALL (       5 calls)
     stress       :    109.53s CPU    110.66s WALL (       5 calls)

     Called by init_run:
     wfcinit      :     12.11s CPU     12.38s WALL (       1 calls)
     potinit      :      0.18s CPU      0.18s WALL (       1 calls)
     hinit0       :      3.98s CPU      3.99s WALL (       1 calls)

     Called by electrons:
     c_bands      :   2638.38s CPU   2892.46s WALL (      50 calls)
     sum_band     :    232.74s CPU    239.42s WALL (      50 calls)
     v_of_rho     :      1.44s CPU      1.46s WALL (      52 calls)
     newd         :     38.22s CPU     41.91s WALL (      52 calls)
     mix_rho      :      0.67s CPU      0.70s WALL (      50 calls)

     Called by c_bands:
     init_us_2    :     66.42s CPU     66.80s WALL (    5328 calls)
     init_us_2:cp :     66.24s CPU     66.69s WALL (    5328 calls)
     ccgdiagg     :   2326.53s CPU   2400.11s WALL (    2400 calls)
     wfcrot       :    287.92s CPU    292.88s WALL (    2064 calls)

     Called by *cgdiagg:
     h_psi        :   1757.92s CPU   1802.79s WALL (  200003 calls)
     s_psi        :    443.33s CPU    465.51s WALL (  397942 calls)

     Called by h_psi:
     h_psi:calbec :    229.02s CPU    236.79s WALL (  200003 calls)
     vloc_psi     :   1282.79s CPU   1311.52s WALL (  200003 calls)
     add_vuspsi   :    227.54s CPU    238.33s WALL (  200003 calls)
     hs_1psi      :   1731.40s CPU   1778.68s WALL (  197939 calls)
     s_1psi       :    446.58s CPU    462.28s WALL (  197939 calls)

     General routines
     calbec       :    448.80s CPU    472.48s WALL (  401542 calls)
     fft          :      0.57s CPU      0.57s WALL (     255 calls)
     ffts         :      0.11s CPU      0.11s WALL (      50 calls)
     fftw         :   1177.42s CPU   1200.00s WALL (  540358 calls)
 
     Parallel routines
 
     PWSCF        :  51m 0.51s CPU  55m28.99s WALL

 
   This run was terminated on:  11:36:18  11Apr2022            

=------------------------------------------------------------------------------=
   JOB DONE.
=------------------------------------------------------------------------------=
