
     Program PWSCF v.7.0 starts on 11Apr2022 at  8:40:30 

     This program is part of the open-source Quantum ESPRESSO suite
     for quantum simulation of materials; please cite
         "P. Giannozzi et al., J. Phys.:Condens. Matter 21 395502 (2009);
         "P. Giannozzi et al., J. Phys.:Condens. Matter 29 465901 (2017);
         "P. Giannozzi et al., J. Chem. Phys. 152 154105 (2020);
          URL http://www.quantum-espresso.org", 
     in publications or presentations arising from this work. More details at
     http://www.quantum-espresso.org/quote

     Parallel version (MPI), running on     1 processors

     MPI processes distributed on     1 nodes
     89965 MiB available memory on the printing compute node when the environment starts
 
     Waiting for input...
     Reading input from standard input
Warning: card &CELL ignored
Warning: card  CELL_DYNAMICS = 'BFGS', ignored
Warning: card  PRESS=0.1D0, ignored
Warning: card / ignored

     Current dimensions of program PWSCF are:
     Max number of different atomic species (ntypx) = 10
     Max number of k-points (npk) =  40000
     Max angular momentum in pseudopotentials (lmaxx) =  4
     Message from routine setup:
     using ibrav=0 with symmetry is DISCOURAGED, use correct ibrav instead

     Subspace diagonalization in iterative solution of the eigenvalue problem:
     a serial algorithm will be used

 
     G-vector sticks info
     --------------------
     sticks:   dense  smooth     PW     G-vecs:    dense   smooth      PW
     Sum        1689    1689    481                54933    54933    8221
 
     Using Slab Decomposition
 


     bravais-lattice index     =            0
     lattice parameter (alat)  =       7.2573  a.u.
     unit-cell volume          =     406.4656 (a.u.)^3
     number of atoms/cell      =            5
     number of atomic types    =            3
     number of electrons       =        44.00
     number of Kohn-Sham states=           22
     kinetic-energy cutoff     =     100.0000  Ry
     charge density cutoff     =     400.0000  Ry
     scf convergence threshold =      1.0E-08
     mixing beta               =       0.7000
     number of iterations used =            8  plain     mixing
     energy convergence thresh.=      1.0E-04
     force convergence thresh. =      1.0E-03
     Exchange-correlation= SLA  PZ   NOGX NOGC
                           (   1   1   0   0   0   0   0)
     nstep                     =           50


     celldm(1)=   7.257304  celldm(2)=   0.000000  celldm(3)=   0.000000
     celldm(4)=   0.000000  celldm(5)=   0.000000  celldm(6)=   0.000000

     crystal axes: (cart. coord. in units of alat)
               a(1) = (   1.000000   0.000000   0.000000 )  
               a(2) = (   0.000000   1.008020   0.000000 )  
               a(3) = (   0.000000   0.000000   1.054942 )  

     reciprocal axes: (cart. coord. in units 2 pi/alat)
               b(1) = (  1.000000  0.000000  0.000000 )  
               b(2) = (  0.000000  0.992044  0.000000 )  
               b(3) = (  0.000000  0.000000  0.947919 )  


     PseudoPot. # 1 for Pb read from file:
     ./Pb_LDA.UPF
     MD5 check sum: 062a37469794d955244864f8fe2e5624
     Pseudo is Ultrasoft + core correction, Zval = 14.0
     Generated by new atomic code, or converted to UPF format
     Using radial grid of  899 points,  6 beta functions with: 
                l(1) =   0
                l(2) =   0
                l(3) =   1
                l(4) =   1
                l(5) =   2
                l(6) =   2
     Q(r) pseudized with  6 coefficients,  rinner =    1.000   1.000   1.000
                                                       1.000   1.000

     PseudoPot. # 2 for Ti read from file:
     ./Ti_LDA.UPF
     MD5 check sum: 0d9f225c038fe889ca2a701dcc8d72cb
     Pseudo is Ultrasoft + core correction, Zval = 12.0
     Generated by new atomic code, or converted to UPF format
     Using radial grid of  851 points,  6 beta functions with: 
                l(1) =   0
                l(2) =   0
                l(3) =   1
                l(4) =   1
                l(5) =   2
                l(6) =   2
     Q(r) pseudized with  6 coefficients,  rinner =    1.000   1.000   1.000
                                                       1.000   1.000

     PseudoPot. # 3 for O  read from file:
     ./O_LDA.UPF
     MD5 check sum: 194b818514d2a7dbb603bb78519a4f40
     Pseudo is Ultrasoft + core correction, Zval =  6.0
     Generated by new atomic code, or converted to UPF format
     Using radial grid of  737 points,  5 beta functions with: 
                l(1) =   0
                l(2) =   0
                l(3) =   1
                l(4) =   1
                l(5) =   2
     Q(r) pseudized with  8 coefficients,  rinner =    0.900   0.900   0.900
                                                       0.900   0.900

     atomic species   valence    mass     pseudopotential
        Pb            14.00   207.20000     Pb( 1.00)
        Ti            12.00    47.88000     Ti( 1.00)
        O              6.00    16.00000     O ( 1.00)

      4 Sym. Ops. (no inversion) found



   Cartesian axes

     site n.     atom                  positions (alat units)
         1           Pb  tau(   1) = (   0.0000000   0.0000000   1.0604178  )
         2           Ti  tau(   2) = (   0.5000000   0.5040100   0.5691544  )
         3           O   tau(   3) = (   0.5000000   0.5040100   0.1049443  )
         4           O   tau(   4) = (   0.5000000   0.0000000   0.6451514  )
         5           O   tau(   5) = (   0.0000000   0.5040100   0.6451514  )

     number of k points=    48
                       cart. coord. in units 2pi/alat
        k(    1) = (   0.0000000   0.0000000   0.0000000), wk =   0.0081633
        k(    2) = (   0.0000000   0.0000000   0.1895838), wk =   0.0163265
        k(    3) = (   0.0000000   0.0000000   0.3791677), wk =   0.0163265
        k(    4) = (   0.0000000   0.1417205   0.0000000), wk =   0.0163265
        k(    5) = (   0.0000000   0.1417205   0.1895838), wk =   0.0326531
        k(    6) = (   0.0000000   0.1417205   0.3791677), wk =   0.0326531
        k(    7) = (   0.0000000   0.2834411   0.0000000), wk =   0.0163265
        k(    8) = (   0.0000000   0.2834411   0.1895838), wk =   0.0326531
        k(    9) = (   0.0000000   0.2834411   0.3791677), wk =   0.0326531
        k(   10) = (   0.0000000   0.4251616   0.0000000), wk =   0.0163265
        k(   11) = (   0.0000000   0.4251616   0.1895838), wk =   0.0326531
        k(   12) = (   0.0000000   0.4251616   0.3791677), wk =   0.0326531
        k(   13) = (   0.1428571   0.0000000   0.0000000), wk =   0.0163265
        k(   14) = (   0.1428571   0.0000000   0.1895838), wk =   0.0326531
        k(   15) = (   0.1428571   0.0000000   0.3791677), wk =   0.0326531
        k(   16) = (   0.1428571   0.1417205   0.0000000), wk =   0.0326531
        k(   17) = (   0.1428571   0.1417205   0.1895838), wk =   0.0653061
        k(   18) = (   0.1428571   0.1417205   0.3791677), wk =   0.0653061
        k(   19) = (   0.1428571   0.2834411   0.0000000), wk =   0.0326531
        k(   20) = (   0.1428571   0.2834411   0.1895838), wk =   0.0653061
        k(   21) = (   0.1428571   0.2834411   0.3791677), wk =   0.0653061
        k(   22) = (   0.1428571   0.4251616   0.0000000), wk =   0.0326531
        k(   23) = (   0.1428571   0.4251616   0.1895838), wk =   0.0653061
        k(   24) = (   0.1428571   0.4251616   0.3791677), wk =   0.0653061
        k(   25) = (   0.2857143   0.0000000   0.0000000), wk =   0.0163265
        k(   26) = (   0.2857143   0.0000000   0.1895838), wk =   0.0326531
        k(   27) = (   0.2857143   0.0000000   0.3791677), wk =   0.0326531
        k(   28) = (   0.2857143   0.1417205   0.0000000), wk =   0.0326531
        k(   29) = (   0.2857143   0.1417205   0.1895838), wk =   0.0653061
        k(   30) = (   0.2857143   0.1417205   0.3791677), wk =   0.0653061
        k(   31) = (   0.2857143   0.2834411   0.0000000), wk =   0.0326531
        k(   32) = (   0.2857143   0.2834411   0.1895838), wk =   0.0653061
        k(   33) = (   0.2857143   0.2834411   0.3791677), wk =   0.0653061
        k(   34) = (   0.2857143   0.4251616   0.0000000), wk =   0.0326531
        k(   35) = (   0.2857143   0.4251616   0.1895838), wk =   0.0653061
        k(   36) = (   0.2857143   0.4251616   0.3791677), wk =   0.0653061
        k(   37) = (   0.4285714   0.0000000   0.0000000), wk =   0.0163265
        k(   38) = (   0.4285714   0.0000000   0.1895838), wk =   0.0326531
        k(   39) = (   0.4285714   0.0000000   0.3791677), wk =   0.0326531
        k(   40) = (   0.4285714   0.1417205   0.0000000), wk =   0.0326531
        k(   41) = (   0.4285714   0.1417205   0.1895838), wk =   0.0653061
        k(   42) = (   0.4285714   0.1417205   0.3791677), wk =   0.0653061
        k(   43) = (   0.4285714   0.2834411   0.0000000), wk =   0.0326531
        k(   44) = (   0.4285714   0.2834411   0.1895838), wk =   0.0653061
        k(   45) = (   0.4285714   0.2834411   0.3791677), wk =   0.0653061
        k(   46) = (   0.4285714   0.4251616   0.0000000), wk =   0.0326531
        k(   47) = (   0.4285714   0.4251616   0.1895838), wk =   0.0653061
        k(   48) = (   0.4285714   0.4251616   0.3791677), wk =   0.0653061

     Dense  grid:    54933 G-vectors     FFT dimensions: (  48,  48,  50)

     Estimated max dynamical RAM per process >     328.16 MB

     Check: negative core charge=   -0.000003

     Initial potential from superposition of free atoms

     starting charge      42.9982, renormalised to      44.0000

     negative rho (up, down):  1.705E-02 0.000E+00
     Starting wfcs are   31 randomized atomic wfcs

     total cpu time spent up to now is       18.4 secs

     Self-consistent Calculation

     iteration #  1     ecut=   100.00 Ry     beta= 0.70
     CG style diagonalization
     ethr =  1.00E-02,  avg # of iterations =  2.1

     negative rho (up, down):  1.433E-02 0.000E+00

     total cpu time spent up to now is       51.8 secs

     total energy              =    -380.06035024 Ry
     estimated scf accuracy    <       1.02698329 Ry

     iteration #  2     ecut=   100.00 Ry     beta= 0.70
     CG style diagonalization
     ethr =  2.33E-03,  avg # of iterations =  4.9

     negative rho (up, down):  1.503E-02 0.000E+00

     total cpu time spent up to now is      114.2 secs

     total energy              =    -379.76977618 Ry
     estimated scf accuracy    <       3.86846304 Ry

     iteration #  3     ecut=   100.00 Ry     beta= 0.70
     CG style diagonalization
     ethr =  2.33E-03,  avg # of iterations =  4.5

     negative rho (up, down):  1.563E-02 0.000E+00

     total cpu time spent up to now is      172.2 secs

     total energy              =    -380.54758287 Ry
     estimated scf accuracy    <       0.25184517 Ry

     iteration #  4     ecut=   100.00 Ry     beta= 0.70
     CG style diagonalization
     ethr =  5.72E-04,  avg # of iterations =  3.4

     negative rho (up, down):  1.566E-02 0.000E+00

     total cpu time spent up to now is      216.3 secs

     total energy              =    -380.56117826 Ry
     estimated scf accuracy    <       0.05195363 Ry

     iteration #  5     ecut=   100.00 Ry     beta= 0.70
     CG style diagonalization
     ethr =  1.18E-04,  avg # of iterations =  3.8

     negative rho (up, down):  1.566E-02 0.000E+00

     total cpu time spent up to now is      265.9 secs

     total energy              =    -380.57582220 Ry
     estimated scf accuracy    <       0.00497574 Ry

     iteration #  6     ecut=   100.00 Ry     beta= 0.70
     CG style diagonalization
     ethr =  1.13E-05,  avg # of iterations =  4.1

     negative rho (up, down):  1.565E-02 0.000E+00

     total cpu time spent up to now is      318.9 secs

     total energy              =    -380.57748229 Ry
     estimated scf accuracy    <       0.00701017 Ry

     iteration #  7     ecut=   100.00 Ry     beta= 0.70
     CG style diagonalization
     ethr =  1.13E-05,  avg # of iterations =  3.2

     negative rho (up, down):  1.566E-02 0.000E+00

     total cpu time spent up to now is      359.7 secs

     total energy              =    -380.57702325 Ry
     estimated scf accuracy    <       0.00258046 Ry

     iteration #  8     ecut=   100.00 Ry     beta= 0.70
     CG style diagonalization
     ethr =  5.86E-06,  avg # of iterations =  3.6

     negative rho (up, down):  1.569E-02 0.000E+00

     total cpu time spent up to now is      405.7 secs

     total energy              =    -380.57754724 Ry
     estimated scf accuracy    <       0.00001046 Ry

     iteration #  9     ecut=   100.00 Ry     beta= 0.70
     CG style diagonalization
     c_bands:  1 eigenvalues not converged
     c_bands:  1 eigenvalues not converged
     c_bands:  1 eigenvalues not converged
     c_bands:  1 eigenvalues not converged
     c_bands:  1 eigenvalues not converged
     ethr =  2.38E-08,  avg # of iterations =  7.9

     negative rho (up, down):  1.572E-02 0.000E+00

     total cpu time spent up to now is      505.4 secs

     total energy              =    -380.57760634 Ry
     estimated scf accuracy    <       0.00001398 Ry

     iteration # 10     ecut=   100.00 Ry     beta= 0.70
     CG style diagonalization
     ethr =  2.38E-08,  avg # of iterations =  3.3

     negative rho (up, down):  1.578E-02 0.000E+00

     total cpu time spent up to now is      547.5 secs

     total energy              =    -380.57760437 Ry
     estimated scf accuracy    <       0.00000910 Ry

     iteration # 11     ecut=   100.00 Ry     beta= 0.70
     CG style diagonalization
     ethr =  2.07E-08,  avg # of iterations =  3.6

     negative rho (up, down):  1.580E-02 0.000E+00

     total cpu time spent up to now is      593.5 secs

     total energy              =    -380.57760532 Ry
     estimated scf accuracy    <       0.00000116 Ry

     iteration # 12     ecut=   100.00 Ry     beta= 0.70
     CG style diagonalization
     ethr =  2.64E-09,  avg # of iterations =  6.2

     negative rho (up, down):  1.580E-02 0.000E+00

     total cpu time spent up to now is      671.5 secs

     total energy              =    -380.57760659 Ry
     estimated scf accuracy    <       0.00000041 Ry

     iteration # 13     ecut=   100.00 Ry     beta= 0.70
     CG style diagonalization
     ethr =  9.36E-10,  avg # of iterations =  5.9

     negative rho (up, down):  1.581E-02 0.000E+00

     total cpu time spent up to now is      745.4 secs

     total energy              =    -380.57760704 Ry
     estimated scf accuracy    <       0.00000002 Ry

     iteration # 14     ecut=   100.00 Ry     beta= 0.70
     CG style diagonalization
     c_bands:  1 eigenvalues not converged
     ethr =  5.12E-11,  avg # of iterations =  9.9

     negative rho (up, down):  1.581E-02 0.000E+00

     total cpu time spent up to now is      870.1 secs

     End of self-consistent calculation

          k = 0.0000 0.0000 0.0000 (  6881 PWs)   bands (ev):

   -45.1687 -21.8496 -21.7703 -21.7620  -7.1656  -6.0129  -5.7573  -4.4145
    -4.4120  -4.3737  -4.2568  -4.1415   4.8414   6.7036   6.7665   7.1090
     8.7037   8.7178   8.9504   9.2872   9.4350   9.4479

          k = 0.0000 0.0000 0.1896 (  6862 PWs)   bands (ev):

   -45.1684 -21.8658 -21.7697 -21.7613  -7.0236  -5.9707  -5.7086  -4.4267
    -4.4243  -4.3726  -4.2486  -4.1938   4.1926   6.7472   6.8022   7.4190
     8.5105   8.5352   8.8926   9.1740   9.5271   9.5348

          k = 0.0000 0.0000 0.3792 (  6852 PWs)   bands (ev):

   -45.1680 -21.8919 -21.7686 -21.7603  -6.7767  -5.8966  -5.6356  -4.4464
    -4.4441  -4.3709  -4.2864  -4.2347   3.5267   6.7522   6.7995   6.8380
     8.3015   8.3491   8.8026   9.6218   9.6249  10.3272

          k = 0.0000 0.1417 0.0000 (  6869 PWs)   bands (ev):

   -45.1684 -21.8490 -21.7766 -21.7697  -7.0599  -5.9884  -5.7345  -4.4333
    -4.4108  -4.3845  -4.2590  -4.1332   4.4545   6.7688   6.8479   7.1784
     8.6326   8.7374   8.9575   9.1465   9.1849   9.5491

          k = 0.0000 0.1417 0.1896 (  6879 PWs)   bands (ev):

   -45.1681 -21.8651 -21.7759 -21.7690  -6.9257  -5.9541  -5.6835  -4.4360
    -4.4235  -4.3838  -4.2518  -4.1687   3.9746   6.6429   6.8896   7.4661
     8.2803   8.5271   8.8899   9.0717   9.2701   9.7337

          k = 0.0000 0.1417 0.3792 (  6882 PWs)   bands (ev):

   -45.1678 -21.8911 -21.7748 -21.7680  -6.6988  -5.8933  -5.6005  -4.4438
    -4.4374  -4.3826  -4.2502  -4.2234   3.4049   6.3912   6.9311   7.0845
     8.0144   8.3427   8.9827   9.1109   9.3740  10.4370

          k = 0.0000 0.2834 0.0000 (  6873 PWs)   bands (ev):

   -45.1678 -21.8476 -21.8093 -21.7683  -6.8067  -5.9314  -5.6916  -4.4665
    -4.4093  -4.4075  -4.2600  -4.1315   3.8693   6.6350   7.0285   7.0665
     8.5102   8.5428   8.8378   8.8382   9.2608   9.9028

          k = 0.0000 0.2834 0.1896 (  6871 PWs)   bands (ev):

   -45.1675 -21.8635 -21.8085 -21.7676  -6.7016  -5.9059  -5.6313  -4.4488
    -4.4217  -4.4085  -4.2504  -4.1328   3.5718   6.4747   7.1176   7.1254
     8.0839   8.3638   8.5350   8.9356   9.2483  10.1340

          k = 0.0000 0.2834 0.3792 (  6877 PWs)   bands (ev):

   -45.1671 -21.8891 -21.8072 -21.7665  -6.5509  -5.8459  -5.5135  -4.4430
    -4.4130  -4.4086  -4.2725  -4.1100   3.1584   6.1266   6.9544   7.1773
     7.7575   8.0411   8.2385   9.0087   9.6376  10.2658

          k = 0.0000 0.4252 0.0000 (  6838 PWs)   bands (ev):

   -45.1673 -21.8463 -21.8355 -21.7672  -6.5826  -5.8699  -5.6837  -4.4890
    -4.4278  -4.4060  -4.2416  -4.1586   3.5452   6.1532   7.2848   7.3410
     7.9546   8.0740   8.7384   8.8819   9.3144  10.8066

          k = 0.0000 0.4252 0.1896 (  6859 PWs)   bands (ev):

   -45.1670 -21.8621 -21.8346 -21.7665  -6.5256  -5.8247  -5.6160  -4.4641
    -4.4284  -4.4200  -4.2128  -4.1409   3.3220   6.1286   7.1271   7.4456
     7.4946   7.9578   8.6625   8.8907   9.2410  10.5721

          k = 0.0000 0.4252 0.3792 (  6877 PWs)   bands (ev):

   -45.1667 -21.8875 -21.8330 -21.7654  -6.4753  -5.7364  -5.4500  -4.4424
    -4.4292  -4.4168  -4.2610  -4.0373   2.9953   5.9452   6.5964   7.3995
     7.5045   7.9201   7.9241   8.8994   9.8430  10.1289

          k = 0.1429 0.0000 0.0000 (  6873 PWs)   bands (ev):

   -45.1683 -21.8489 -21.7864 -21.7613  -7.0542  -5.9859  -5.7333  -4.4311
    -4.4132  -4.3853  -4.2588  -4.1311   4.4578   6.7861   6.8031   7.1733
     8.6497   8.7200   8.9641   9.1519   9.1788   9.5478

          k = 0.1429 0.0000 0.1896 (  6872 PWs)   bands (ev):

   -45.1681 -21.8651 -21.7857 -21.7606  -6.9194  -5.9527  -5.6827  -4.4339
    -4.4258  -4.3845  -4.2542  -4.1628   3.9793   6.6762   6.8358   7.4573
     8.2781   8.5023   8.8934   9.0906   9.2673   9.7372

          k = 0.1429 0.0000 0.3792 (  6880 PWs)   bands (ev):

   -45.1677 -21.8910 -21.7845 -21.7596  -6.6911  -5.8948  -5.6000  -4.4460
    -4.4364  -4.3834  -4.2563  -4.2106   3.4111   6.4136   6.8948   7.0782
     8.0307   8.2951   8.9713   9.1374   9.3657  10.4341

          k = 0.1429 0.1417 0.0000 (  6859 PWs)   bands (ev):

   -45.1681 -21.8483 -21.7857 -21.7759  -6.9498  -5.9607  -5.7229  -4.4360
    -4.4260  -4.3916  -4.2438  -4.1232   4.1785   6.7308   6.9200   7.2400
     8.2837   8.5090   9.0002   9.0467   9.4040   9.6904

          k = 0.1429 0.1417 0.1896 (  6878 PWs)   bands (ev):

   -45.1678 -21.8644 -21.7850 -21.7752  -6.8209  -5.9367  -5.6723  -4.4406
    -4.4264  -4.3902  -4.2365  -4.1426   3.8315   6.6182   6.6988   7.4745
     8.1482   8.2824   8.8203   9.1549   9.4345   9.7514

          k = 0.1429 0.1417 0.3792 (  6868 PWs)   bands (ev):

   -45.1675 -21.8902 -21.7839 -21.7740  -6.6079  -5.8965  -5.5835  -4.4599
    -4.4008  -4.3857  -4.2358  -4.1797   3.3554   6.4275   6.4585   7.1538
     8.0605   8.0857   8.7402   9.2295   9.4739  10.3092

          k = 0.1429 0.2834 0.0000 (  6867 PWs)   bands (ev):

   -45.1674 -21.8469 -21.8085 -21.7843  -6.7008  -5.9041  -5.7083  -4.4651
    -4.4195  -4.3890  -4.2267  -4.1220   3.6915   6.6021   7.0075   7.1509
     7.9168   8.2881   8.7458   9.1635   9.3760  10.0943

          k = 0.1429 0.2834 0.1896 (  6866 PWs)   bands (ev):

   -45.1672 -21.8628 -21.8077 -21.7836  -6.5956  -5.8935  -5.6539  -4.4495
    -4.4258  -4.3790  -4.2119  -4.1124   3.5192   6.4369   6.6043   7.1919
     7.6989   8.2135   8.8551   9.1270   9.3645  10.0573

          k = 0.1429 0.2834 0.3792 (  6878 PWs)   bands (ev):

   -45.1668 -21.8883 -21.8064 -21.7824  -6.4474  -5.8660  -5.5396  -4.4486
    -4.4072  -4.3461  -4.2184  -4.0863   3.2200   6.0681   6.5047   6.8367
     7.2846   8.0260   8.8921   9.1848   9.6561   9.9695

          k = 0.1429 0.4252 0.0000 (  6858 PWs)   bands (ev):

   -45.1669 -21.8456 -21.8346 -21.7831  -6.4814  -5.8460  -5.7222  -4.4760
    -4.4104  -4.3750  -4.2128  -4.1493   3.3963   6.1670   7.0839   7.4823
     7.5093   8.1050   8.4897   9.1555   9.4185  10.6119

          k = 0.1429 0.4252 0.1896 (  6854 PWs)   bands (ev):

   -45.1667 -21.8613 -21.8337 -21.7824  -6.4186  -5.8215  -5.6656  -4.4540
    -4.4142  -4.3619  -4.1807  -4.1200   3.3039   6.1332   6.5247   6.9854
     7.5559   8.3542   8.5191   9.1383   9.3833  10.2453

          k = 0.1429 0.4252 0.3792 (  6860 PWs)   bands (ev):

   -45.1663 -21.8867 -21.8322 -21.7812  -6.3677  -5.7716  -5.5122  -4.4432
    -4.3851  -4.3375  -4.2009  -4.0170   3.1169   5.9086   6.3349   6.5429
     6.8984   8.1623   8.8659   9.0214   9.4460  10.0362

          k = 0.2857 0.0000 0.0000 (  6857 PWs)   bands (ev):

   -45.1676 -21.8475 -21.8221 -21.7598  -6.7876  -5.9234  -5.6874  -4.4645
    -4.4117  -4.4098  -4.2566  -4.1271   3.8699   6.6140   7.0051   7.0231
     8.5151   8.5270   8.8424   8.8467   9.2584   9.9092

          k = 0.2857 0.0000 0.1896 (  6868 PWs)   bands (ev):

   -45.1674 -21.8634 -21.8214 -21.7591  -6.6815  -5.9012  -5.6277  -4.4464
    -4.4238  -4.4110  -4.2521  -4.1201   3.5807   6.4699   7.0726   7.0977
     8.0778   8.3386   8.5185   8.9221   9.2668  10.1523

          k = 0.2857 0.0000 0.3792 (  6888 PWs)   bands (ev):

   -45.1670 -21.8889 -21.8201 -21.7580  -6.5293  -5.8470  -5.5105  -4.4450
    -4.4111  -4.4107  -4.2756  -4.0894   3.1761   6.1367   6.9350   7.1459
     7.7256   8.0215   8.1918   8.9855   9.6775  10.2409

          k = 0.2857 0.1417 0.0000 (  6862 PWs)   bands (ev):

   -45.1674 -21.8469 -21.8214 -21.7743  -6.6878  -5.8983  -5.7053  -4.4645
    -4.4200  -4.3897  -4.2250  -4.1193   3.6905   6.5773   6.9859   7.1370
     7.9257   8.2887   8.7528   9.1384   9.3767  10.1048

          k = 0.2857 0.1417 0.1896 (  6862 PWs)   bands (ev):

   -45.1671 -21.8627 -21.8207 -21.7736  -6.5819  -5.8899  -5.6514  -4.4488
    -4.4262  -4.3796  -4.2143  -4.1032   3.5243   6.4300   6.5796   7.1825
     7.6990   8.1922   8.8287   9.1170   9.3712  10.0748

          k = 0.2857 0.1417 0.3792 (  6866 PWs)   bands (ev):

   -45.1668 -21.8882 -21.8194 -21.7724  -6.4330  -5.8659  -5.5376  -4.4479
    -4.4076  -4.3469  -4.2243  -4.0691   3.2325   6.0769   6.4833   6.8303
     7.2593   8.0053   8.8641   9.1520   9.6908   9.9528

          k = 0.2857 0.2834 0.0000 (  6853 PWs)   bands (ev):

   -45.1667 -21.8455 -21.8197 -21.8066  -6.4577  -5.8428  -5.7434  -4.4553
    -4.4154  -4.3460  -4.1666  -4.1167   3.3216   6.5768   6.6885   7.3513
     7.5089   7.8053   8.5785   9.1375   9.6720  10.1743

          k = 0.2857 0.2834 0.1896 (  6865 PWs)   bands (ev):

   -45.1665 -21.8611 -21.8191 -21.8059  -6.3553  -5.8619  -5.7035  -4.4296
    -4.4159  -4.3188  -4.1412  -4.0787   3.3557   6.2637   6.2943   6.7434
     7.4152   7.8053   9.0600   9.2576   9.6978   9.8042

          k = 0.2857 0.2834 0.3792 (  6867 PWs)   bands (ev):

   -45.1661 -21.8864 -21.8179 -21.8047  -6.2282  -5.8921  -5.5883  -4.4126
    -4.3884  -4.2609  -4.1075  -4.0219   3.3424   5.7943   5.9311   6.4243
     7.0779   7.2818   8.9824   9.5965   9.6480   9.8630

          k = 0.2857 0.4252 0.0000 (  6888 PWs)   bands (ev):

   -45.1663 -21.8442 -21.8326 -21.8183  -6.2694  -5.7955  -5.7728  -4.4477
    -4.3939  -4.2865  -4.1439  -4.1299   3.0607   6.1846   6.6826   7.1883
     7.6587   7.8747   8.1138   9.1473   9.8226  10.0633

          k = 0.2857 0.4252 0.1896 (  6861 PWs)   bands (ev):

   -45.1660 -21.8597 -21.8318 -21.8177  -6.1789  -5.8176  -5.7549  -4.4192
    -4.3881  -4.2395  -4.1068  -4.0746   3.1963   6.0873   6.1868   6.3756
     7.1534   7.9213   8.8772   9.3030   9.5041   9.8752

          k = 0.2857 0.4252 0.3792 (  6845 PWs)   bands (ev):

   -45.1657 -21.8849 -21.8305 -21.8166  -6.1208  -5.8452  -5.6280  -4.3904
    -4.3585  -4.1759  -4.0499  -3.9692   3.4073   5.5525   5.6799   6.1135
     6.7268   7.2578   8.2301   9.7340   9.8205  10.0480

          k = 0.4286 0.0000 0.0000 (  6841 PWs)   bands (ev):

   -45.1671 -21.8515 -21.8454 -21.7585  -6.5526  -5.8549  -5.6791  -4.4867
    -4.4317  -4.4080  -4.2306  -4.1573   3.5431   6.0994   7.2718   7.2721
     7.9720   8.0553   8.7390   8.8817   9.3120  10.8342

          k = 0.4286 0.0000 0.1896 (  6842 PWs)   bands (ev):

   -45.1668 -21.8618 -21.8500 -21.7578  -6.4964  -5.8123  -5.6124  -4.4615
    -4.4323  -4.4219  -4.2125  -4.1233   3.3329   6.0805   7.1171   7.3835
     7.4818   7.9405   8.6506   8.8758   9.2462  10.5852

          k = 0.4286 0.0000 0.3792 (  6873 PWs)   bands (ev):

   -45.1665 -21.8871 -21.8485 -21.7567  -6.4500  -5.7272  -5.4459  -4.4442
    -4.4331  -4.4142  -4.2607  -4.0106   3.0221   5.9306   6.5638   7.3663
     7.4821   7.8728   7.8971   8.8701   9.8158  10.1350

          k = 0.4286 0.1417 0.0000 (  6846 PWs)   bands (ev):

   -45.1668 -21.8507 -21.8448 -21.7730  -6.4587  -5.8326  -5.7185  -4.4749
    -4.4108  -4.3759  -4.2046  -4.1494   3.3926   6.1108   7.0603   7.4600
     7.5192   8.1100   8.4876   9.1283   9.4108  10.6418

          k = 0.4286 0.1417 0.1896 (  6856 PWs)   bands (ev):

   -45.1666 -21.8611 -21.8492 -21.7723  -6.3966  -5.8099  -5.6629  -4.4530
    -4.4141  -4.3633  -4.1835  -4.1042   3.3108   6.0838   6.4991   6.9972
     7.5569   8.3166   8.4831   9.1259   9.3821  10.2577

          k = 0.4286 0.1417 0.3792 (  6856 PWs)   bands (ev):

   -45.1662 -21.8864 -21.8478 -21.7711  -6.3501  -5.7610  -5.5095  -4.4424
    -4.3843  -4.3387  -4.2067  -3.9915   3.1396   5.8996   6.3072   6.5093
     6.8939   8.1467   8.7941   8.9931   9.4209  10.0572

          k = 0.4286 0.2834 0.0000 (  6862 PWs)   bands (ev):

   -45.1662 -21.8489 -21.8433 -21.8052  -6.2620  -5.7908  -5.7669  -4.4479
    -4.3934  -4.2815  -4.1513  -4.1234   3.0577   6.1248   6.7246   7.1846
     7.6395   7.8762   8.1184   9.1436   9.7584  10.1206

          k = 0.4286 0.2834 0.1896 (  6848 PWs)   bands (ev):

   -45.1660 -21.8596 -21.8474 -21.8045  -6.1727  -5.8097  -5.7529  -4.4199
    -4.3863  -4.2362  -4.1171  -4.0617   3.1971   6.0444   6.1731   6.4008
     7.1622   7.9211   8.8337   9.3026   9.5079   9.8694

          k = 0.4286 0.2834 0.3792 (  6852 PWs)   bands (ev):

   -45.1656 -21.8847 -21.8462 -21.8033  -6.1204  -5.8322  -5.6274  -4.3917
    -4.3552  -4.1747  -4.0647  -3.9477   3.4181   5.5387   5.6961   6.0862
     6.7013   7.2773   8.1985   9.7078   9.7945  10.0652

          k = 0.4286 0.4252 0.0000 (  6875 PWs)   bands (ev):

   -45.1657 -21.8474 -21.8419 -21.8309  -6.1501  -5.7588  -5.7459  -4.4326
    -4.3473  -4.2139  -4.1649  -4.0616   2.7974   6.0036   6.4119   7.3622
     7.4638   7.8523   8.0327   8.8778   9.4422  10.2505

          k = 0.4286 0.4252 0.1896 (  6853 PWs)   bands (ev):

   -45.1655 -21.8581 -21.8460 -21.8302  -6.0142  -5.8079  -5.7930  -4.4017
    -4.3412  -4.1321  -4.0754  -4.0289   3.0464   5.9548   6.1674   6.2192
     6.6045   7.8885   8.4936   9.2158   9.2379  10.2407

          k = 0.4286 0.4252 0.3792 (  6862 PWs)   bands (ev):

   -45.1651 -21.8833 -21.8449 -21.8290  -5.9304  -5.8832  -5.7103  -4.3520
    -4.3352  -4.0328  -3.9476  -3.9263   3.6095   5.3465   5.4572   5.8812
     6.5185   6.8199   7.1579  10.0421  10.0686  10.2271

     highest occupied level (ev):    10.8342

!    total energy              =    -380.57760720 Ry
     estimated scf accuracy    <          5.0E-09 Ry

     The total energy is the sum of the following terms:
     one-electron contribution =     -79.71228991 Ry
     hartree contribution      =      69.93423069 Ry
     xc contribution           =    -102.67757455 Ry
     ewald contribution        =    -268.12197343 Ry

     convergence has been achieved in  14 iterations

     negative rho (up, down):  1.581E-02 0.000E+00

     Forces acting on atoms (cartesian axes, Ry/au):

     atom    1 type  1   force =     0.00000000    0.00000000    0.00006410
     atom    2 type  2   force =     0.00000000    0.00000000    0.00027383
     atom    3 type  3   force =     0.00000000    0.00000000   -0.00017249
     atom    4 type  3   force =     0.00000000    0.00000000   -0.00092288
     atom    5 type  3   force =     0.00000000    0.00000000    0.00075744

     Total force =     0.001239     Total SCF correction =     0.000106


     Computing stress (Cartesian axis) and pressure


     negative rho (up, down):  1.581E-02 0.000E+00
          total   stress  (Ry/bohr**3)                   (kbar)     P=        1.47
   0.00006389   0.00000000   0.00000000            9.40        0.00        0.00
   0.00000000  -0.00003859   0.00000000            0.00       -5.68        0.00
   0.00000000   0.00000000   0.00000465            0.00        0.00        0.68


     BFGS Geometry Optimization
     Energy error            =      0.0E+00 Ry
     Gradient error          =      9.2E-04 Ry/Bohr

     bfgs converged in   1 scf cycles and   0 bfgs steps
     (criteria: energy <  1.0E-04 Ry, force <  1.0E-03 Ry/Bohr)

     End of BFGS Geometry Optimization

     Final energy             =    -380.5776072049 Ry
Begin final coordinates

ATOMIC_POSITIONS (crystal)
Pb            0.0000000000        0.0000000000        1.0051904083
Ti            0.5000000000        0.5000000000        0.5395123895
O             0.5000000000        0.5000000000        0.0994787311
O             0.5000000000        0.0000000000        0.6115513795
O             0.0000000000        0.5000000000        0.6115513795
End final coordinates



     Writing all to output data dir ./PTO2.save/
 
     init_run     :     16.74s CPU     17.15s WALL (       1 calls)
     electrons    :    824.35s CPU    851.68s WALL (       1 calls)
     forces       :      3.56s CPU      3.65s WALL (       1 calls)
     stress       :     21.56s CPU     21.79s WALL (       1 calls)

     Called by init_run:
     wfcinit      :     11.71s CPU     12.01s WALL (       1 calls)
     potinit      :      0.19s CPU      0.20s WALL (       1 calls)
     hinit0       :      3.94s CPU      3.96s WALL (       1 calls)

     Called by electrons:
     c_bands      :    748.67s CPU    772.95s WALL (      14 calls)
     sum_band     :     64.72s CPU     66.66s WALL (      14 calls)
     v_of_rho     :      0.41s CPU      0.43s WALL (      15 calls)
     newd         :     11.02s CPU     12.11s WALL (      15 calls)
     mix_rho      :      0.26s CPU      0.27s WALL (      14 calls)

     Called by c_bands:
     init_us_2    :     18.34s CPU     18.45s WALL (    1488 calls)
     init_us_2:cp :     18.29s CPU     18.42s WALL (    1488 calls)
     ccgdiagg     :    652.39s CPU    673.91s WALL (     672 calls)
     wfcrot       :     96.40s CPU     98.07s WALL (     672 calls)

     Called by *cgdiagg:
     h_psi        :    510.06s CPU    523.11s WALL (   57118 calls)
     s_psi        :    122.79s CPU    129.49s WALL (  113564 calls)

     Called by h_psi:
     h_psi:calbec :     63.91s CPU     65.96s WALL (   57118 calls)
     vloc_psi     :    377.58s CPU    386.30s WALL (   57118 calls)
     add_vuspsi   :     63.20s CPU     66.09s WALL (   57118 calls)
     hs_1psi      :    487.51s CPU    501.54s WALL (   56446 calls)
     s_1psi       :    123.11s CPU    127.43s WALL (   56446 calls)

     General routines
     calbec       :    123.96s CPU    130.40s WALL (  114476 calls)
     fft          :      0.15s CPU      0.15s WALL (      68 calls)
     ffts         :      0.03s CPU      0.03s WALL (      14 calls)
     fftw         :    343.89s CPU    350.60s WALL (  158108 calls)
 
     Parallel routines
 
     PWSCF        :  14m27.65s CPU  14m57.25s WALL

 
   This run was terminated on:   8:55:27  11Apr2022            

=------------------------------------------------------------------------------=
   JOB DONE.
=------------------------------------------------------------------------------=
