
     Program PWSCF v.7.0 starts on 11Apr2022 at  8:38:52 

     This program is part of the open-source Quantum ESPRESSO suite
     for quantum simulation of materials; please cite
         "P. Giannozzi et al., J. Phys.:Condens. Matter 21 395502 (2009);
         "P. Giannozzi et al., J. Phys.:Condens. Matter 29 465901 (2017);
         "P. Giannozzi et al., J. Chem. Phys. 152 154105 (2020);
          URL http://www.quantum-espresso.org", 
     in publications or presentations arising from this work. More details at
     http://www.quantum-espresso.org/quote

     Parallel version (MPI), running on     1 processors

     MPI processes distributed on     1 nodes
     91219 MiB available memory on the printing compute node when the environment starts
 
     Waiting for input...
     Reading input from standard input
Warning: card &CELL ignored
Warning: card  CELL_DYNAMICS = 'BFGS', ignored
Warning: card  PRESS=0.1D0, ignored
Warning: card / ignored

     Current dimensions of program PWSCF are:
     Max number of different atomic species (ntypx) = 10
     Max number of k-points (npk) =  40000
     Max angular momentum in pseudopotentials (lmaxx) =  4

     File ./PTO2.update deleted, as requested

     File ./PTO2.bfgs deleted, as requested
     Message from routine setup:
     using ibrav=0 with symmetry is DISCOURAGED, use correct ibrav instead

     Subspace diagonalization in iterative solution of the eigenvalue problem:
     a serial algorithm will be used

 
     G-vector sticks info
     --------------------
     sticks:   dense  smooth     PW     G-vecs:    dense   smooth      PW
     Sum        1685    1685    481                54837    54837    8209
 
     Using Slab Decomposition
 


     bravais-lattice index     =            0
     lattice parameter (alat)  =       7.2864  a.u.
     unit-cell volume          =     405.6594 (a.u.)^3
     number of atoms/cell      =            5
     number of atomic types    =            3
     number of electrons       =        44.00
     number of Kohn-Sham states=           22
     kinetic-energy cutoff     =     100.0000  Ry
     charge density cutoff     =     400.0000  Ry
     scf convergence threshold =      1.0E-08
     mixing beta               =       0.7000
     number of iterations used =            8  plain     mixing
     energy convergence thresh.=      1.0E-04
     force convergence thresh. =      1.0E-03
     Exchange-correlation= SLA  PZ   NOGX NOGC
                           (   1   1   0   0   0   0   0)
     nstep                     =           50


     celldm(1)=   7.286406  celldm(2)=   0.000000  celldm(3)=   0.000000
     celldm(4)=   0.000000  celldm(5)=   0.000000  celldm(6)=   0.000000

     crystal axes: (cart. coord. in units of alat)
               a(1) = (   1.000000   0.000000   0.000000 )  
               a(2) = (   0.000000   1.000000   0.000000 )  
               a(3) = (   0.000000   0.000000   1.048628 )  

     reciprocal axes: (cart. coord. in units 2 pi/alat)
               b(1) = (  1.000000  0.000000  0.000000 )  
               b(2) = (  0.000000  1.000000  0.000000 )  
               b(3) = (  0.000000  0.000000  0.953627 )  


     PseudoPot. # 1 for Pb read from file:
     ./Pb_LDA.UPF
     MD5 check sum: 062a37469794d955244864f8fe2e5624
     Pseudo is Ultrasoft + core correction, Zval = 14.0
     Generated by new atomic code, or converted to UPF format
     Using radial grid of  899 points,  6 beta functions with: 
                l(1) =   0
                l(2) =   0
                l(3) =   1
                l(4) =   1
                l(5) =   2
                l(6) =   2
     Q(r) pseudized with  6 coefficients,  rinner =    1.000   1.000   1.000
                                                       1.000   1.000

     PseudoPot. # 2 for Ti read from file:
     ./Ti_LDA.UPF
     MD5 check sum: 0d9f225c038fe889ca2a701dcc8d72cb
     Pseudo is Ultrasoft + core correction, Zval = 12.0
     Generated by new atomic code, or converted to UPF format
     Using radial grid of  851 points,  6 beta functions with: 
                l(1) =   0
                l(2) =   0
                l(3) =   1
                l(4) =   1
                l(5) =   2
                l(6) =   2
     Q(r) pseudized with  6 coefficients,  rinner =    1.000   1.000   1.000
                                                       1.000   1.000

     PseudoPot. # 3 for O  read from file:
     ./O_LDA.UPF
     MD5 check sum: 194b818514d2a7dbb603bb78519a4f40
     Pseudo is Ultrasoft + core correction, Zval =  6.0
     Generated by new atomic code, or converted to UPF format
     Using radial grid of  737 points,  5 beta functions with: 
                l(1) =   0
                l(2) =   0
                l(3) =   1
                l(4) =   1
                l(5) =   2
     Q(r) pseudized with  8 coefficients,  rinner =    0.900   0.900   0.900
                                                       0.900   0.900

     atomic species   valence    mass     pseudopotential
        Pb            14.00   207.20000     Pb( 1.00)
        Ti            12.00    47.88000     Ti( 1.00)
        O              6.00    16.00000     O ( 1.00)

      8 Sym. Ops. (no inversion) found



   Cartesian axes

     site n.     atom                  positions (alat units)
         1           Pb  tau(   1) = (   0.0000000   0.0000000   1.0540708  )
         2           Ti  tau(   2) = (   0.5000000   0.5000000   0.5657478  )
         3           O   tau(   3) = (   0.5000000   0.5000000   0.1043162  )
         4           O   tau(   4) = (   0.5000000   0.0000000   0.6412899  )
         5           O   tau(   5) = (   0.0000000   0.5000000   0.6412899  )

     number of k points=    30
                       cart. coord. in units 2pi/alat
        k(    1) = (   0.0000000   0.0000000   0.0000000), wk =   0.0081633
        k(    2) = (   0.0000000   0.0000000   0.1907254), wk =   0.0163265
        k(    3) = (   0.0000000   0.0000000   0.3814508), wk =   0.0163265
        k(    4) = (   0.0000000   0.1428571   0.0000000), wk =   0.0326531
        k(    5) = (   0.0000000   0.1428571   0.1907254), wk =   0.0653061
        k(    6) = (   0.0000000   0.1428571   0.3814508), wk =   0.0653061
        k(    7) = (   0.0000000   0.2857143   0.0000000), wk =   0.0326531
        k(    8) = (   0.0000000   0.2857143   0.1907254), wk =   0.0653061
        k(    9) = (   0.0000000   0.2857143   0.3814508), wk =   0.0653061
        k(   10) = (   0.0000000   0.4285714   0.0000000), wk =   0.0326531
        k(   11) = (   0.0000000   0.4285714   0.1907254), wk =   0.0653061
        k(   12) = (   0.0000000   0.4285714   0.3814508), wk =   0.0653061
        k(   13) = (   0.1428571   0.1428571   0.0000000), wk =   0.0326531
        k(   14) = (   0.1428571   0.1428571   0.1907254), wk =   0.0653061
        k(   15) = (   0.1428571   0.1428571   0.3814508), wk =   0.0653061
        k(   16) = (   0.1428571   0.2857143   0.0000000), wk =   0.0653061
        k(   17) = (   0.1428571   0.2857143   0.1907254), wk =   0.1306122
        k(   18) = (   0.1428571   0.2857143   0.3814508), wk =   0.1306122
        k(   19) = (   0.1428571   0.4285714   0.0000000), wk =   0.0653061
        k(   20) = (   0.1428571   0.4285714   0.1907254), wk =   0.1306122
        k(   21) = (   0.1428571   0.4285714   0.3814508), wk =   0.1306122
        k(   22) = (   0.2857143   0.2857143   0.0000000), wk =   0.0326531
        k(   23) = (   0.2857143   0.2857143   0.1907254), wk =   0.0653061
        k(   24) = (   0.2857143   0.2857143   0.3814508), wk =   0.0653061
        k(   25) = (   0.2857143   0.4285714   0.0000000), wk =   0.0653061
        k(   26) = (   0.2857143   0.4285714   0.1907254), wk =   0.1306122
        k(   27) = (   0.2857143   0.4285714   0.3814508), wk =   0.1306122
        k(   28) = (   0.4285714   0.4285714   0.0000000), wk =   0.0326531
        k(   29) = (   0.4285714   0.4285714   0.1907254), wk =   0.0653061
        k(   30) = (   0.4285714   0.4285714   0.3814508), wk =   0.0653061

     Dense  grid:    54837 G-vectors     FFT dimensions: (  48,  48,  50)

     Estimated max dynamical RAM per process >     286.18 MB

     Check: negative core charge=   -0.000003

     Initial potential from superposition of free atoms

     starting charge      42.9982, renormalised to      44.0000

     negative rho (up, down):  1.705E-02 0.000E+00
     Starting wfcs are   31 randomized atomic wfcs

     total cpu time spent up to now is       13.3 secs

     Self-consistent Calculation

     iteration #  1     ecut=   100.00 Ry     beta= 0.70
     CG style diagonalization
     ethr =  1.00E-02,  avg # of iterations =  2.2

     negative rho (up, down):  1.433E-02 0.000E+00

     total cpu time spent up to now is       34.8 secs

     total energy              =    -380.06144436 Ry
     estimated scf accuracy    <       1.02586922 Ry

     iteration #  2     ecut=   100.00 Ry     beta= 0.70
     CG style diagonalization
     ethr =  2.33E-03,  avg # of iterations =  4.9

     negative rho (up, down):  1.504E-02 0.000E+00

     total cpu time spent up to now is       74.5 secs

     total energy              =    -379.77415765 Ry
     estimated scf accuracy    <       3.83662035 Ry

     iteration #  3     ecut=   100.00 Ry     beta= 0.70
     CG style diagonalization
     ethr =  2.33E-03,  avg # of iterations =  4.5

     negative rho (up, down):  1.563E-02 0.000E+00

     total cpu time spent up to now is      110.9 secs

     total energy              =    -380.54758375 Ry
     estimated scf accuracy    <       0.25086540 Ry

     iteration #  4     ecut=   100.00 Ry     beta= 0.70
     CG style diagonalization
     ethr =  5.70E-04,  avg # of iterations =  3.4

     negative rho (up, down):  1.566E-02 0.000E+00

     total cpu time spent up to now is      139.2 secs

     total energy              =    -380.56147942 Ry
     estimated scf accuracy    <       0.05111501 Ry

     iteration #  5     ecut=   100.00 Ry     beta= 0.70
     CG style diagonalization
     ethr =  1.16E-04,  avg # of iterations =  3.8

     negative rho (up, down):  1.566E-02 0.000E+00

     total cpu time spent up to now is      170.0 secs

     total energy              =    -380.57570678 Ry
     estimated scf accuracy    <       0.00509415 Ry

     iteration #  6     ecut=   100.00 Ry     beta= 0.70
     CG style diagonalization
     ethr =  1.16E-05,  avg # of iterations =  4.1

     negative rho (up, down):  1.566E-02 0.000E+00

     total cpu time spent up to now is      203.5 secs

     total energy              =    -380.57754990 Ry
     estimated scf accuracy    <       0.00706060 Ry

     iteration #  7     ecut=   100.00 Ry     beta= 0.70
     CG style diagonalization
     ethr =  1.16E-05,  avg # of iterations =  3.2

     negative rho (up, down):  1.567E-02 0.000E+00

     total cpu time spent up to now is      229.5 secs

     total energy              =    -380.57707145 Ry
     estimated scf accuracy    <       0.00262047 Ry

     iteration #  8     ecut=   100.00 Ry     beta= 0.70
     CG style diagonalization
     ethr =  5.96E-06,  avg # of iterations =  3.6

     negative rho (up, down):  1.569E-02 0.000E+00

     total cpu time spent up to now is      259.2 secs

     total energy              =    -380.57760497 Ry
     estimated scf accuracy    <       0.00001126 Ry

     iteration #  9     ecut=   100.00 Ry     beta= 0.70
     CG style diagonalization
     c_bands:  1 eigenvalues not converged
     c_bands:  1 eigenvalues not converged
     ethr =  2.56E-08,  avg # of iterations =  7.7

     negative rho (up, down):  1.572E-02 0.000E+00

     total cpu time spent up to now is      321.8 secs

     total energy              =    -380.57766381 Ry
     estimated scf accuracy    <       0.00001420 Ry

     iteration # 10     ecut=   100.00 Ry     beta= 0.70
     CG style diagonalization
     ethr =  2.56E-08,  avg # of iterations =  3.3

     negative rho (up, down):  1.581E-02 0.000E+00

     total cpu time spent up to now is      348.9 secs

     total energy              =    -380.57766096 Ry
     estimated scf accuracy    <       0.00000931 Ry

     iteration # 11     ecut=   100.00 Ry     beta= 0.70
     CG style diagonalization
     ethr =  2.12E-08,  avg # of iterations =  4.0

     negative rho (up, down):  1.580E-02 0.000E+00

     total cpu time spent up to now is      381.1 secs

     total energy              =    -380.57766325 Ry
     estimated scf accuracy    <       0.00000047 Ry

     iteration # 12     ecut=   100.00 Ry     beta= 0.70
     CG style diagonalization
     ethr =  1.07E-09,  avg # of iterations =  8.0

     negative rho (up, down):  1.581E-02 0.000E+00

     total cpu time spent up to now is      445.2 secs

     total energy              =    -380.57766473 Ry
     estimated scf accuracy    <       0.00000009 Ry

     iteration # 13     ecut=   100.00 Ry     beta= 0.70
     CG style diagonalization
     ethr =  1.99E-10,  avg # of iterations =  7.0

     negative rho (up, down):  1.582E-02 0.000E+00

     total cpu time spent up to now is      500.9 secs

     End of self-consistent calculation

          k = 0.0000 0.0000 0.0000 (  6853 PWs)   bands (ev):

   -45.1287 -21.8143 -21.7267 -21.7267  -7.1429  -5.9863  -5.7326  -4.3786
    -4.3786  -4.3393  -4.2233  -4.1042   4.8812   6.7570   6.7570   7.1429
     8.7373   8.7373   8.9832   9.3190   9.4689   9.4689

          k = 0.0000 0.0000 0.1907 (  6856 PWs)   bands (ev):

   -45.1284 -21.8310 -21.7260 -21.7260  -6.9990  -5.9435  -5.6825  -4.3911
    -4.3911  -4.3383  -4.2140  -4.1576   4.2264   6.7966   6.7966   7.4500
     8.5475   8.5475   8.9244   9.2072   9.5596   9.5596

          k = 0.0000 0.0000 0.3815 (  6840 PWs)   bands (ev):

   -45.1280 -21.8578 -21.7249 -21.7249  -6.7488  -5.8685  -5.6070  -4.4113
    -4.4113  -4.3365  -4.2498  -4.2005   3.5556   6.7693   6.8398   6.8398
     8.3494   8.3494   8.8331   9.6533   9.6533  10.3711

          k = 0.0000 0.1429 0.0000 (  6867 PWs)   bands (ev):

   -45.1284 -21.8136 -21.7421 -21.7260  -7.0343  -5.9604  -5.7095  -4.3976
    -4.3774  -4.3505  -4.2253  -4.0949   4.4909   6.8157   6.8392   7.2090
     8.6680   8.7541   8.9891   9.1775   9.2123   9.5803

          k = 0.0000 0.1429 0.1907 (  6862 PWs)   bands (ev):

   -45.1281 -21.8302 -21.7413 -21.7254  -6.8978  -5.9262  -5.6573  -4.4004
    -4.3902  -4.3498  -4.2188  -4.1291   4.0088   6.6845   6.8850   7.4946
     8.3031   8.5384   8.9198   9.1106   9.2981   9.7695

          k = 0.0000 0.1429 0.3815 (  6871 PWs)   bands (ev):

   -45.1277 -21.8569 -21.7402 -21.7243  -6.6672  -5.8661  -5.5718  -4.4109
    -4.4024  -4.3486  -4.2181  -4.1812   3.4363   6.4209   6.9344   7.1046
     8.0463   8.3423   9.0062   9.1522   9.4002  10.4781

          k = 0.0000 0.2857 0.0000 (  6853 PWs)   bands (ev):

   -45.1277 -21.8122 -21.7764 -21.7246  -6.7740  -5.9005  -5.6656  -4.4313
    -4.3761  -4.3741  -4.2242  -4.0926   3.8999   6.6564   7.0588   7.0589
     8.5478   8.5534   8.8683   8.8720   9.2922   9.9367

          k = 0.0000 0.2857 0.1907 (  6854 PWs)   bands (ev):

   -45.1275 -21.8286 -21.7756 -21.7239  -6.6666  -5.8764  -5.6043  -4.4131
    -4.3883  -4.3755  -4.2168  -4.0899   3.6055   6.5012   7.1224   7.1382
     8.1057   8.3741   8.5542   8.9578   9.2894  10.1767

          k = 0.0000 0.2857 0.3815 (  6878 PWs)   bands (ev):

   -45.1271 -21.8549 -21.7742 -21.7227  -6.5127  -5.8185  -5.4839  -4.4101
    -4.3767  -4.3756  -4.2392  -4.0630   3.1944   6.1524   6.9715   7.1841
     7.7633   8.0570   8.2381   9.0269   9.6855  10.2930

          k = 0.0000 0.4286 0.0000 (  6812 PWs)   bands (ev):

   -45.1272 -21.8110 -21.8038 -21.7234  -6.5438  -5.8358  -5.6580  -4.4538
    -4.3955  -4.3724  -4.2013  -4.1221   3.5730   6.1569   7.3101   7.3302
     7.9970   8.0904   8.7680   8.9076   9.3463  10.8529

          k = 0.0000 0.4286 0.1907 (  6833 PWs)   bands (ev):

   -45.1269 -21.8270 -21.8029 -21.7227  -6.4854  -5.7914  -5.5900  -4.4283
    -4.3961  -4.3865  -4.1772  -4.0961   3.3555   6.1350   7.1500   7.4396
     7.5140   7.9726   8.6853   8.9096   9.2788  10.6090

          k = 0.0000 0.4286 0.3815 (  6859 PWs)   bands (ev):

   -45.1265 -21.8531 -21.8013 -21.7215  -6.4355  -5.7037  -5.4205  -4.4094
    -4.3969  -4.3801  -4.2258  -3.9867   3.0352   5.9634   6.6028   7.4058
     7.5167   7.9231   7.9329   8.9118   9.8673  10.1590

          k = 0.1429 0.1429 0.0000 (  6845 PWs)   bands (ev):

   -45.1281 -21.8130 -21.7416 -21.7412  -6.9271  -5.9338  -5.6985  -4.4017
    -4.3914  -4.3572  -4.2101  -4.0862   4.2102   6.7568   6.9503   7.2730
     8.3122   8.5344   9.0296   9.0752   9.4313   9.7218

          k = 0.1429 0.1429 0.1907 (  6857 PWs)   bands (ev):

   -45.1278 -21.8295 -21.7408 -21.7405  -6.7962  -5.9094  -5.6466  -4.4062
    -4.3920  -4.3558  -4.2023  -4.1060   3.8621   6.6448   6.7208   7.5067
     8.1781   8.3050   8.8459   9.1847   9.4620   9.7853

          k = 0.1429 0.1429 0.3815 (  6859 PWs)   bands (ev):

   -45.1274 -21.8560 -21.7396 -21.7394  -6.5802  -5.8687  -5.5551  -4.4258
    -4.3661  -4.3511  -4.2008  -4.1439   3.3834   6.4541   6.4705   7.1808
     8.0904   8.1057   8.7659   9.2588   9.5014  10.3500

          k = 0.1429 0.2857 0.0000 (  6853 PWs)   bands (ev):

   -45.1274 -21.8116 -21.7756 -21.7398  -6.6714  -5.8740  -5.6825  -4.4307
    -4.3851  -4.3549  -4.1919  -4.0842   3.7190   6.6196   7.0257   7.1762
     7.9497   8.3147   8.7813   9.1784   9.4073  10.1291

          k = 0.1429 0.2857 0.1907 (  6855 PWs)   bands (ev):

   -45.1272 -21.8279 -21.7748 -21.7391  -6.5638  -5.8643  -5.6273  -4.4147
    -4.3916  -4.3448  -4.1786  -4.0713   3.5499   6.4617   6.6158   7.2154
     7.7264   8.2310   8.8705   9.1506   9.3966  10.0981

          k = 0.1429 0.2857 0.3815 (  6860 PWs)   bands (ev):

   -45.1268 -21.8541 -21.7735 -21.7379  -6.4129  -5.8382  -5.5105  -4.4140
    -4.3728  -4.3114  -4.1867  -4.0410   3.2534   6.0934   6.5156   6.8560
     7.2989   8.0440   8.9001   9.1968   9.7014   9.9983

          k = 0.1429 0.4286 0.0000 (  6838 PWs)   bands (ev):

   -45.1269 -21.8103 -21.8029 -21.7386  -6.4467  -5.8123  -5.6961  -4.4414
    -4.3760  -4.3413  -4.1742  -4.1137   3.4207   6.1695   7.0994   7.5052
     7.5423   8.1392   8.5138   9.1688   9.4480  10.6609

          k = 0.1429 0.4286 0.1907 (  6847 PWs)   bands (ev):

   -45.1266 -21.8263 -21.8021 -21.7379  -6.3821  -5.7885  -5.6395  -4.4191
    -4.3797  -4.3285  -4.1466  -4.0763   3.3341   6.1388   6.5358   7.0171
     7.5835   8.3652   8.5299   9.1598   9.4147  10.2826

          k = 0.1429 0.4286 0.3815 (  6846 PWs)   bands (ev):

   -45.1263 -21.8523 -21.8006 -21.7367  -6.3318  -5.7384  -5.4830  -4.4084
    -4.3498  -4.3038  -4.1685  -3.9670   3.1547   5.9285   6.3443   6.5508
     6.9148   8.1840   8.8584   9.0298   9.4654  10.0780

          k = 0.2857 0.2857 0.0000 (  6854 PWs)   bands (ev):

   -45.1268 -21.8101 -21.7740 -21.7737  -6.4353  -5.8151  -5.7183  -4.4214
    -4.3808  -4.3115  -4.1329  -4.0809   3.3455   6.6088   6.7166   7.3853
     7.5388   7.8304   8.6108   9.1712   9.6997  10.2056

          k = 0.2857 0.2857 0.1907 (  6848 PWs)   bands (ev):

   -45.1265 -21.8262 -21.7732 -21.7729  -6.3306  -5.8343  -5.6778  -4.3951
    -4.3815  -4.2842  -4.1068  -4.0427   3.3811   6.2957   6.3129   6.7721
     7.4431   7.8347   9.0940   9.2896   9.7271   9.8318

          k = 0.2857 0.2857 0.3815 (  6860 PWs)   bands (ev):

   -45.1261 -21.8522 -21.7719 -21.7717  -6.2010  -5.8645  -5.5601  -4.3782
    -4.3534  -4.2259  -4.0720  -3.9857   3.3691   5.8147   5.9529   6.4454
     7.1047   7.3108   9.0110   9.6268   9.6759   9.8914

          k = 0.2857 0.4286 0.0000 (  6866 PWs)   bands (ev):

   -45.1262 -21.8087 -21.8010 -21.7724  -6.2437  -5.7652  -5.7438  -4.4139
    -4.3592  -4.2494  -4.1121  -4.0934   3.0807   6.1851   6.7340   7.2153
     7.6831   7.9002   8.1485   9.1793   9.8195  10.1296

          k = 0.2857 0.4286 0.1907 (  6836 PWs)   bands (ev):

   -45.1260 -21.8247 -21.8003 -21.7717  -6.1509  -5.7860  -5.7280  -4.3851
    -4.3528  -4.2034  -4.0766  -4.0331   3.2199   6.0935   6.2065   6.4136
     7.1859   7.9483   8.8944   9.3343   9.5384   9.8992

          k = 0.2857 0.4286 0.3815 (  6844 PWs)   bands (ev):

   -45.1256 -21.8506 -21.7989 -21.7705  -6.0935  -5.8112  -5.5994  -4.3564
    -4.3217  -4.1411  -4.0211  -3.9216   3.4387   5.5666   5.7080   6.1275
     6.7353   7.2946   8.2446   9.7489   9.8356  10.0886

          k = 0.4286 0.4286 0.0000 (  6856 PWs)   bands (ev):

   -45.1257 -21.8074 -21.7996 -21.7992  -6.1294  -5.7278  -5.7206  -4.3987
    -4.3128  -4.1783  -4.1302  -4.0293   2.8159   6.0363   6.4407   7.3896
     7.4888   7.8877   8.0624   8.9122   9.4915  10.2767

          k = 0.4286 0.4286 0.1907 (  6848 PWs)   bands (ev):

   -45.1255 -21.8232 -21.7988 -21.7988  -5.9904  -5.7767  -5.7690  -4.3673
    -4.3067  -4.0960  -4.0397  -3.9963   3.0666   5.9871   6.1899   6.2432
     6.6322   7.9150   8.5366   9.2505   9.2701  10.2684

          k = 0.4286 0.4286 0.3815 (  6850 PWs)   bands (ev):

   -45.1251 -21.8491 -21.7975 -21.7975  -5.9019  -5.8573  -5.6819  -4.3164
    -4.3008  -3.9986  -3.9032  -3.8971   3.6342   5.3664   5.4749   5.9102
     6.5500   6.8370   7.1882  10.0776  10.0980  10.2552

     highest occupied level (ev):    10.8529

!    total energy              =    -380.57766496 Ry
     estimated scf accuracy    <          9.5E-09 Ry

     The total energy is the sum of the following terms:
     one-electron contribution =     -79.43370686 Ry
     hartree contribution      =      69.85025571 Ry
     xc contribution           =    -102.68498249 Ry
     ewald contribution        =    -268.30923132 Ry

     convergence has been achieved in  13 iterations

     negative rho (up, down):  1.582E-02 0.000E+00

     Forces acting on atoms (cartesian axes, Ry/au):

     atom    1 type  1   force =     0.00000000    0.00000000    0.00038933
     atom    2 type  2   force =     0.00000000    0.00000000    0.00250871
     atom    3 type  3   force =     0.00000000    0.00000000   -0.00256388
     atom    4 type  3   force =     0.00000000    0.00000000   -0.00016708
     atom    5 type  3   force =     0.00000000    0.00000000   -0.00016708

     Total force =     0.003616     Total SCF correction =     0.000177


     Computing stress (Cartesian axis) and pressure


     negative rho (up, down):  1.582E-02 0.000E+00
          total   stress  (Ry/bohr**3)                   (kbar)     P=        5.34
   0.00003007   0.00000000   0.00000000            4.42        0.00        0.00
   0.00000000   0.00003007   0.00000000            0.00        4.42        0.00
   0.00000000   0.00000000   0.00004874            0.00        0.00        7.17

     Energy error            =      4.4E-05 Ry
     Gradient error          =      2.6E-03 Ry/Bohr

     number of scf cycles    =   3
     number of bfgs steps    =   2

     energy             old  =    -380.5776213386 Ry
     energy             new  =    -380.5776649592 Ry

     CASE: energy            _new < energy            _old


     WARNING: bfgs curvature condition failed, Theta= 0.402
     new trust radius        =       0.0012101676 bohr
     new conv_thr            =            1.0E-10 Ry


ATOMIC_POSITIONS (crystal)
Pb            0.0000000000        0.0000000000        1.0052253765
Ti            0.5000000000        0.5000000000        0.5396423888
O             0.5000000000        0.5000000000        0.0993203473
O             0.5000000000        0.0000000000        0.6115300723
O             0.0000000000        0.5000000000        0.6115661029



 %%%%%%%%%%%%%%%%%%%%%%%%%%%%%%%%%%%%%%%%%%%%%%%%%%%%%%%%%%%%%%%%%%%%%%%%%%%%%%
     Error in routine checkallsym (1):
     some of the original symmetry operations not satisfied
 %%%%%%%%%%%%%%%%%%%%%%%%%%%%%%%%%%%%%%%%%%%%%%%%%%%%%%%%%%%%%%%%%%%%%%%%%%%%%%

     stopping ...
