
     Program PWSCF v.7.0 starts on 11Apr2022 at  9:55: 5 

     This program is part of the open-source Quantum ESPRESSO suite
     for quantum simulation of materials; please cite
         "P. Giannozzi et al., J. Phys.:Condens. Matter 21 395502 (2009);
         "P. Giannozzi et al., J. Phys.:Condens. Matter 29 465901 (2017);
         "P. Giannozzi et al., J. Chem. Phys. 152 154105 (2020);
          URL http://www.quantum-espresso.org", 
     in publications or presentations arising from this work. More details at
     http://www.quantum-espresso.org/quote

     Parallel version (MPI), running on     1 processors

     MPI processes distributed on     1 nodes
     89558 MiB available memory on the printing compute node when the environment starts
 
     Waiting for input...
     Reading input from standard input
Warning: card &CELL ignored
Warning: card  CELL_DYNAMICS = 'BFGS', ignored
Warning: card  PRESS=0.1D0, ignored
Warning: card / ignored

     Current dimensions of program PWSCF are:
     Max number of different atomic species (ntypx) = 10
     Max number of k-points (npk) =  40000
     Max angular momentum in pseudopotentials (lmaxx) =  4
     Message from routine setup:
     using ibrav=0 with symmetry is DISCOURAGED, use correct ibrav instead

     Subspace diagonalization in iterative solution of the eigenvalue problem:
     a serial algorithm will be used

 
     G-vector sticks info
     --------------------
     sticks:   dense  smooth     PW     G-vecs:    dense   smooth      PW
     Sum        1697    1697    481                54917    54917    8221
 
     Using Slab Decomposition
 


     bravais-lattice index     =            0
     lattice parameter (alat)  =       7.3155  a.u.
     unit-cell volume          =     406.4637 (a.u.)^3
     number of atoms/cell      =            5
     number of atomic types    =            3
     number of electrons       =        44.00
     number of Kohn-Sham states=           22
     kinetic-energy cutoff     =     100.0000  Ry
     charge density cutoff     =     400.0000  Ry
     scf convergence threshold =      1.0E-08
     mixing beta               =       0.7000
     number of iterations used =            8  plain     mixing
     energy convergence thresh.=      1.0E-04
     force convergence thresh. =      1.0E-03
     Exchange-correlation= SLA  PZ   NOGX NOGC
                           (   1   1   0   0   0   0   0)
     nstep                     =           50


     celldm(1)=   7.315508  celldm(2)=   0.000000  celldm(3)=   0.000000
     celldm(4)=   0.000000  celldm(5)=   0.000000  celldm(6)=   0.000000

     crystal axes: (cart. coord. in units of alat)
               a(1) = (   1.000000   0.000000   0.000000 )  
               a(2) = (   0.000000   0.996022   0.000000 )  
               a(3) = (   0.000000   0.000000   1.042364 )  

     reciprocal axes: (cart. coord. in units 2 pi/alat)
               b(1) = (  1.000000  0.000000  0.000000 )  
               b(2) = (  0.000000  1.003994  0.000000 )  
               b(3) = (  0.000000  0.000000  0.959358 )  


     PseudoPot. # 1 for Pb read from file:
     ./Pb_LDA.UPF
     MD5 check sum: 062a37469794d955244864f8fe2e5624
     Pseudo is Ultrasoft + core correction, Zval = 14.0
     Generated by new atomic code, or converted to UPF format
     Using radial grid of  899 points,  6 beta functions with: 
                l(1) =   0
                l(2) =   0
                l(3) =   1
                l(4) =   1
                l(5) =   2
                l(6) =   2
     Q(r) pseudized with  6 coefficients,  rinner =    1.000   1.000   1.000
                                                       1.000   1.000

     PseudoPot. # 2 for Ti read from file:
     ./Ti_LDA.UPF
     MD5 check sum: 0d9f225c038fe889ca2a701dcc8d72cb
     Pseudo is Ultrasoft + core correction, Zval = 12.0
     Generated by new atomic code, or converted to UPF format
     Using radial grid of  851 points,  6 beta functions with: 
                l(1) =   0
                l(2) =   0
                l(3) =   1
                l(4) =   1
                l(5) =   2
                l(6) =   2
     Q(r) pseudized with  6 coefficients,  rinner =    1.000   1.000   1.000
                                                       1.000   1.000

     PseudoPot. # 3 for O  read from file:
     ./O_LDA.UPF
     MD5 check sum: 194b818514d2a7dbb603bb78519a4f40
     Pseudo is Ultrasoft + core correction, Zval =  6.0
     Generated by new atomic code, or converted to UPF format
     Using radial grid of  737 points,  5 beta functions with: 
                l(1) =   0
                l(2) =   0
                l(3) =   1
                l(4) =   1
                l(5) =   2
     Q(r) pseudized with  8 coefficients,  rinner =    0.900   0.900   0.900
                                                       0.900   0.900

     atomic species   valence    mass     pseudopotential
        Pb            14.00   207.20000     Pb( 1.00)
        Ti            12.00    47.88000     Ti( 1.00)
        O              6.00    16.00000     O ( 1.00)

      4 Sym. Ops. (no inversion) found



   Cartesian axes

     site n.     atom                  positions (alat units)
         1           Pb  tau(   1) = (   0.0000000   0.0000000   1.0477744  )
         2           Ti  tau(   2) = (   0.5000000   0.4980110   0.5623684  )
         3           O   tau(   3) = (   0.5000000   0.4980110   0.1036931  )
         4           O   tau(   4) = (   0.5000000   0.0000000   0.6374592  )
         5           O   tau(   5) = (   0.0000000   0.4980110   0.6374592  )

     number of k points=    48
                       cart. coord. in units 2pi/alat
        k(    1) = (   0.0000000   0.0000000   0.0000000), wk =   0.0081633
        k(    2) = (   0.0000000   0.0000000   0.1918715), wk =   0.0163265
        k(    3) = (   0.0000000   0.0000000   0.3837431), wk =   0.0163265
        k(    4) = (   0.0000000   0.1434277   0.0000000), wk =   0.0163265
        k(    5) = (   0.0000000   0.1434277   0.1918715), wk =   0.0326531
        k(    6) = (   0.0000000   0.1434277   0.3837431), wk =   0.0326531
        k(    7) = (   0.0000000   0.2868554   0.0000000), wk =   0.0163265
        k(    8) = (   0.0000000   0.2868554   0.1918715), wk =   0.0326531
        k(    9) = (   0.0000000   0.2868554   0.3837431), wk =   0.0326531
        k(   10) = (   0.0000000   0.4302831   0.0000000), wk =   0.0163265
        k(   11) = (   0.0000000   0.4302831   0.1918715), wk =   0.0326531
        k(   12) = (   0.0000000   0.4302831   0.3837431), wk =   0.0326531
        k(   13) = (   0.1428571   0.0000000   0.0000000), wk =   0.0163265
        k(   14) = (   0.1428571   0.0000000   0.1918715), wk =   0.0326531
        k(   15) = (   0.1428571   0.0000000   0.3837431), wk =   0.0326531
        k(   16) = (   0.1428571   0.1434277   0.0000000), wk =   0.0326531
        k(   17) = (   0.1428571   0.1434277   0.1918715), wk =   0.0653061
        k(   18) = (   0.1428571   0.1434277   0.3837431), wk =   0.0653061
        k(   19) = (   0.1428571   0.2868554   0.0000000), wk =   0.0326531
        k(   20) = (   0.1428571   0.2868554   0.1918715), wk =   0.0653061
        k(   21) = (   0.1428571   0.2868554   0.3837431), wk =   0.0653061
        k(   22) = (   0.1428571   0.4302831   0.0000000), wk =   0.0326531
        k(   23) = (   0.1428571   0.4302831   0.1918715), wk =   0.0653061
        k(   24) = (   0.1428571   0.4302831   0.3837431), wk =   0.0653061
        k(   25) = (   0.2857143   0.0000000   0.0000000), wk =   0.0163265
        k(   26) = (   0.2857143   0.0000000   0.1918715), wk =   0.0326531
        k(   27) = (   0.2857143   0.0000000   0.3837431), wk =   0.0326531
        k(   28) = (   0.2857143   0.1434277   0.0000000), wk =   0.0326531
        k(   29) = (   0.2857143   0.1434277   0.1918715), wk =   0.0653061
        k(   30) = (   0.2857143   0.1434277   0.3837431), wk =   0.0653061
        k(   31) = (   0.2857143   0.2868554   0.0000000), wk =   0.0326531
        k(   32) = (   0.2857143   0.2868554   0.1918715), wk =   0.0653061
        k(   33) = (   0.2857143   0.2868554   0.3837431), wk =   0.0653061
        k(   34) = (   0.2857143   0.4302831   0.0000000), wk =   0.0326531
        k(   35) = (   0.2857143   0.4302831   0.1918715), wk =   0.0653061
        k(   36) = (   0.2857143   0.4302831   0.3837431), wk =   0.0653061
        k(   37) = (   0.4285714   0.0000000   0.0000000), wk =   0.0163265
        k(   38) = (   0.4285714   0.0000000   0.1918715), wk =   0.0326531
        k(   39) = (   0.4285714   0.0000000   0.3837431), wk =   0.0326531
        k(   40) = (   0.4285714   0.1434277   0.0000000), wk =   0.0326531
        k(   41) = (   0.4285714   0.1434277   0.1918715), wk =   0.0653061
        k(   42) = (   0.4285714   0.1434277   0.3837431), wk =   0.0653061
        k(   43) = (   0.4285714   0.2868554   0.0000000), wk =   0.0326531
        k(   44) = (   0.4285714   0.2868554   0.1918715), wk =   0.0653061
        k(   45) = (   0.4285714   0.2868554   0.3837431), wk =   0.0653061
        k(   46) = (   0.4285714   0.4302831   0.0000000), wk =   0.0326531
        k(   47) = (   0.4285714   0.4302831   0.1918715), wk =   0.0653061
        k(   48) = (   0.4285714   0.4302831   0.3837431), wk =   0.0653061

     Dense  grid:    54917 G-vectors     FFT dimensions: (  48,  48,  50)

     Estimated max dynamical RAM per process >     328.11 MB

     Check: negative core charge=   -0.000003

     Initial potential from superposition of free atoms

     starting charge      42.9982, renormalised to      44.0000

     negative rho (up, down):  1.706E-02 0.000E+00
     Starting wfcs are   31 randomized atomic wfcs

     total cpu time spent up to now is       18.5 secs

     Self-consistent Calculation

     iteration #  1     ecut=   100.00 Ry     beta= 0.70
     CG style diagonalization
     ethr =  1.00E-02,  avg # of iterations =  2.2

     negative rho (up, down):  1.435E-02 0.000E+00

     total cpu time spent up to now is       52.4 secs

     total energy              =    -380.06101010 Ry
     estimated scf accuracy    <       1.02612122 Ry

     iteration #  2     ecut=   100.00 Ry     beta= 0.70
     CG style diagonalization
     ethr =  2.33E-03,  avg # of iterations =  4.9

     negative rho (up, down):  1.505E-02 0.000E+00

     total cpu time spent up to now is      115.5 secs

     total energy              =    -379.76873131 Ry
     estimated scf accuracy    <       3.87578781 Ry

     iteration #  3     ecut=   100.00 Ry     beta= 0.70
     CG style diagonalization
     ethr =  2.33E-03,  avg # of iterations =  4.5

     negative rho (up, down):  1.564E-02 0.000E+00

     total cpu time spent up to now is      173.3 secs

     total energy              =    -380.54694449 Ry
     estimated scf accuracy    <       0.25169260 Ry

     iteration #  4     ecut=   100.00 Ry     beta= 0.70
     CG style diagonalization
     ethr =  5.72E-04,  avg # of iterations =  3.4

     negative rho (up, down):  1.568E-02 0.000E+00

     total cpu time spent up to now is      217.4 secs

     total energy              =    -380.56083621 Ry
     estimated scf accuracy    <       0.05169683 Ry

     iteration #  5     ecut=   100.00 Ry     beta= 0.70
     CG style diagonalization
     ethr =  1.17E-04,  avg # of iterations =  3.8

     negative rho (up, down):  1.568E-02 0.000E+00

     total cpu time spent up to now is      266.7 secs

     total energy              =    -380.57600200 Ry
     estimated scf accuracy    <       0.00478057 Ry

     iteration #  6     ecut=   100.00 Ry     beta= 0.70
     CG style diagonalization
     ethr =  1.09E-05,  avg # of iterations =  4.1

     negative rho (up, down):  1.567E-02 0.000E+00

     total cpu time spent up to now is      319.9 secs

     total energy              =    -380.57751149 Ry
     estimated scf accuracy    <       0.00699573 Ry

     iteration #  7     ecut=   100.00 Ry     beta= 0.70
     CG style diagonalization
     ethr =  1.09E-05,  avg # of iterations =  3.2

     negative rho (up, down):  1.568E-02 0.000E+00

     total cpu time spent up to now is      361.7 secs

     total energy              =    -380.57706068 Ry
     estimated scf accuracy    <       0.00257307 Ry

     iteration #  8     ecut=   100.00 Ry     beta= 0.70
     CG style diagonalization
     ethr =  5.85E-06,  avg # of iterations =  3.6

     negative rho (up, down):  1.570E-02 0.000E+00

     total cpu time spent up to now is      407.7 secs

     total energy              =    -380.57755874 Ry
     estimated scf accuracy    <       0.00000744 Ry

     iteration #  9     ecut=   100.00 Ry     beta= 0.70
     CG style diagonalization
     c_bands:  1 eigenvalues not converged
     c_bands:  1 eigenvalues not converged
     c_bands:  1 eigenvalues not converged
     c_bands:  1 eigenvalues not converged
     ethr =  1.69E-08,  avg # of iterations =  8.6

     negative rho (up, down):  1.573E-02 0.000E+00

     total cpu time spent up to now is      516.2 secs

     total energy              =    -380.57761707 Ry
     estimated scf accuracy    <       0.00001878 Ry

     iteration # 10     ecut=   100.00 Ry     beta= 0.70
     CG style diagonalization
     ethr =  1.69E-08,  avg # of iterations =  3.8

     negative rho (up, down):  1.577E-02 0.000E+00

     total cpu time spent up to now is      564.9 secs

     total energy              =    -380.57761733 Ry
     estimated scf accuracy    <       0.00000726 Ry

     iteration # 11     ecut=   100.00 Ry     beta= 0.70
     CG style diagonalization
     ethr =  1.65E-08,  avg # of iterations =  3.1

     negative rho (up, down):  1.582E-02 0.000E+00

     total cpu time spent up to now is      604.6 secs

     total energy              =    -380.57761560 Ry
     estimated scf accuracy    <       0.00000513 Ry

     iteration # 12     ecut=   100.00 Ry     beta= 0.70
     CG style diagonalization
     ethr =  1.17E-08,  avg # of iterations =  3.9

     negative rho (up, down):  1.582E-02 0.000E+00

     total cpu time spent up to now is      654.6 secs

     total energy              =    -380.57761691 Ry
     estimated scf accuracy    <       0.00000035 Ry

     iteration # 13     ecut=   100.00 Ry     beta= 0.70
     CG style diagonalization
     ethr =  7.92E-10,  avg # of iterations =  7.7

     negative rho (up, down):  1.582E-02 0.000E+00

     total cpu time spent up to now is      752.8 secs

     total energy              =    -380.57761780 Ry
     estimated scf accuracy    <       0.00000003 Ry

     iteration # 14     ecut=   100.00 Ry     beta= 0.70
     CG style diagonalization
     c_bands:  1 eigenvalues not converged
     ethr =  6.27E-11,  avg # of iterations =  8.6

     negative rho (up, down):  1.583E-02 0.000E+00

     total cpu time spent up to now is      861.6 secs

     total energy              =    -380.57761793 Ry
     estimated scf accuracy    <       0.00000002 Ry

     iteration # 15     ecut=   100.00 Ry     beta= 0.70
     CG style diagonalization
     ethr =  4.26E-11,  avg # of iterations =  4.5

     negative rho (up, down):  1.583E-02 0.000E+00

     total cpu time spent up to now is      920.1 secs

     total energy              =    -380.57761793 Ry
     estimated scf accuracy    <       0.00000001 Ry

     iteration # 16     ecut=   100.00 Ry     beta= 0.70
     CG style diagonalization
     ethr =  2.83E-11,  avg # of iterations =  3.7

     negative rho (up, down):  1.583E-02 0.000E+00

     total cpu time spent up to now is      966.8 secs

     End of self-consistent calculation

          k = 0.0000 0.0000 0.0000 (  6861 PWs)   bands (ev):

   -45.1651 -21.8535 -21.7622 -21.7582  -7.1600  -6.0074  -5.7615  -4.4151
    -4.4139  -4.3768  -4.2643  -4.1345   4.8532   6.7092   6.7404   7.1286
     8.7044   8.7114   8.9665   9.2888   9.4317   9.4385

          k = 0.0000 0.0000 0.1919 (  6860 PWs)   bands (ev):

   -45.1648 -21.8706 -21.7615 -21.7575  -7.0141  -5.9641  -5.7101  -4.4279
    -4.4267  -4.3757  -4.2542  -4.1884   4.2006   6.7516   6.7789   7.4196
     8.5090   8.5211   8.9055   9.1800   9.5245   9.5285

          k = 0.0000 0.0000 0.3837 (  6862 PWs)   bands (ev):

   -45.1644 -21.8979 -21.7604 -21.7564  -6.7606  -5.8878  -5.6320  -4.4484
    -4.4473  -4.3740  -4.2821  -4.2386   3.5293   6.7212   6.7996   6.8186
     8.3023   8.3259   8.8111   9.6201   9.6217  10.3494

          k = 0.0000 0.1434 0.0000 (  6869 PWs)   bands (ev):

   -45.1648 -21.8529 -21.7775 -21.7575  -7.0512  -5.9814  -5.7388  -4.4329
    -4.4139  -4.3880  -4.2657  -4.1256   4.4627   6.7921   6.8049   7.1906
     8.6398   8.7183   8.9654   9.1483   9.1817   9.5504

          k = 0.0000 0.1434 0.1919 (  6875 PWs)   bands (ev):

   -45.1645 -21.8698 -21.7768 -21.7568  -6.9125  -5.9470  -5.6855  -4.4356
    -4.4270  -4.3872  -4.2590  -4.1595   3.9843   6.6666   6.8405   7.4680
     8.2666   8.4989   8.8887   9.0912   9.2665   9.7427

          k = 0.0000 0.1434 0.3837 (  6878 PWs)   bands (ev):

   -45.1641 -21.8971 -21.7756 -21.7557  -6.6784  -5.8865  -5.5976  -4.4480
    -4.4376  -4.3860  -4.2568  -4.2120   3.4129   6.3893   6.8946   7.0672
     8.0163   8.2953   8.9724   9.1305   9.3674  10.4538

          k = 0.0000 0.2869 0.0000 (  6863 PWs)   bands (ev):

   -45.1641 -21.8514 -21.8118 -21.7561  -6.7901  -5.9216  -5.6959  -4.4665
    -4.4133  -4.4108  -4.2623  -4.1247   3.8716   6.6323   7.0137   7.0505
     8.5112   8.5251   8.8417   8.8514   9.2628   9.8988

          k = 0.0000 0.2869 0.1919 (  6870 PWs)   bands (ev):

   -45.1638 -21.8682 -21.8110 -21.7554  -6.6800  -5.8981  -5.6339  -4.4477
    -4.4251  -4.4128  -4.2555  -4.1202   3.5827   6.4793   7.0795   7.1153
     8.0702   8.3342   8.5189   8.9232   9.2716  10.1450

          k = 0.0000 0.2869 0.3837 (  6874 PWs)   bands (ev):

   -45.1634 -21.8950 -21.8096 -21.7542  -6.5229  -5.8410  -5.5112  -4.4471
    -4.4128  -4.4106  -4.2775  -4.0919   3.1764   6.1225   6.9405   7.1453
     7.7180   8.0229   8.1941   8.9887   9.6610  10.2582

          k = 0.0000 0.4303 0.0000 (  6834 PWs)   bands (ev):

   -45.1636 -21.8501 -21.8392 -21.7549  -6.5585  -5.8575  -5.6894  -4.4889
    -4.4328  -4.4090  -4.2353  -4.1573   3.5442   6.1293   7.2878   7.2975
     7.9855   8.0495   8.7447   8.8756   9.3187  10.8111

          k = 0.0000 0.4303 0.1919 (  6838 PWs)   bands (ev):

   -45.1633 -21.8666 -21.8383 -21.7542  -6.4974  -5.8137  -5.6218  -4.4628
    -4.4333  -4.4233  -4.2140  -4.1265   3.3334   6.1082   7.1264   7.3987
     7.4851   7.9335   8.6527   8.8711   9.2644  10.5610

          k = 0.0000 0.4303 0.3837 (  6872 PWs)   bands (ev):

   -45.1629 -21.8933 -21.8367 -21.7530  -6.4463  -5.7258  -5.4497  -4.4464
    -4.4341  -4.4138  -4.2626  -4.0142   3.0208   5.9350   6.5676   7.3672
     7.4785   7.8843   7.8956   8.8668   9.8280  10.1209

          k = 0.1429 0.0000 0.0000 (  6881 PWs)   bands (ev):

   -45.1648 -21.8529 -21.7728 -21.7616  -7.0540  -5.9826  -5.7394  -4.4340
    -4.4127  -4.3876  -4.2658  -4.1266   4.4612   6.7875   6.8228   7.1933
     8.6316   8.7271   8.9621   9.1451   9.1852   9.5510

          k = 0.1429 0.0000 0.1919 (  6882 PWs)   bands (ev):

   -45.1645 -21.8699 -21.7721 -21.7609  -6.9156  -5.9477  -5.6859  -4.4366
    -4.4259  -4.3868  -4.2579  -4.1623   3.9820   6.6502   6.8671   7.4723
     8.2674   8.5111   8.8874   9.0819   9.2677   9.7409

          k = 0.1429 0.0000 0.3837 (  6884 PWs)   bands (ev):

   -45.1641 -21.8971 -21.7709 -21.7597  -6.6821  -5.8858  -5.5978  -4.4469
    -4.4381  -4.3856  -4.2541  -4.2181   3.4098   6.3784   6.9124   7.0702
     8.0080   8.3189   8.9780   9.1176   9.3714  10.4554

          k = 0.1429 0.1434 0.0000 (  6853 PWs)   bands (ev):

   -45.1645 -21.8523 -21.7769 -21.7721  -6.9467  -5.9558  -5.7285  -4.4379
    -4.4270  -4.3940  -4.2505  -4.1182   4.1807   6.7286   6.9365   7.2530
     8.2891   8.5044   8.9905   9.0527   9.3976   9.6897

          k = 0.1429 0.1434 0.1919 (  6875 PWs)   bands (ev):

   -45.1642 -21.8691 -21.7762 -21.7714  -6.8136  -5.9310  -5.6756  -4.4420
    -4.4280  -4.3926  -4.2421  -4.1384   3.8361   6.6169   6.6976   7.4824
     8.1502   8.2685   8.8107   9.1608   9.4290   9.7551

          k = 0.1429 0.1434 0.3837 (  6875 PWs)   bands (ev):

   -45.1638 -21.8963 -21.7749 -21.7702  -6.5945  -5.8894  -5.5817  -4.4617
    -4.4023  -4.3873  -4.2396  -4.1770   3.3591   6.4222   6.4344   7.1540
     8.0585   8.0678   8.7297   9.2323   9.4686  10.3238

          k = 0.1429 0.2869 0.0000 (  6861 PWs)   bands (ev):

   -45.1638 -21.8508 -21.8111 -21.7706  -6.6906  -5.8958  -5.7126  -4.4665
    -4.4212  -4.3917  -4.2312  -4.1172   3.6891   6.5939   6.9982   7.1614
     7.9283   8.2884   8.7603   9.1396   9.3767  10.0889

          k = 0.1429 0.2869 0.1919 (  6865 PWs)   bands (ev):

   -45.1636 -21.8675 -21.8103 -21.7699  -6.5804  -5.8866  -5.6569  -4.4502
    -4.4279  -4.3816  -4.2182  -4.1028   3.5250   6.4395   6.5892   7.1864
     7.7002   8.1946   8.8340   9.1180   9.3708  10.0634

          k = 0.1429 0.2869 0.3837 (  6873 PWs)   bands (ev):

   -45.1632 -21.8943 -21.8089 -21.7686  -6.4264  -5.8609  -5.5379  -4.4499
    -4.4090  -4.3472  -4.2263  -4.0709   3.2338   6.0669   6.4812   6.8240
     7.2670   8.0069   8.8505   9.1590   9.6738   9.9669

          k = 0.1429 0.4303 0.0000 (  6842 PWs)   bands (ev):

   -45.1633 -21.8494 -21.8384 -21.7694  -6.4653  -5.8344  -5.7261  -4.4772
    -4.4122  -4.3786  -4.2100  -4.1494   3.3901   6.1411   7.0748   7.4883
     7.5222   8.1196   8.4827   9.1312   9.4183  10.6243

          k = 0.1429 0.4303 0.1919 (  6853 PWs)   bands (ev):

   -45.1630 -21.8659 -21.8375 -21.7686  -6.3978  -5.8110  -5.6701  -4.4544
    -4.4160  -4.3662  -4.1844  -4.1076   3.3094   6.1116   6.5105   6.9965
     7.5529   8.3270   8.4953   9.1254   9.3926  10.2392

          k = 0.1429 0.4303 0.3837 (  6859 PWs)   bands (ev):

   -45.1627 -21.8926 -21.8360 -21.7674  -6.3462  -5.7607  -5.5115  -4.4442
    -4.3855  -4.3412  -4.2064  -3.9952   3.1384   5.9015   6.3168   6.5198
     6.8754   8.1496   8.8103   8.9830   9.4188  10.0557

          k = 0.2857 0.0000 0.0000 (  6853 PWs)   bands (ev):

   -45.1641 -21.8515 -21.8056 -21.7602  -6.7993  -5.9256  -5.6980  -4.4675
    -4.4121  -4.4097  -4.2640  -4.1270   3.8716   6.6424   7.0440   7.0534
     8.5170   8.5253   8.8389   8.8473   9.2641   9.8954

          k = 0.2857 0.0000 0.1919 (  6871 PWs)   bands (ev):

   -45.1639 -21.8682 -21.8047 -21.7595  -6.6897  -5.9005  -5.6357  -4.4489
    -4.4240  -4.4116  -4.2548  -4.1265   3.5784   6.4816   7.1055   7.1255
     8.0734   8.3469   8.5272   8.9296   9.2622  10.1359

          k = 0.2857 0.0000 0.3837 (  6884 PWs)   bands (ev):

   -45.1635 -21.8952 -21.8033 -21.7583  -6.5333  -5.8406  -5.5127  -4.4461
    -4.4117  -4.4116  -4.2760  -4.1022   3.1676   6.1173   6.9504   7.1605
     7.7339   8.0330   8.2176   9.0001   9.6400  10.2715

          k = 0.2857 0.1434 0.0000 (  6854 PWs)   bands (ev):

   -45.1639 -21.8508 -21.8048 -21.7754  -6.6969  -5.8988  -5.7141  -4.4668
    -4.4210  -4.3914  -4.2321  -4.1185   3.6898   6.6060   7.0101   7.1675
     7.9241   8.2879   8.7567   9.1523   9.3763  10.0835

          k = 0.2857 0.1434 0.1919 (  6867 PWs)   bands (ev):

   -45.1636 -21.8675 -21.8040 -21.7747  -6.5870  -5.8884  -5.6582  -4.4505
    -4.4277  -4.3813  -4.2172  -4.1073   3.5226   6.4427   6.6015   7.1912
     7.7001   8.2052   8.8471   9.1235   9.3669  10.0545

          k = 0.2857 0.1434 0.3837 (  6870 PWs)   bands (ev):

   -45.1632 -21.8944 -21.8026 -21.7735  -6.4333  -5.8610  -5.5389  -4.4502
    -4.4088  -4.3468  -4.2234  -4.0794   3.2276   6.0623   6.4920   6.8272
     7.2797   8.0172   8.8644   9.1753   9.6556   9.9760

          k = 0.2857 0.2869 0.0000 (  6855 PWs)   bands (ev):

   -45.1632 -21.8493 -21.8094 -21.8030  -6.4616  -5.8390  -5.7476  -4.4578
    -4.4170  -4.3483  -4.1740  -4.1156   3.3146   6.5918   6.6951   7.3752
     7.5216   7.8053   8.5937   9.1408   9.6647  10.1640

          k = 0.2857 0.2869 0.1919 (  6860 PWs)   bands (ev):

   -45.1630 -21.8659 -21.8086 -21.8023  -6.3540  -5.8582  -5.7073  -4.4313
    -4.4178  -4.3211  -4.1470  -4.0771   3.3530   6.2747   6.2984   6.7460
     7.4204   7.8070   9.0687   9.2680   9.6924   9.7912

          k = 0.2857 0.2869 0.3837 (  6870 PWs)   bands (ev):

   -45.1626 -21.8925 -21.8073 -21.8010  -6.2215  -5.8886  -5.5877  -4.4147
    -4.3893  -4.2627  -4.1107  -4.0196   3.3458   5.7918   5.9322   6.4083
     7.0747   7.2902   8.9640   9.5971   9.6449   9.8602

          k = 0.2857 0.4303 0.0000 (  6877 PWs)   bands (ev):

   -45.1627 -21.8480 -21.8366 -21.8016  -6.2717  -5.7898  -5.7690  -4.4507
    -4.3956  -4.2854  -4.1514  -4.1318   3.0483   6.1544   6.7274   7.1981
     7.6675   7.8734   8.1347   9.1509   9.7674  10.1131

          k = 0.2857 0.4303 0.1919 (  6849 PWs)   bands (ev):

   -45.1624 -21.8644 -21.8358 -21.8009  -6.1752  -5.8098  -5.7560  -4.4217
    -4.3891  -4.2409  -4.1168  -4.0673   3.1910   6.0673   6.1857   6.3993
     7.1656   7.9157   8.8680   9.3097   9.5045   9.8642

          k = 0.2857 0.4303 0.3837 (  6859 PWs)   bands (ev):

   -45.1620 -21.8909 -21.8344 -21.7997  -6.1163  -5.8337  -5.6266  -4.3932
    -4.3572  -4.1803  -4.0611  -3.9515   3.4176   5.5454   5.6887   6.0966
     6.6965   7.2731   8.1989   9.7090   9.7950  10.0664

          k = 0.4286 0.0000 0.0000 (  6830 PWs)   bands (ev):

   -45.1636 -21.8502 -21.8318 -21.7591  -6.5730  -5.8651  -5.6917  -4.4900
    -4.4309  -4.4079  -4.2408  -4.1580   3.5457   6.1559   7.3040   7.3217
     7.9769   8.0593   8.7448   8.8753   9.3200  10.7967

          k = 0.4286 0.0000 0.1919 (  6858 PWs)   bands (ev):

   -45.1634 -21.8668 -21.8308 -21.7584  -6.5115  -5.8199  -5.6236  -4.4640
    -4.4314  -4.4223  -4.2142  -4.1354   3.3284   6.1319   7.1317   7.4290
     7.4916   7.9426   8.6588   8.8782   9.2616  10.5542

          k = 0.4286 0.0000 0.3837 (  6870 PWs)   bands (ev):

   -45.1630 -21.8935 -21.8292 -21.7572  -6.4584  -5.7305  -5.4516  -4.4455
    -4.4322  -4.4150  -4.2627  -4.0276   3.0076   5.9411   6.5850   7.3842
     7.4884   7.9073   7.9109   8.8813   9.8387  10.1203

          k = 0.4286 0.1434 0.0000 (  6855 PWs)   bands (ev):

   -45.1634 -21.8495 -21.8310 -21.7742  -6.4763  -5.8411  -5.7280  -4.4777
    -4.4120  -4.3781  -4.2141  -4.1494   3.3923   6.1689   7.0867   7.5005
     7.5163   8.1169   8.4835   9.1448   9.4222  10.6087

          k = 0.4286 0.1434 0.1919 (  6866 PWs)   bands (ev):

   -45.1631 -21.8661 -21.8300 -21.7735  -6.4084  -5.8169  -5.6715  -4.4549
    -4.4161  -4.3655  -4.1831  -4.1156   3.3062   6.1359   6.5232   6.9910
     7.5524   8.3445   8.5144   9.1318   9.3927  10.2327

          k = 0.4286 0.1434 0.3837 (  6862 PWs)   bands (ev):

   -45.1627 -21.8927 -21.8284 -21.7723  -6.3546  -5.7661  -5.5128  -4.4445
    -4.3859  -4.3406  -4.2035  -4.0081   3.1273   5.9050   6.3308   6.5372
     6.8778   8.1573   8.8459   8.9975   9.4301  10.0459

          k = 0.4286 0.2869 0.0000 (  6884 PWs)   bands (ev):

   -45.1627 -21.8480 -21.8290 -21.8080  -6.2753  -5.7917  -5.7725  -4.4506
    -4.3959  -4.2877  -4.1474  -4.1355   3.0500   6.1838   6.7070   7.2000
     7.6769   7.8723   8.1326   9.1528   9.7991  10.0845

          k = 0.4286 0.2869 0.1919 (  6845 PWs)   bands (ev):

   -45.1625 -21.8645 -21.8282 -21.8073  -6.1781  -5.8137  -5.7572  -4.4213
    -4.3900  -4.2423  -4.1117  -4.0738   3.1907   6.0880   6.1929   6.3872
     7.1612   7.9156   8.8898   9.3103   9.5023   9.8666

          k = 0.4286 0.2869 0.3837 (  6854 PWs)   bands (ev):

   -45.1621 -21.8910 -21.8267 -21.8061  -6.1162  -5.8403  -5.6269  -4.3925
    -4.3589  -4.1808  -4.0537  -3.9625   3.4123   5.5523   5.6806   6.1094
     6.7103   7.2631   8.2144   9.7226   9.8082  10.0571

          k = 0.4286 0.4303 0.0000 (  6872 PWs)   bands (ev):

   -45.1622 -21.8466 -21.8351 -21.8274  -6.1629  -5.7542  -5.7449  -4.4358
    -4.3504  -4.2151  -4.1663  -4.0738   2.7836   6.0167   6.4322   7.3700
     7.4653   7.8747   8.0507   8.8847   9.4746  10.2401

          k = 0.4286 0.4303 0.1919 (  6864 PWs)   bands (ev):

   -45.1619 -21.8630 -21.8344 -21.8267  -6.0205  -5.8037  -5.7942  -4.4040
    -4.3444  -4.1336  -4.0752  -4.0390   3.0365   5.9678   6.1734   6.2229
     6.6180   7.8800   8.5187   9.2326   9.2503  10.2313

          k = 0.4286 0.4303 0.3837 (  6860 PWs)   bands (ev):

   -45.1615 -21.8895 -21.8331 -21.8254  -5.9282  -5.8834  -5.7082  -4.3527
    -4.3385  -4.0403  -3.9429  -3.9291   3.6102   5.3461   5.4517   5.8859
     6.5398   6.7964   7.1579  10.0494  10.0727  10.2180

     highest occupied level (ev):    10.8111

!    total energy              =    -380.57761793 Ry
     estimated scf accuracy    <          5.1E-09 Ry

     The total energy is the sum of the following terms:
     one-electron contribution =     -79.66637523 Ry
     hartree contribution      =      69.91228128 Ry
     xc contribution           =    -102.67748158 Ry
     ewald contribution        =    -268.14604240 Ry

     convergence has been achieved in  16 iterations

     negative rho (up, down):  1.583E-02 0.000E+00

     Forces acting on atoms (cartesian axes, Ry/au):

     atom    1 type  1   force =     0.00000000    0.00000000   -0.00032478
     atom    2 type  2   force =     0.00000000    0.00000000    0.00525487
     atom    3 type  3   force =     0.00000000    0.00000000   -0.00430131
     atom    4 type  3   force =     0.00000000    0.00000000    0.00009555
     atom    5 type  3   force =     0.00000000    0.00000000   -0.00072434

     Total force =     0.006838     Total SCF correction =     0.000343


     Computing stress (Cartesian axis) and pressure


     negative rho (up, down):  1.583E-02 0.000E+00
          total   stress  (Ry/bohr**3)                   (kbar)     P=        1.50
  -0.00003863   0.00000000   0.00000000           -5.68        0.00        0.00
   0.00000000   0.00001174   0.00000000            0.00        1.73        0.00
   0.00000000   0.00000000   0.00005747            0.00        0.00        8.45

     Energy error            =      3.7E-05 Ry
     Gradient error          =      5.3E-03 Ry/Bohr

     number of scf cycles    =   3
     number of bfgs steps    =   2

     energy             old  =    -380.5775806522 Ry
     energy             new  =    -380.5776179309 Ry

     CASE: energy            _new < energy            _old


     WARNING: bfgs curvature condition failed, Theta= 0.317
     new trust radius        =       0.0019796561 bohr
     new conv_thr            =            1.0E-10 Ry


ATOMIC_POSITIONS (crystal)
Pb            0.0000000000        0.0000000000        1.0049435763
Ti            0.5000000000        0.5000000000        0.5397720021
O             0.5000000000        0.5000000000        0.0995801381
O             0.5000000000        0.0000000000        0.6116080164
O             0.0000000000        0.5000000000        0.6113805549



     Writing config-only to output data dir ./PTO2.save/
     NEW-OLD atomic charge density approx. for the potential

     Check: negative core charge=   -0.000003

     negative rho (up, down):  1.587E-02 0.000E+00

     total cpu time spent up to now is      994.6 secs

     Self-consistent Calculation

     iteration #  1     ecut=   100.00 Ry     beta= 0.70
     CG style diagonalization
     ethr =  1.00E-06,  avg # of iterations =  3.2

     Threshold (ethr) on eigenvalues was too large:
     Diagonalizing with lowered threshold

     CG style diagonalization
     c_bands:  1 eigenvalues not converged
     c_bands:  1 eigenvalues not converged
     c_bands:  1 eigenvalues not converged
     c_bands:  1 eigenvalues not converged
     c_bands:  1 eigenvalues not converged
     c_bands:  2 eigenvalues not converged
     ethr =  7.30E-09,  avg # of iterations =  6.6

     negative rho (up, down):  1.586E-02 0.000E+00

     total cpu time spent up to now is     1129.4 secs

     total energy              =    -380.57762397 Ry
     estimated scf accuracy    <       0.00000061 Ry

     iteration #  2     ecut=   100.00 Ry     beta= 0.70
     CG style diagonalization
     ethr =  1.39E-09,  avg # of iterations =  5.0

     negative rho (up, down):  1.586E-02 0.000E+00

     total cpu time spent up to now is     1192.6 secs

     total energy              =    -380.57762417 Ry
     estimated scf accuracy    <       0.00000092 Ry

     iteration #  3     ecut=   100.00 Ry     beta= 0.70
     CG style diagonalization
     ethr =  1.39E-09,  avg # of iterations =  4.2

     negative rho (up, down):  1.586E-02 0.000E+00

     total cpu time spent up to now is     1246.6 secs

     total energy              =    -380.57762439 Ry
     estimated scf accuracy    <       0.00000010 Ry

     iteration #  4     ecut=   100.00 Ry     beta= 0.70
     CG style diagonalization
     ethr =  2.21E-10,  avg # of iterations =  3.8

     negative rho (up, down):  1.586E-02 0.000E+00

     total cpu time spent up to now is     1294.6 secs

     total energy              =    -380.57762441 Ry
     estimated scf accuracy    <       0.00000001 Ry

     iteration #  5     ecut=   100.00 Ry     beta= 0.70
     CG style diagonalization
     ethr =  2.38E-11,  avg # of iterations =  4.9

     negative rho (up, down):  1.586E-02 0.000E+00

     total cpu time spent up to now is     1357.3 secs

     total energy              =    -380.57762442 Ry
     estimated scf accuracy    <          1.9E-09 Ry

     iteration #  6     ecut=   100.00 Ry     beta= 0.70
     CG style diagonalization
     ethr =  4.42E-12,  avg # of iterations =  5.2

     negative rho (up, down):  1.586E-02 0.000E+00

     total cpu time spent up to now is     1423.2 secs

     total energy              =    -380.57762442 Ry
     estimated scf accuracy    <          1.1E-09 Ry

     iteration #  7     ecut=   100.00 Ry     beta= 0.70
     CG style diagonalization
     ethr =  2.43E-12,  avg # of iterations =  4.4

     negative rho (up, down):  1.586E-02 0.000E+00

     total cpu time spent up to now is     1478.1 secs

     total energy              =    -380.57762442 Ry
     estimated scf accuracy    <          1.7E-10 Ry

     iteration #  8     ecut=   100.00 Ry     beta= 0.70
     CG style diagonalization
     ethr =  3.91E-13,  avg # of iterations =  6.6

     negative rho (up, down):  1.586E-02 0.000E+00

     total cpu time spent up to now is     1562.1 secs

     End of self-consistent calculation

          k = 0.0000 0.0000 0.0000 (  6861 PWs)   bands (ev):

   -45.1665 -21.8538 -21.7639 -21.7600  -7.1614  -6.0104  -5.7608  -4.4148
    -4.4135  -4.3762  -4.2643  -4.1338   4.8525   6.7086   6.7396   7.1308
     8.7095   8.7159   8.9665   9.2912   9.4294   9.4370

          k = 0.0000 0.0000 0.1919 (  6860 PWs)   bands (ev):

   -45.1662 -21.8709 -21.7632 -21.7593  -7.0159  -5.9672  -5.7091  -4.4275
    -4.4263  -4.3751  -4.2540  -4.1876   4.2010   6.7520   6.7788   7.4211
     8.5119   8.5236   8.9055   9.1810   9.5225   9.5266

          k = 0.0000 0.0000 0.3837 (  6862 PWs)   bands (ev):

   -45.1658 -21.8983 -21.7621 -21.7582  -6.7633  -5.8911  -5.6304  -4.4480
    -4.4469  -4.3734  -4.2811  -4.2383   3.5307   6.7219   6.8022   6.8201
     8.3018   8.3257   8.8111   9.6180   9.6192  10.3487

          k = 0.0000 0.1434 0.0000 (  6869 PWs)   bands (ev):

   -45.1662 -21.8532 -21.7792 -21.7593  -7.0526  -5.9844  -5.7382  -4.4325
    -4.4136  -4.3874  -4.2655  -4.1249   4.4625   6.7913   6.8037   7.1922
     8.6421   8.7230   8.9654   9.1474   9.1824   9.5509

          k = 0.0000 0.1434 0.1919 (  6875 PWs)   bands (ev):

   -45.1660 -21.8702 -21.7785 -21.7586  -6.9143  -5.9500  -5.6846  -4.4351
    -4.4266  -4.3866  -4.2587  -4.1588   3.9849   6.6664   6.8407   7.4689
     8.2674   8.5016   8.8882   9.0919   9.2649   9.7422

          k = 0.0000 0.1434 0.3837 (  6878 PWs)   bands (ev):

   -45.1656 -21.8974 -21.7773 -21.7575  -6.6809  -5.8898  -5.5959  -4.4476
    -4.4370  -4.3854  -4.2564  -4.2113   3.4143   6.3906   6.8971   7.0671
     8.0155   8.2948   8.9703   9.1314   9.3649  10.4529

          k = 0.0000 0.2869 0.0000 (  6863 PWs)   bands (ev):

   -45.1655 -21.8518 -21.8135 -21.7579  -6.7913  -5.9244  -5.6956  -4.4660
    -4.4127  -4.4104  -4.2619  -4.1241   3.8720   6.6306   7.0123   7.0505
     8.5105   8.5242   8.8466   8.8502   9.2646   9.9007

          k = 0.0000 0.2869 0.1919 (  6870 PWs)   bands (ev):

   -45.1653 -21.8685 -21.8127 -21.7571  -6.6816  -5.9010  -5.6332  -4.4472
    -4.4247  -4.4122  -4.2551  -4.1195   3.5835   6.4781   7.0791   7.1151
     8.0687   8.3356   8.5193   8.9235   9.2716  10.1460

          k = 0.0000 0.2869 0.3837 (  6874 PWs)   bands (ev):

   -45.1649 -21.8954 -21.8113 -21.7560  -6.5253  -5.8440  -5.5096  -4.4468
    -4.4122  -4.4099  -4.2769  -4.0914   3.1777   6.1232   6.9386   7.1475
     7.7168   8.0211   8.1937   8.9864   9.6624  10.2576

          k = 0.0000 0.4303 0.0000 (  6834 PWs)   bands (ev):

   -45.1650 -21.8504 -21.8409 -21.7567  -6.5596  -5.8601  -5.6894  -4.4883
    -4.4321  -4.4086  -4.2346  -4.1566   3.5450   6.1264   7.2853   7.2970
     7.9841   8.0496   8.7435   8.8808   9.3207  10.8126

          k = 0.0000 0.4303 0.1919 (  6838 PWs)   bands (ev):

   -45.1648 -21.8669 -21.8400 -21.7560  -6.4991  -5.8163  -5.6211  -4.4622
    -4.4327  -4.4229  -4.2134  -4.1259   3.3344   6.1055   7.1257   7.3969
     7.4839   7.9350   8.6530   8.8726   9.2636  10.5627

          k = 0.0000 0.4303 0.3837 (  6872 PWs)   bands (ev):

   -45.1644 -21.8936 -21.8384 -21.7548  -6.4487  -5.7287  -5.4480  -4.4460
    -4.4335  -4.4131  -4.2618  -4.0139   3.0221   5.9343   6.5662   7.3645
     7.4808   7.8832   7.8948   8.8649   9.8282  10.1223

          k = 0.1429 0.0000 0.0000 (  6881 PWs)   bands (ev):

   -45.1662 -21.8532 -21.7747 -21.7633  -7.0554  -5.9855  -5.7388  -4.4337
    -4.4124  -4.3870  -4.2656  -4.1259   4.4607   6.7864   6.8218   7.1951
     8.6342   8.7313   8.9627   9.1430   9.1851   9.5509

          k = 0.1429 0.0000 0.1919 (  6882 PWs)   bands (ev):

   -45.1660 -21.8702 -21.7739 -21.7626  -6.9173  -5.9506  -5.6850  -4.4363
    -4.4255  -4.3862  -4.2577  -4.1615   3.9823   6.6503   6.8669   7.4734
     8.2687   8.5133   8.8859   9.0830   9.2659   9.7400

          k = 0.1429 0.0000 0.3837 (  6884 PWs)   bands (ev):

   -45.1656 -21.8974 -21.7727 -21.7614  -6.6847  -5.8888  -5.5963  -4.4465
    -4.4377  -4.3850  -4.2537  -4.2171   3.4109   6.3800   6.9138   7.0707
     8.0070   8.3186   8.9750   9.1186   9.3694  10.4542

          k = 0.1429 0.1434 0.0000 (  6853 PWs)   bands (ev):

   -45.1659 -21.8526 -21.7786 -21.7740  -6.9479  -5.9587  -5.7281  -4.4375
    -4.4266  -4.3935  -4.2501  -4.1174   4.1803   6.7278   6.9352   7.2545
     8.2921   8.5034   8.9928   9.0529   9.3946   9.6921

          k = 0.1429 0.1434 0.1919 (  6875 PWs)   bands (ev):

   -45.1657 -21.8695 -21.7778 -21.7732  -6.8153  -5.9339  -5.6747  -4.4415
    -4.4275  -4.3921  -4.2417  -4.1376   3.8364   6.6173   6.6970   7.4834
     8.1506   8.2678   8.8123   9.1612   9.4266   9.7551

          k = 0.1429 0.1434 0.3837 (  6875 PWs)   bands (ev):

   -45.1653 -21.8966 -21.7766 -21.7720  -6.5970  -5.8925  -5.5801  -4.4612
    -4.4018  -4.3868  -4.2392  -4.1762   3.3602   6.4239   6.4355   7.1526
     8.0568   8.0677   8.7293   9.2325   9.4664  10.3226

          k = 0.1429 0.2869 0.0000 (  6861 PWs)   bands (ev):

   -45.1653 -21.8511 -21.8128 -21.7724  -6.6916  -5.8986  -5.7124  -4.4660
    -4.4208  -4.3912  -4.2307  -4.1164   3.6889   6.5920   6.9988   7.1601
     7.9278   8.2910   8.7590   9.1400   9.3757  10.0913

          k = 0.1429 0.2869 0.1919 (  6865 PWs)   bands (ev):

   -45.1650 -21.8678 -21.8120 -21.7717  -6.5819  -5.8894  -5.6562  -4.4497
    -4.4275  -4.3810  -4.2177  -4.1022   3.5253   6.4385   6.5885   7.1866
     7.7003   8.1934   8.8335   9.1182   9.3706  10.0639

          k = 0.1429 0.2869 0.3837 (  6873 PWs)   bands (ev):

   -45.1646 -21.8946 -21.8106 -21.7705  -6.4287  -5.8638  -5.5363  -4.4494
    -4.4084  -4.3467  -4.2257  -4.0704   3.2348   6.0677   6.4810   6.8232
     7.2651   8.0051   8.8516   9.1563   9.6750   9.9662

          k = 0.1429 0.4303 0.0000 (  6842 PWs)   bands (ev):

   -45.1647 -21.8498 -21.8401 -21.7712  -6.4661  -5.8370  -5.7263  -4.4766
    -4.4118  -4.3781  -4.2093  -4.1486   3.3902   6.1382   7.0747   7.4861
     7.5221   8.1174   8.4869   9.1301   9.4189  10.6255

          k = 0.1429 0.4303 0.1919 (  6853 PWs)   bands (ev):

   -45.1645 -21.8663 -21.8392 -21.7704  -6.3992  -5.8136  -5.6695  -4.4539
    -4.4156  -4.3657  -4.1837  -4.1071   3.3098   6.1090   6.5088   6.9971
     7.5534   8.3256   8.4937   9.1272   9.3916  10.2408

          k = 0.1429 0.4303 0.3837 (  6859 PWs)   bands (ev):

   -45.1641 -21.8929 -21.8377 -21.7692  -6.3484  -5.7635  -5.5098  -4.4437
    -4.3850  -4.3406  -4.2055  -3.9949   3.1394   5.9010   6.3143   6.5183
     6.8765   8.1470   8.8079   8.9845   9.4192  10.0566

          k = 0.2857 0.0000 0.0000 (  6853 PWs)   bands (ev):

   -45.1656 -21.8518 -21.8074 -21.7619  -6.8007  -5.9281  -5.6977  -4.4671
    -4.4115  -4.4093  -4.2633  -4.1261   3.8713   6.6408   7.0426   7.0526
     8.5141   8.5242   8.8423   8.8473   9.2653   9.8971

          k = 0.2857 0.0000 0.1919 (  6871 PWs)   bands (ev):

   -45.1654 -21.8686 -21.8066 -21.7612  -6.6916  -5.9029  -5.6350  -4.4485
    -4.4236  -4.4110  -4.2542  -4.1255   3.5784   6.4806   7.1048   7.1250
     8.0705   8.3472   8.5271   8.9300   9.2627  10.1364

          k = 0.2857 0.0000 0.3837 (  6884 PWs)   bands (ev):

   -45.1650 -21.8955 -21.8051 -21.7600  -6.5360  -5.8427  -5.5112  -4.4458
    -4.4113  -4.4110  -4.2755  -4.1013   3.1680   6.1185   6.9477   7.1615
     7.7332   8.0299   8.2166   8.9988   9.6420  10.2703

          k = 0.2857 0.1434 0.0000 (  6854 PWs)   bands (ev):

   -45.1653 -21.8512 -21.8066 -21.7771  -6.6980  -5.9013  -5.7139  -4.4664
    -4.4205  -4.3908  -4.2314  -4.1177   3.6892   6.6042   7.0103   7.1658
     7.9226   8.2908   8.7543   9.1523   9.3755  10.0858

          k = 0.2857 0.1434 0.1919 (  6867 PWs)   bands (ev):

   -45.1651 -21.8679 -21.8058 -21.7764  -6.5887  -5.8908  -5.6575  -4.4501
    -4.4273  -4.3807  -4.2166  -4.1064   3.5223   6.4420   6.6008   7.1907
     7.6984   8.2049   8.8463   9.1229   9.3670  10.0551

          k = 0.2857 0.1434 0.3837 (  6870 PWs)   bands (ev):

   -45.1647 -21.8947 -21.8044 -21.7752  -6.4359  -5.8633  -5.5373  -4.4497
    -4.4082  -4.3464  -4.2229  -4.0786   3.2278   6.0634   6.4917   6.8259
     7.2765   8.0156   8.8658   9.1723   9.6573   9.9751

          k = 0.2857 0.2869 0.0000 (  6855 PWs)   bands (ev):

   -45.1646 -21.8497 -21.8111 -21.8049  -6.4621  -5.8416  -5.7479  -4.4574
    -4.4165  -4.3476  -4.1733  -4.1148   3.3135   6.5896   6.6941   7.3732
     7.5221   7.8086   8.5898   9.1406   9.6626  10.1660

          k = 0.2857 0.2869 0.1919 (  6860 PWs)   bands (ev):

   -45.1644 -21.8662 -21.8103 -21.8041  -6.3551  -5.8607  -5.7068  -4.4308
    -4.4173  -4.3206  -4.1464  -4.0763   3.3522   6.2744   6.2979   6.7447
     7.4186   7.8065   9.0683   9.2670   9.6907   9.7928

          k = 0.2857 0.2869 0.3837 (  6870 PWs)   bands (ev):

   -45.1640 -21.8928 -21.8090 -21.8028  -6.2237  -5.8910  -5.5860  -4.4142
    -4.3888  -4.2622  -4.1102  -4.0190   3.3457   5.7926   5.9302   6.4089
     7.0723   7.2865   8.9653   9.5979   9.6424   9.8609

          k = 0.2857 0.4303 0.0000 (  6877 PWs)   bands (ev):

   -45.1641 -21.8483 -21.8383 -21.8035  -6.2713  -5.7918  -5.7707  -4.4502
    -4.3951  -4.2848  -4.1504  -4.1311   3.0471   6.1517   6.7255   7.1996
     7.6652   7.8772   8.1313   9.1500   9.7666  10.1126

          k = 0.2857 0.4303 0.1919 (  6849 PWs)   bands (ev):

   -45.1639 -21.8647 -21.8375 -21.8027  -6.1757  -5.8121  -5.7561  -4.4212
    -4.3886  -4.2403  -4.1159  -4.0668   3.1899   6.0658   6.1845   6.3994
     7.1634   7.9152   8.8667   9.3100   9.5067   9.8618

          k = 0.2857 0.4303 0.3837 (  6859 PWs)   bands (ev):

   -45.1635 -21.8912 -21.8361 -21.8015  -6.1180  -5.8363  -5.6249  -4.3926
    -4.3568  -4.1798  -4.0603  -3.9512   3.4170   5.5433   5.6890   6.0959
     6.6953   7.2689   8.2007   9.7104   9.7924  10.0672

          k = 0.4286 0.0000 0.0000 (  6830 PWs)   bands (ev):

   -45.1651 -21.8505 -21.8337 -21.7608  -6.5747  -5.8668  -5.6917  -4.4895
    -4.4302  -4.4076  -4.2395  -4.1573   3.5456   6.1523   7.3015   7.3193
     7.9738   8.0584   8.7450   8.8793   9.3213  10.7985

          k = 0.4286 0.0000 0.1919 (  6858 PWs)   bands (ev):

   -45.1649 -21.8671 -21.8327 -21.7600  -6.5138  -5.8215  -5.6228  -4.4636
    -4.4308  -4.4220  -4.2136  -4.1342   3.3282   6.1287   7.1300   7.4271
     7.4888   7.9426   8.6587   8.8799   9.2613  10.5561

          k = 0.4286 0.0000 0.3837 (  6870 PWs)   bands (ev):

   -45.1645 -21.8938 -21.8310 -21.7588  -6.4613  -5.7322  -5.4500  -4.4451
    -4.4316  -4.4145  -4.2621  -4.0267   3.0074   5.9409   6.5814   7.3812
     7.4894   7.9064   7.9090   8.8807   9.8392  10.1215

          k = 0.4286 0.1434 0.0000 (  6855 PWs)   bands (ev):

   -45.1648 -21.8499 -21.8328 -21.7759  -6.4776  -5.8429  -5.7282  -4.4772
    -4.4116  -4.3775  -4.2129  -4.1487   3.3916   6.1652   7.0861   7.4976
     7.5148   8.1144   8.4872   9.1441   9.4224  10.6102

          k = 0.4286 0.1434 0.1919 (  6866 PWs)   bands (ev):

   -45.1646 -21.8664 -21.8319 -21.7752  -6.4104  -5.8185  -5.6708  -4.4545
    -4.4157  -4.3649  -4.1824  -4.1145   3.3057   6.1329   6.5214   6.9902
     7.5517   8.3437   8.5124   9.1327   9.3921  10.2346

          k = 0.4286 0.1434 0.3837 (  6862 PWs)   bands (ev):

   -45.1642 -21.8930 -21.8303 -21.7740  -6.3574  -5.7677  -5.5111  -4.4441
    -4.3854  -4.3401  -4.2030  -4.0072   3.1268   5.9050   6.3284   6.5340
     6.8778   8.1553   8.8429   8.9987   9.4311  10.0470

          k = 0.4286 0.2869 0.0000 (  6884 PWs)   bands (ev):

   -45.1642 -21.8483 -21.8309 -21.8097  -6.2752  -5.7937  -5.7735  -4.4501
    -4.3954  -4.2869  -4.1468  -4.1344   3.0485   6.1803   6.7049   7.2016
     7.6737   7.8764   8.1288   9.1522   9.7977  10.0848

          k = 0.4286 0.2869 0.1919 (  6845 PWs)   bands (ev):

   -45.1639 -21.8648 -21.8300 -21.8090  -6.1792  -5.8153  -5.7571  -4.4208
    -4.3895  -4.2417  -4.1112  -4.0728   3.1891   6.0865   6.1912   6.3863
     7.1591   7.9156   8.8877   9.3105   9.5046   9.8645

          k = 0.4286 0.2869 0.3837 (  6854 PWs)   bands (ev):

   -45.1635 -21.8913 -21.8286 -21.8078  -6.1187  -5.8419  -5.6252  -4.3921
    -4.3583  -4.1803  -4.0533  -3.9616   3.4108   5.5506   5.6811   6.1081
     6.7074   7.2606   8.2159   9.7235   9.8058  10.0581

          k = 0.4286 0.4303 0.0000 (  6872 PWs)   bands (ev):

   -45.1636 -21.8469 -21.8368 -21.8293  -6.1613  -5.7559  -5.7476  -4.4353
    -4.3498  -4.2142  -4.1654  -4.0733   2.7816   6.0142   6.4278   7.3732
     7.4693   7.8716   8.0468   8.8843   9.4747  10.2375

          k = 0.4286 0.4303 0.1919 (  6864 PWs)   bands (ev):

   -45.1634 -21.8633 -21.8361 -21.8285  -6.0194  -5.8055  -5.7960  -4.4035
    -4.3438  -4.1330  -4.0744  -4.0384   3.0342   5.9659   6.1727   6.2228
     6.6148   7.8798   8.5190   9.2326   9.2508  10.2286

          k = 0.4286 0.4303 0.3837 (  6860 PWs)   bands (ev):

   -45.1630 -21.8898 -21.8348 -21.8273  -5.9299  -5.8854  -5.7064  -4.3522
    -4.3379  -4.0398  -3.9422  -3.9287   3.6069   5.3459   5.4519   5.8848
     6.5353   6.7951   7.1599  10.0505  10.0735  10.2154

     highest occupied level (ev):    10.8126

!    total energy              =    -380.57762442 Ry
     estimated scf accuracy    <          1.6E-11 Ry

     The total energy is the sum of the following terms:
     one-electron contribution =     -79.68932576 Ry
     hartree contribution      =      69.92303194 Ry
     xc contribution           =    -102.67764273 Ry
     ewald contribution        =    -268.13368787 Ry

     convergence has been achieved in   8 iterations

     negative rho (up, down):  1.586E-02 0.000E+00

     Forces acting on atoms (cartesian axes, Ry/au):

     atom    1 type  1   force =     0.00000000    0.00000000    0.00023897
     atom    2 type  2   force =     0.00000000    0.00000000    0.00439297
     atom    3 type  3   force =     0.00000000    0.00000000   -0.00417923
     atom    4 type  3   force =     0.00000000    0.00000000    0.00010094
     atom    5 type  3   force =     0.00000000    0.00000000   -0.00055364

     Total force =     0.006094     Total SCF correction =     0.000006


     Computing stress (Cartesian axis) and pressure


     negative rho (up, down):  1.586E-02 0.000E+00
          total   stress  (Ry/bohr**3)                   (kbar)     P=        1.57
  -0.00003632   0.00000000   0.00000000           -5.34        0.00        0.00
   0.00000000   0.00001331   0.00000000            0.00        1.96        0.00
   0.00000000   0.00000000   0.00005508            0.00        0.00        8.10


     BFGS Geometry Optimization
     Energy error            =      0.0E+00 Ry
     Gradient error          =      4.4E-03 Ry/Bohr

     number of scf cycles    =   1
     number of bfgs steps    =   0

     energy             new  =    -380.5776244237 Ry

     new trust radius        =       0.0043929661 bohr
     new conv_thr            =            1.0E-10 Ry


ATOMIC_POSITIONS (crystal)
Pb            0.0000000000        0.0000000000        1.0049749153
Ti            0.5000000000        0.5000000000        0.5403480969
O             0.5000000000        0.5000000000        0.0990320723
O             0.5000000000        0.0000000000        0.6116212534
O             0.0000000000        0.5000000000        0.6113079500



     Writing config-only to output data dir ./PTO2.save/
     NEW-OLD atomic charge density approx. for the potential

     Check: negative core charge=   -0.000003

     negative rho (up, down):  1.586E-02 0.000E+00

     total cpu time spent up to now is     1589.4 secs

     Self-consistent Calculation

     iteration #  1     ecut=   100.00 Ry     beta= 0.70
     CG style diagonalization
     ethr =  1.00E-06,  avg # of iterations =  3.5

     Threshold (ethr) on eigenvalues was too large:
     Diagonalizing with lowered threshold

     CG style diagonalization
     c_bands:  1 eigenvalues not converged
     c_bands:  2 eigenvalues not converged
     c_bands:  1 eigenvalues not converged
     c_bands:  1 eigenvalues not converged
     c_bands:  1 eigenvalues not converged
     c_bands:  1 eigenvalues not converged
     c_bands:  1 eigenvalues not converged
     c_bands:  1 eigenvalues not converged
     c_bands:  1 eigenvalues not converged
     c_bands:  1 eigenvalues not converged
     c_bands:  1 eigenvalues not converged
     c_bands:  1 eigenvalues not converged
     c_bands:  2 eigenvalues not converged
     c_bands:  1 eigenvalues not converged
     c_bands:  1 eigenvalues not converged
     c_bands:  1 eigenvalues not converged
     c_bands:  1 eigenvalues not converged
     c_bands:  1 eigenvalues not converged
     c_bands:  1 eigenvalues not converged
     ethr =  3.48E-08,  avg # of iterations =  5.7

     negative rho (up, down):  1.586E-02 0.000E+00

     total cpu time spent up to now is     1716.4 secs

     total energy              =    -380.57764237 Ry
     estimated scf accuracy    <       0.00001623 Ry

     iteration #  2     ecut=   100.00 Ry     beta= 0.70
     CG style diagonalization
     ethr =  3.69E-08,  avg # of iterations =  4.6

     negative rho (up, down):  1.586E-02 0.000E+00

     total cpu time spent up to now is     1775.1 secs

     total energy              =    -380.57764116 Ry
     estimated scf accuracy    <       0.00004014 Ry

     iteration #  3     ecut=   100.00 Ry     beta= 0.70
     CG style diagonalization
     ethr =  3.69E-08,  avg # of iterations =  4.4

     negative rho (up, down):  1.586E-02 0.000E+00

     total cpu time spent up to now is     1831.5 secs

     total energy              =    -380.57764915 Ry
     estimated scf accuracy    <       0.00000288 Ry

     iteration #  4     ecut=   100.00 Ry     beta= 0.70
     CG style diagonalization
     ethr =  6.54E-09,  avg # of iterations =  3.7

     negative rho (up, down):  1.586E-02 0.000E+00

     total cpu time spent up to now is     1878.4 secs

     total energy              =    -380.57764971 Ry
     estimated scf accuracy    <       0.00000032 Ry

     iteration #  5     ecut=   100.00 Ry     beta= 0.70
     CG style diagonalization
     ethr =  7.32E-10,  avg # of iterations =  4.3

     negative rho (up, down):  1.586E-02 0.000E+00

     total cpu time spent up to now is     1933.5 secs

     total energy              =    -380.57764987 Ry
     estimated scf accuracy    <       0.00000004 Ry

     iteration #  6     ecut=   100.00 Ry     beta= 0.70
     CG style diagonalization
     ethr =  9.47E-11,  avg # of iterations =  4.5

     negative rho (up, down):  1.586E-02 0.000E+00

     total cpu time spent up to now is     1990.7 secs

     total energy              =    -380.57764989 Ry
     estimated scf accuracy    <       0.00000001 Ry

     iteration #  7     ecut=   100.00 Ry     beta= 0.70
     CG style diagonalization
     ethr =  3.41E-11,  avg # of iterations =  4.0

     negative rho (up, down):  1.586E-02 0.000E+00

     total cpu time spent up to now is     2040.7 secs

     total energy              =    -380.57764989 Ry
     estimated scf accuracy    <          3.4E-09 Ry

     iteration #  8     ecut=   100.00 Ry     beta= 0.70
     CG style diagonalization
     ethr =  7.82E-12,  avg # of iterations =  4.8

     negative rho (up, down):  1.586E-02 0.000E+00

     total cpu time spent up to now is     2102.0 secs

     total energy              =    -380.57764989 Ry
     estimated scf accuracy    <          6.8E-10 Ry

     iteration #  9     ecut=   100.00 Ry     beta= 0.70
     CG style diagonalization
     ethr =  1.54E-12,  avg # of iterations =  4.9

     negative rho (up, down):  1.586E-02 0.000E+00

     total cpu time spent up to now is     2163.7 secs

     End of self-consistent calculation

          k = 0.0000 0.0000 0.0000 (  6861 PWs)   bands (ev):

   -45.1762 -21.8566 -21.7740 -21.7702  -7.1633  -6.0143  -5.7582  -4.4137
    -4.4125  -4.3746  -4.2625  -4.1336   4.8543   6.7072   6.7381   7.1254
     8.7298   8.7361   8.9661   9.3067   9.4257   9.4337

          k = 0.0000 0.0000 0.1919 (  6860 PWs)   bands (ev):

   -45.1759 -21.8736 -21.7734 -21.7695  -7.0185  -5.9711  -5.7059  -4.4265
    -4.4253  -4.3735  -4.2522  -4.1873   4.2045   6.7529   6.7796   7.4169
     8.5260   8.5375   8.9053   9.1889   9.5197   9.5238

          k = 0.0000 0.0000 0.3837 (  6862 PWs)   bands (ev):

   -45.1755 -21.9010 -21.7722 -21.7684  -6.7675  -5.8953  -5.6259  -4.4470
    -4.4459  -4.3718  -4.2805  -4.2363   3.5369   6.7188   6.8080   6.8255
     8.3071   8.3311   8.8110   9.6151   9.6160  10.3482

          k = 0.0000 0.1434 0.0000 (  6869 PWs)   bands (ev):

   -45.1759 -21.8560 -21.7894 -21.7695  -7.0543  -5.9881  -5.7354  -4.4314
    -4.4125  -4.3858  -4.2640  -4.1248   4.4636   6.7896   6.8019   7.1903
     8.6529   8.7425   8.9674   9.1450   9.1871   9.5574

          k = 0.0000 0.1434 0.1919 (  6875 PWs)   bands (ev):

   -45.1757 -21.8729 -21.7887 -21.7688  -6.9168  -5.9538  -5.6812  -4.4340
    -4.4256  -4.3850  -4.2571  -4.1586   3.9875   6.6671   6.8413   7.4667
     8.2743   8.5148   8.8899   9.0960   9.2631   9.7432

          k = 0.0000 0.1434 0.3837 (  6878 PWs)   bands (ev):

   -45.1753 -21.9001 -21.7875 -21.7677  -6.6850  -5.8938  -5.5912  -4.4466
    -4.4359  -4.3838  -4.2547  -4.2108   3.4194   6.3944   6.9026   7.0644
     8.0184   8.3000   8.9671   9.1354   9.3619  10.4511

          k = 0.0000 0.2869 0.0000 (  6863 PWs)   bands (ev):

   -45.1752 -21.8546 -21.8237 -21.7681  -6.7928  -5.9277  -5.6926  -4.4649
    -4.4112  -4.4093  -4.2608  -4.1238   3.8727   6.6282   7.0097   7.0503
     8.5095   8.5252   8.8491   8.8656   9.2735   9.9059

          k = 0.0000 0.2869 0.1919 (  6870 PWs)   bands (ev):

   -45.1750 -21.8713 -21.8228 -21.7674  -6.6840  -5.9041  -5.6296  -4.4460
    -4.4237  -4.4106  -4.2539  -4.1193   3.5850   6.4776   7.0786   7.1149
     8.0680   8.3415   8.5213   8.9302   9.2755  10.1481

          k = 0.0000 0.2869 0.3837 (  6874 PWs)   bands (ev):

   -45.1746 -21.8981 -21.8214 -21.7662  -6.5291  -5.8472  -5.5046  -4.4458
    -4.4106  -4.4087  -4.2756  -4.0914   3.1806   6.1282   6.9335   7.1523
     7.7169   8.0174   8.1970   8.9861   9.6705  10.2550

          k = 0.0000 0.4303 0.0000 (  6834 PWs)   bands (ev):

   -45.1747 -21.8538 -21.8506 -21.7669  -6.5612  -5.8628  -5.6861  -4.4873
    -4.4305  -4.4076  -4.2341  -4.1559   3.5460   6.1205   7.2811   7.2990
     7.9811   8.0478   8.7429   8.9026   9.3306  10.8168

          k = 0.0000 0.4303 0.1919 (  6838 PWs)   bands (ev):

   -45.1745 -21.8697 -21.8502 -21.7662  -6.5017  -5.8188  -5.6167  -4.4612
    -4.4311  -4.4219  -4.2124  -4.1258   3.3356   6.1005   7.1263   7.3939
     7.4840   7.9376   8.6547   8.8855   9.2652  10.5671

          k = 0.0000 0.4303 0.3837 (  6872 PWs)   bands (ev):

   -45.1741 -21.8963 -21.8486 -21.7650  -6.4525  -5.7314  -5.4423  -4.4451
    -4.4319  -4.4121  -4.2607  -4.0140   3.0235   5.9354   6.5640   7.3634
     7.4857   7.8828   7.8906   8.8686   9.8305  10.1278

          k = 0.1429 0.0000 0.0000 (  6881 PWs)   bands (ev):

   -45.1759 -21.8560 -21.7849 -21.7734  -7.0572  -5.9892  -5.7360  -4.4325
    -4.4113  -4.3854  -4.2640  -4.1257   4.4617   6.7848   6.8200   7.1932
     8.6451   8.7511   8.9649   9.1399   9.1897   9.5571

          k = 0.1429 0.0000 0.1919 (  6882 PWs)   bands (ev):

   -45.1757 -21.8730 -21.7841 -21.7727  -6.9199  -5.9543  -5.6816  -4.4352
    -4.4245  -4.3846  -4.2560  -4.1612   3.9848   6.6511   6.8673   7.4712
     8.2759   8.5263   8.8873   9.0870   9.2642   9.7407

          k = 0.1429 0.0000 0.3837 (  6884 PWs)   bands (ev):

   -45.1753 -21.9002 -21.7829 -21.7716  -6.6888  -5.8926  -5.5916  -4.4455
    -4.4366  -4.3834  -4.2520  -4.2166   3.4159   6.3841   6.9190   7.0681
     8.0098   8.3238   8.9714   9.1227   9.3667  10.4522

          k = 0.1429 0.1434 0.0000 (  6853 PWs)   bands (ev):

   -45.1756 -21.8554 -21.7888 -21.7842  -6.9495  -5.9623  -5.7253  -4.4364
    -4.4255  -4.3920  -4.2486  -4.1172   4.1809   6.7254   6.9330   7.2555
     8.3065   8.5033   9.0036   9.0540   9.3899   9.7045

          k = 0.1429 0.1434 0.1919 (  6875 PWs)   bands (ev):

   -45.1754 -21.8722 -21.7880 -21.7834  -6.8177  -5.9375  -5.6713  -4.4404
    -4.4264  -4.3906  -4.2401  -4.1374   3.8384   6.6182   6.6970   7.4838
     8.1570   8.2682   8.8226   9.1635   9.4234   9.7578

          k = 0.1429 0.1434 0.3837 (  6875 PWs)   bands (ev):

   -45.1750 -21.8993 -21.7868 -21.7822  -6.6010  -5.8962  -5.5752  -4.4600
    -4.4005  -4.3857  -4.2374  -4.1759   3.3645   6.4280   6.4393   7.1484
     8.0565   8.0715   8.7333   9.2349   9.4640  10.3205

          k = 0.1429 0.2869 0.0000 (  6861 PWs)   bands (ev):

   -45.1750 -21.8540 -21.8229 -21.7826  -6.6927  -5.9018  -5.7097  -4.4650
    -4.4197  -4.3897  -4.2294  -4.1162   3.6891   6.5882   7.0006   7.1576
     7.9278   8.3053   8.7568   9.1433   9.3773  10.0999

          k = 0.1429 0.2869 0.1919 (  6865 PWs)   bands (ev):

   -45.1747 -21.8706 -21.8221 -21.7819  -6.5839  -5.8925  -5.6527  -4.4485
    -4.4264  -4.3795  -4.2164  -4.1020   3.5264   6.4381   6.5887   7.1859
     7.7022   8.1943   8.8377   9.1211   9.3737  10.0663

          k = 0.1429 0.2869 0.3837 (  6873 PWs)   bands (ev):

   -45.1743 -21.8974 -21.8207 -21.7807  -6.4322  -5.8670  -5.5312  -4.4481
    -4.4071  -4.3455  -4.2242  -4.0703   3.2373   6.0723   6.4824   6.8202
     7.2620   8.0029   8.8607   9.1523   9.6822   9.9638

          k = 0.1429 0.4303 0.0000 (  6842 PWs)   bands (ev):

   -45.1744 -21.8531 -21.8498 -21.7814  -6.4669  -5.8396  -5.7237  -4.4756
    -4.4108  -4.3763  -4.2085  -4.1480   3.3905   6.1321   7.0775   7.4818
     7.5206   8.1137   8.5060   9.1300   9.4241  10.6291

          k = 0.1429 0.4303 0.1919 (  6853 PWs)   bands (ev):

   -45.1742 -21.8691 -21.8494 -21.7806  -6.4013  -5.8160  -5.6658  -4.4528
    -4.4146  -4.3638  -4.1828  -4.1069   3.3105   6.1041   6.5085   6.9980
     7.5544   8.3267   8.4942   9.1353   9.3925  10.2447

          k = 0.1429 0.4303 0.3837 (  6859 PWs)   bands (ev):

   -45.1738 -21.8956 -21.8479 -21.7794  -6.3518  -5.7661  -5.5045  -4.4424
    -4.3839  -4.3387  -4.2047  -3.9949   3.1405   5.9032   6.3124   6.5157
     6.8774   8.1428   8.8055   8.9927   9.4197  10.0627

          k = 0.2857 0.0000 0.0000 (  6853 PWs)   bands (ev):

   -45.1753 -21.8547 -21.8176 -21.7721  -6.8024  -5.9312  -5.6947  -4.4660
    -4.4100  -4.4082  -4.2621  -4.1257   3.8717   6.6386   7.0400   7.0521
     8.5141   8.5227   8.8467   8.8613   9.2739   9.9022

          k = 0.2857 0.0000 0.1919 (  6871 PWs)   bands (ev):

   -45.1751 -21.8714 -21.8168 -21.7713  -6.6941  -5.9057  -5.6313  -4.4474
    -4.4226  -4.4094  -4.2530  -4.1252   3.5797   6.4803   7.1042   7.1245
     8.0693   8.3527   8.5289   8.9368   9.2669  10.1383

          k = 0.2857 0.0000 0.3837 (  6884 PWs)   bands (ev):

   -45.1747 -21.8982 -21.8153 -21.7702  -6.5401  -5.8455  -5.5063  -4.4448
    -4.4102  -4.4094  -4.2741  -4.1011   3.1706   6.1237   6.9423   7.1661
     7.7334   8.0256   8.2196   8.9990   9.6504  10.2674

          k = 0.2857 0.1434 0.0000 (  6854 PWs)   bands (ev):

   -45.1750 -21.8540 -21.8168 -21.7873  -6.6993  -5.9043  -5.7112  -4.4653
    -4.4194  -4.3893  -4.2301  -4.1173   3.6892   6.6005   7.0121   7.1630
     7.9224   8.3049   8.7519   9.1554   9.3772  10.0945

          k = 0.2857 0.1434 0.1919 (  6867 PWs)   bands (ev):

   -45.1748 -21.8707 -21.8160 -21.7865  -6.5909  -5.8937  -5.6539  -4.4489
    -4.4262  -4.3793  -4.2153  -4.1062   3.5232   6.4419   6.6009   7.1897
     7.6996   8.2064   8.8506   9.1253   9.3702  10.0575

          k = 0.2857 0.1434 0.3837 (  6870 PWs)   bands (ev):

   -45.1744 -21.8974 -21.8146 -21.7853  -6.4396  -5.8661  -5.5323  -4.4485
    -4.4069  -4.3452  -4.2215  -4.0784   3.2301   6.0683   6.4930   6.8228
     7.2729   8.0133   8.8751   9.1681   9.6648   9.9725

          k = 0.2857 0.2869 0.0000 (  6855 PWs)   bands (ev):

   -45.1744 -21.8526 -21.8212 -21.8151  -6.4621  -5.8445  -5.7460  -4.4565
    -4.4152  -4.3463  -4.1716  -4.1145   3.3130   6.5837   6.6931   7.3697
     7.5273   7.8238   8.5808   9.1442   9.6608  10.1725

          k = 0.2857 0.2869 0.1919 (  6860 PWs)   bands (ev):

   -45.1741 -21.8690 -21.8205 -21.8143  -6.3563  -5.8636  -5.7037  -4.4299
    -4.4160  -4.3191  -4.1448  -4.0761   3.3522   6.2743   6.2991   6.7424
     7.4176   7.8063   9.0736   9.2675   9.6899   9.7971

          k = 0.2857 0.2869 0.3837 (  6870 PWs)   bands (ev):

   -45.1737 -21.8956 -21.8192 -21.8130  -6.2267  -5.8938  -5.5812  -4.4128
    -4.3877  -4.2605  -4.1088  -4.0190   3.3471   5.7956   5.9297   6.4096
     7.0682   7.2797   8.9698   9.6031   9.6390   9.8663

          k = 0.2857 0.4303 0.0000 (  6877 PWs)   bands (ev):

   -45.1738 -21.8516 -21.8480 -21.8136  -6.2698  -5.7934  -5.7711  -4.4493
    -4.3938  -4.2836  -4.1495  -4.1298   3.0464   6.1460   6.7203   7.2067
     7.6608   7.8933   8.1249   9.1507   9.7664  10.1124

          k = 0.2857 0.4303 0.1919 (  6849 PWs)   bands (ev):

   -45.1736 -21.8675 -21.8476 -21.8129  -6.1760  -5.8141  -5.7543  -4.4202
    -4.3874  -4.2385  -4.1149  -4.0662   3.1893   6.0635   6.1839   6.3989
     7.1610   7.9162   8.8659   9.3149   9.5120   9.8592

          k = 0.2857 0.4303 0.3837 (  6859 PWs)   bands (ev):

   -45.1732 -21.8940 -21.8463 -21.8117  -6.1206  -5.8387  -5.6203  -4.3913
    -4.3558  -4.1771  -4.0596  -3.9510   3.4172   5.5421   5.6927   6.0924
     6.6927   7.2627   8.2022   9.7172   9.7897  10.0731

          k = 0.4286 0.0000 0.0000 (  6830 PWs)   bands (ev):

   -45.1748 -21.8534 -21.8438 -21.7710  -6.5766  -5.8691  -5.6883  -4.4885
    -4.4287  -4.4066  -4.2387  -4.1566   3.5463   6.1463   7.3027   7.3152
     7.9702   8.0561   8.7448   8.9009   9.3310  10.8027

          k = 0.4286 0.0000 0.1919 (  6858 PWs)   bands (ev):

   -45.1746 -21.8699 -21.8429 -21.7702  -6.5167  -5.8236  -5.6184  -4.4626
    -4.4292  -4.4210  -4.2126  -4.1338   3.3289   6.1239   7.1301   7.4243
     7.4883   7.9446   8.6604   8.8928   9.2632  10.5605

          k = 0.4286 0.0000 0.3837 (  6870 PWs)   bands (ev):

   -45.1742 -21.8965 -21.8413 -21.7690  -6.4654  -5.7343  -5.4442  -4.4441
    -4.4300  -4.4136  -4.2611  -4.0266   3.0082   5.9427   6.5781   7.3800
     7.4944   7.9021   7.9079   8.8850   9.8430  10.1258

          k = 0.4286 0.1434 0.0000 (  6855 PWs)   bands (ev):

   -45.1745 -21.8527 -21.8429 -21.7861  -6.4788  -5.8452  -5.7256  -4.4763
    -4.4105  -4.3757  -4.2120  -4.1481   3.3917   6.1591   7.0889   7.4923
     7.5136   8.1104   8.5061   9.1441   9.4275  10.6141

          k = 0.4286 0.1434 0.1919 (  6866 PWs)   bands (ev):

   -45.1743 -21.8692 -21.8421 -21.7854  -6.4128  -5.8205  -5.6671  -4.4534
    -4.4147  -4.3631  -4.1816  -4.1140   3.3060   6.1282   6.5211   6.9903
     7.5523   8.3455   8.5124   9.1406   9.3932  10.2386

          k = 0.4286 0.1434 0.3837 (  6862 PWs)   bands (ev):

   -45.1739 -21.8958 -21.8405 -21.7842  -6.3611  -5.7698  -5.5058  -4.4429
    -4.3843  -4.3382  -4.2022  -4.0070   3.1275   5.9077   6.3264   6.5306
     6.8783   8.1513   8.8404   9.0068   9.4323  10.0530

          k = 0.4286 0.2869 0.0000 (  6884 PWs)   bands (ev):

   -45.1739 -21.8512 -21.8410 -21.8199  -6.2740  -5.7956  -5.7734  -4.4493
    -4.3941  -4.2855  -4.1461  -4.1329   3.0476   6.1745   6.6994   7.2088
     7.6692   7.8927   8.1221   9.1530   9.7970  10.0850

          k = 0.4286 0.2869 0.1919 (  6845 PWs)   bands (ev):

   -45.1736 -21.8676 -21.8402 -21.8192  -6.1798  -5.8172  -5.7551  -4.4199
    -4.3882  -4.2399  -4.1104  -4.0719   3.1884   6.0847   6.1904   6.3853
     7.1566   7.9169   8.8869   9.3153   9.5099   9.8620

          k = 0.4286 0.2869 0.3837 (  6854 PWs)   bands (ev):

   -45.1732 -21.8941 -21.8388 -21.8180  -6.1216  -5.8439  -5.6206  -4.3908
    -4.3573  -4.1777  -4.0527  -3.9612   3.4107   5.5495   5.6848   6.1046
     6.7039   7.2550   8.2174   9.7301   9.8031  10.0640

          k = 0.4286 0.4303 0.0000 (  6872 PWs)   bands (ev):

   -45.1733 -21.8502 -21.8465 -21.8394  -6.1573  -5.7576  -5.7501  -4.4344
    -4.3484  -4.2136  -4.1651  -4.0705   2.7803   6.0098   6.4180   7.3828
     7.4813   7.8683   8.0413   8.8847   9.4731  10.2339

          k = 0.4286 0.4303 0.1919 (  6864 PWs)   bands (ev):

   -45.1731 -21.8661 -21.8462 -21.8387  -6.0164  -5.8075  -5.7970  -4.4026
    -4.3424  -4.1319  -4.0743  -4.0360   3.0328   5.9623   6.1722   6.2250
     6.6089   7.8801   8.5175   9.2363   9.2557  10.2251

          k = 0.4286 0.4303 0.3837 (  6860 PWs)   bands (ev):

   -45.1727 -21.8926 -21.8450 -21.8375  -5.9319  -5.8876  -5.7023  -4.3513
    -4.3364  -4.0366  -3.9414  -3.9286   3.6053   5.3471   5.4541   5.8813
     6.5252   6.7943   7.1603  10.0570  10.0790  10.2121

     highest occupied level (ev):    10.8168

!    total energy              =    -380.57764989 Ry
     estimated scf accuracy    <          3.4E-11 Ry

     The total energy is the sum of the following terms:
     one-electron contribution =     -79.65779154 Ry
     hartree contribution      =      69.90454537 Ry
     xc contribution           =    -102.67541217 Ry
     ewald contribution        =    -268.14899156 Ry

     convergence has been achieved in   9 iterations

     negative rho (up, down):  1.586E-02 0.000E+00

     Forces acting on atoms (cartesian axes, Ry/au):

     atom    1 type  1   force =     0.00000000    0.00000000    0.00073933
     atom    2 type  2   force =     0.00000000    0.00000000    0.00161140
     atom    3 type  3   force =     0.00000000    0.00000000   -0.00145806
     atom    4 type  3   force =     0.00000000    0.00000000   -0.00015388
     atom    5 type  3   force =     0.00000000    0.00000000   -0.00073879

     Total force =     0.002416     Total SCF correction =     0.000001


     Computing stress (Cartesian axis) and pressure


     negative rho (up, down):  1.586E-02 0.000E+00
          total   stress  (Ry/bohr**3)                   (kbar)     P=        0.32
  -0.00003675   0.00000000   0.00000000           -5.41        0.00        0.00
   0.00000000   0.00001267   0.00000000            0.00        1.86        0.00
   0.00000000   0.00000000   0.00003064            0.00        0.00        4.51

     Energy error            =      2.5E-05 Ry
     Gradient error          =      1.6E-03 Ry/Bohr

     number of scf cycles    =   2
     number of bfgs steps    =   1

     energy             old  =    -380.5776244237 Ry
     energy             new  =    -380.5776498941 Ry

     CASE: energy            _new < energy            _old

     new trust radius        =       0.0027824830 bohr
     new conv_thr            =            1.0E-10 Ry


ATOMIC_POSITIONS (crystal)
Pb            0.0000000000        0.0000000000        1.0051304260
Ti            0.5000000000        0.5000000000        0.5407129925
O             0.5000000000        0.5000000000        0.0987005310
O             0.5000000000        0.0000000000        0.6115898960
O             0.0000000000        0.5000000000        0.6111504424



     Writing config-only to output data dir ./PTO2.save/
     NEW-OLD atomic charge density approx. for the potential

     Check: negative core charge=   -0.000003

     negative rho (up, down):  1.583E-02 0.000E+00

     total cpu time spent up to now is     2191.0 secs

     Self-consistent Calculation

     iteration #  1     ecut=   100.00 Ry     beta= 0.70
     CG style diagonalization
     ethr =  1.00E-06,  avg # of iterations =  3.2

     Threshold (ethr) on eigenvalues was too large:
     Diagonalizing with lowered threshold

     CG style diagonalization
     c_bands:  1 eigenvalues not converged
     c_bands:  1 eigenvalues not converged
     c_bands:  1 eigenvalues not converged
     c_bands:  1 eigenvalues not converged
     c_bands:  1 eigenvalues not converged
     c_bands:  1 eigenvalues not converged
     c_bands:  2 eigenvalues not converged
     c_bands:  1 eigenvalues not converged
     c_bands:  1 eigenvalues not converged
     c_bands:  1 eigenvalues not converged
     c_bands:  2 eigenvalues not converged
     c_bands:  1 eigenvalues not converged
     c_bands:  1 eigenvalues not converged
     c_bands:  1 eigenvalues not converged
     c_bands:  1 eigenvalues not converged
     c_bands:  1 eigenvalues not converged
     c_bands:  1 eigenvalues not converged
     c_bands:  1 eigenvalues not converged
     ethr =  1.41E-08,  avg # of iterations =  6.6

     negative rho (up, down):  1.583E-02 0.000E+00

     total cpu time spent up to now is     2327.0 secs

     total energy              =    -380.57765101 Ry
     estimated scf accuracy    <       0.00000570 Ry

     iteration #  2     ecut=   100.00 Ry     beta= 0.70
     CG style diagonalization
     ethr =  1.30E-08,  avg # of iterations =  5.0

     negative rho (up, down):  1.583E-02 0.000E+00

     total cpu time spent up to now is     2389.6 secs

     total energy              =    -380.57765241 Ry
     estimated scf accuracy    <       0.00001284 Ry

     iteration #  3     ecut=   100.00 Ry     beta= 0.70
     CG style diagonalization
     ethr =  1.30E-08,  avg # of iterations =  4.4

     negative rho (up, down):  1.583E-02 0.000E+00

     total cpu time spent up to now is     2446.1 secs

     total energy              =    -380.57765513 Ry
     estimated scf accuracy    <       0.00000121 Ry

     iteration #  4     ecut=   100.00 Ry     beta= 0.70
     CG style diagonalization
     ethr =  2.76E-09,  avg # of iterations =  3.8

     negative rho (up, down):  1.583E-02 0.000E+00

     total cpu time spent up to now is     2493.6 secs

     total energy              =    -380.57765538 Ry
     estimated scf accuracy    <       0.00000012 Ry

     iteration #  5     ecut=   100.00 Ry     beta= 0.70
     CG style diagonalization
     ethr =  2.77E-10,  avg # of iterations =  4.4

     negative rho (up, down):  1.583E-02 0.000E+00

     total cpu time spent up to now is     2549.4 secs

     total energy              =    -380.57765545 Ry
     estimated scf accuracy    <       0.00000001 Ry

     iteration #  6     ecut=   100.00 Ry     beta= 0.70
     CG style diagonalization
     ethr =  2.77E-11,  avg # of iterations =  4.8

     negative rho (up, down):  1.583E-02 0.000E+00

     total cpu time spent up to now is     2611.0 secs

     total energy              =    -380.57765546 Ry
     estimated scf accuracy    <          9.8E-09 Ry

     iteration #  7     ecut=   100.00 Ry     beta= 0.70
     CG style diagonalization
     ethr =  2.23E-11,  avg # of iterations =  4.0

     negative rho (up, down):  1.583E-02 0.000E+00

     total cpu time spent up to now is     2662.4 secs

     total energy              =    -380.57765546 Ry
     estimated scf accuracy    <          3.1E-09 Ry

     iteration #  8     ecut=   100.00 Ry     beta= 0.70
     CG style diagonalization
     ethr =  6.96E-12,  avg # of iterations =  4.2

     negative rho (up, down):  1.583E-02 0.000E+00

     total cpu time spent up to now is     2715.3 secs

     End of self-consistent calculation

          k = 0.0000 0.0000 0.0000 (  6861 PWs)   bands (ev):

   -45.1817 -21.8580 -21.7798 -21.7759  -7.1636  -6.0155  -5.7568  -4.4137
    -4.4125  -4.3744  -4.2618  -4.1347   4.8551   6.7074   6.7381   7.1208
     8.7425   8.7486   8.9667   9.3163   9.4247   9.4331

          k = 0.0000 0.0000 0.1919 (  6860 PWs)   bands (ev):

   -45.1814 -21.8751 -21.7791 -21.7753  -7.0191  -5.9724  -5.7043  -4.4265
    -4.4253  -4.3733  -4.2515  -4.1883   4.2061   6.7548   6.7811   7.4137
     8.5346   8.5459   8.9059   9.1937   9.5192   9.5233

          k = 0.0000 0.0000 0.3837 (  6862 PWs)   bands (ev):

   -45.1810 -21.9024 -21.7780 -21.7742  -6.7688  -5.8966  -5.6236  -4.4470
    -4.4459  -4.3716  -4.2816  -4.2356   3.5401   6.7165   6.8133   6.8302
     8.3097   8.3340   8.8118   9.6146   9.6153  10.3479

          k = 0.0000 0.1434 0.0000 (  6869 PWs)   bands (ev):

   -45.1814 -21.8574 -21.7951 -21.7753  -7.0544  -5.9892  -5.7340  -4.4313
    -4.4125  -4.3856  -4.2636  -4.1259   4.4642   6.7896   6.8013   7.1887
     8.6590   8.7546   8.9694   9.1451   9.1907   9.5618

          k = 0.0000 0.1434 0.1919 (  6875 PWs)   bands (ev):

   -45.1811 -21.8743 -21.7944 -21.7746  -6.9173  -5.9550  -5.6794  -4.4340
    -4.4256  -4.3848  -4.2566  -4.1597   3.9888   6.6683   6.8429   7.4652
     8.2784   8.5230   8.8916   9.0991   9.2631   9.7440

          k = 0.0000 0.1434 0.3837 (  6878 PWs)   bands (ev):

   -45.1807 -21.9015 -21.7932 -21.7735  -6.6862  -5.8949  -5.5888  -4.4466
    -4.4359  -4.3836  -4.2544  -4.2117   3.4219   6.3974   6.9077   7.0630
     8.0198   8.3027   8.9664   9.1386   9.3610  10.4497

          k = 0.0000 0.2869 0.0000 (  6863 PWs)   bands (ev):

   -45.1807 -21.8561 -21.8293 -21.7738  -6.7928  -5.9284  -5.6908  -4.4648
    -4.4111  -4.4093  -4.2610  -4.1248   3.8731   6.6275   7.0092   7.0499
     8.5094   8.5260   8.8493   8.8785   9.2795   9.9086

          k = 0.0000 0.2869 0.1919 (  6870 PWs)   bands (ev):

   -45.1805 -21.8727 -21.8285 -21.7731  -6.6844  -5.9048  -5.6274  -4.4460
    -4.4237  -4.4104  -4.2538  -4.1205   3.5857   6.4780   7.0795   7.1148
     8.0679   8.3457   8.5228   8.9350   9.2784  10.1492

          k = 0.0000 0.2869 0.3837 (  6874 PWs)   bands (ev):

   -45.1801 -21.8995 -21.8271 -21.7720  -6.5302  -5.8479  -5.5018  -4.4458
    -4.4104  -4.4087  -4.2755  -4.0926   3.1819   6.1320   6.9304   7.1569
     7.7172   8.0163   8.1993   8.9862   9.6757  10.2528

          k = 0.0000 0.4303 0.0000 (  6834 PWs)   bands (ev):

   -45.1802 -21.8576 -21.8539 -21.7727  -6.5611  -5.8632  -5.6839  -4.4874
    -4.4304  -4.4076  -4.2351  -4.1565   3.5466   6.1174   7.2795   7.3001
     7.9799   8.0476   8.7433   8.9168   9.3373  10.8186

          k = 0.0000 0.4303 0.1919 (  6838 PWs)   bands (ev):

   -45.1799 -21.8712 -21.8559 -21.7719  -6.5022  -5.8191  -5.6141  -4.4613
    -4.4309  -4.4220  -4.2127  -4.1270   3.3361   6.0980   7.1271   7.3931
     7.4847   7.9404   8.6563   8.8936   9.2666  10.5691

          k = 0.0000 0.4303 0.3837 (  6872 PWs)   bands (ev):

   -45.1795 -21.8977 -21.8543 -21.7707  -6.4535  -5.7316  -5.4389  -4.4451
    -4.4317  -4.4122  -4.2609  -4.0152   3.0239   5.9367   6.5629   7.3641
     7.4902   7.8838   7.8882   8.8705   9.8310  10.1313

          k = 0.1429 0.0000 0.0000 (  6881 PWs)   bands (ev):

   -45.1814 -21.8574 -21.7906 -21.7791  -7.0573  -5.9902  -5.7346  -4.4325
    -4.4113  -4.3852  -4.2636  -4.1267   4.4620   6.7843   6.8199   7.1917
     8.6515   8.7631   8.9672   9.1392   9.1930   9.5612

          k = 0.1429 0.0000 0.1919 (  6882 PWs)   bands (ev):

   -45.1811 -21.8744 -21.7899 -21.7784  -6.9204  -5.9554  -5.6799  -4.4352
    -4.4245  -4.3844  -4.2555  -4.1623   3.9859   6.6526   6.8687   7.4698
     8.2804   8.5342   8.8884   9.0903   9.2641   9.7413

          k = 0.1429 0.0000 0.3837 (  6884 PWs)   bands (ev):

   -45.1807 -21.9016 -21.7887 -21.7773  -6.6901  -5.8936  -5.5892  -4.4456
    -4.4367  -4.3832  -4.2516  -4.2175   3.4183   6.3873   6.9235   7.0669
     8.0112   8.3267   8.9702   9.1258   9.3661  10.4507

          k = 0.1429 0.1434 0.0000 (  6853 PWs)   bands (ev):

   -45.1811 -21.8568 -21.7945 -21.7899  -6.9495  -5.9633  -5.7237  -4.4363
    -4.4254  -4.3919  -4.2483  -4.1183   4.1811   6.7249   6.9317   7.2564
     8.3153   8.5040   9.0103   9.0554   9.3879   9.7119

          k = 0.1429 0.1434 0.1919 (  6875 PWs)   bands (ev):

   -45.1808 -21.8737 -21.7937 -21.7892  -6.8180  -5.9385  -5.6694  -4.4403
    -4.4265  -4.3905  -4.2397  -4.1385   3.8392   6.6198   6.6976   7.4842
     8.1607   8.2690   8.8291   9.1657   9.4225   9.7591

          k = 0.1429 0.1434 0.3837 (  6875 PWs)   bands (ev):

   -45.1805 -21.9007 -21.7925 -21.7880  -6.6021  -5.8972  -5.5727  -4.4599
    -4.4004  -4.3857  -4.2369  -4.1771   3.3666   6.4313   6.4425   7.1463
     8.0559   8.0748   8.7357   9.2371   9.4636  10.3186

          k = 0.1429 0.2869 0.0000 (  6861 PWs)   bands (ev):

   -45.1804 -21.8555 -21.8286 -21.7884  -6.6925  -5.9025  -5.7080  -4.4650
    -4.4197  -4.3896  -4.2294  -4.1172   3.6893   6.5866   7.0024   7.1560
     7.9288   8.3137   8.7560   9.1460   9.3788  10.1047

          k = 0.1429 0.2869 0.1919 (  6865 PWs)   bands (ev):

   -45.1802 -21.8720 -21.8278 -21.7876  -6.5841  -5.8931  -5.6506  -4.4485
    -4.4264  -4.3794  -4.2163  -4.1032   3.5269   6.4386   6.5894   7.1860
     7.7040   8.1946   8.8404   9.1239   9.3763  10.0673

          k = 0.1429 0.2869 0.3837 (  6873 PWs)   bands (ev):

   -45.1798 -21.8988 -21.8265 -21.7864  -6.4331  -5.8676  -5.5285  -4.4480
    -4.4071  -4.3454  -4.2240  -4.0715   3.2386   6.0758   6.4841   6.8185
     7.2610   8.0017   8.8661   9.1510   9.6867   9.9618

          k = 0.1429 0.4303 0.0000 (  6842 PWs)   bands (ev):

   -45.1799 -21.8568 -21.8532 -21.7871  -6.4665  -5.8400  -5.7218  -4.4757
    -4.4108  -4.3761  -4.2093  -4.1487   3.3909   6.1289   7.0798   7.4793
     7.5210   8.1115   8.5178   9.1309   9.4277  10.6308

          k = 0.1429 0.4303 0.1919 (  6853 PWs)   bands (ev):

   -45.1797 -21.8705 -21.8551 -21.7864  -6.4015  -5.8163  -5.6635  -4.4528
    -4.4147  -4.3634  -4.1831  -4.1080   3.3110   6.1017   6.5089   6.9993
     7.5556   8.3271   8.4949   9.1412   9.3937  10.2464

          k = 0.1429 0.4303 0.3837 (  6859 PWs)   bands (ev):

   -45.1793 -21.8970 -21.8536 -21.7852  -6.3526  -5.7664  -5.5016  -4.4424
    -4.3840  -4.3382  -4.2050  -3.9961   3.1411   5.9050   6.3121   6.5148
     6.8784   8.1405   8.8050   8.9980   9.4188  10.0669

          k = 0.2857 0.0000 0.0000 (  6853 PWs)   bands (ev):

   -45.1808 -21.8561 -21.8234 -21.7778  -6.8025  -5.9317  -5.6928  -4.4660
    -4.4099  -4.4081  -4.2622  -4.1266   3.8717   6.6381   7.0394   7.0513
     8.5138   8.5223   8.8475   8.8736   9.2796   9.9047

          k = 0.2857 0.0000 0.1919 (  6871 PWs)   bands (ev):

   -45.1805 -21.8728 -21.8225 -21.7771  -6.6947  -5.9061  -5.6292  -4.4474
    -4.4226  -4.4092  -4.2529  -4.1262   3.5799   6.4809   7.1049   7.1242
     8.0685   8.3564   8.5302   8.9417   9.2701  10.1390

          k = 0.2857 0.0000 0.3837 (  6884 PWs)   bands (ev):

   -45.1801 -21.8996 -21.8211 -21.7759  -6.5414  -5.8456  -5.5035  -4.4448
    -4.4104  -4.4092  -4.2740  -4.1020   3.1713   6.1278   6.9388   7.1701
     7.7339   8.0237   8.2216   8.9997   9.6560  10.2647

          k = 0.2857 0.1434 0.0000 (  6854 PWs)   bands (ev):

   -45.1805 -21.8555 -21.8226 -21.7930  -6.6991  -5.9048  -5.7094  -4.4654
    -4.4194  -4.3892  -4.2300  -4.1183   3.6892   6.5990   7.0136   7.1612
     7.9229   8.3133   8.7505   9.1579   9.3789  10.0993

          k = 0.2857 0.1434 0.1919 (  6867 PWs)   bands (ev):

   -45.1802 -21.8721 -21.8218 -21.7923  -6.5912  -5.8941  -5.6518  -4.4490
    -4.4261  -4.3791  -4.2151  -4.1072   3.5234   6.4425   6.6016   7.1894
     7.7003   8.2072   8.8533   9.1275   9.3729  10.0585

          k = 0.2857 0.1434 0.3837 (  6870 PWs)   bands (ev):

   -45.1798 -21.8988 -21.8204 -21.7911  -6.4407  -5.8664  -5.5296  -4.4484
    -4.4069  -4.3452  -4.2214  -4.0794   3.2310   6.0721   6.4947   6.8208
     7.2710   8.0123   8.8807   9.1667   9.6695   9.9703

          k = 0.2857 0.2869 0.0000 (  6855 PWs)   bands (ev):

   -45.1798 -21.8541 -21.8269 -21.8208  -6.4613  -5.8449  -5.7445  -4.4566
    -4.4152  -4.3463  -4.1713  -4.1156   3.3131   6.5808   6.6933   7.3675
     7.5308   7.8325   8.5755   9.1461   9.6608  10.1758

          k = 0.2857 0.2869 0.1919 (  6860 PWs)   bands (ev):

   -45.1796 -21.8705 -21.8262 -21.8201  -6.3561  -5.8640  -5.7018  -4.4301
    -4.4159  -4.3189  -4.1446  -4.0772   3.3525   6.2747   6.3001   6.7418
     7.4166   7.8060   9.0767   9.2683   9.6904   9.7992

          k = 0.2857 0.2869 0.3837 (  6870 PWs)   bands (ev):

   -45.1792 -21.8970 -21.8249 -21.8188  -6.2272  -5.8942  -5.5787  -4.4126
    -4.3878  -4.2601  -4.1087  -4.0201   3.3480   5.7977   5.9302   6.4105
     7.0658   7.2752   8.9711   9.6067   9.6382   9.8700

          k = 0.2857 0.4303 0.0000 (  6877 PWs)   bands (ev):

   -45.1793 -21.8550 -21.8517 -21.8194  -6.2684  -5.7932  -5.7704  -4.4495
    -4.3938  -4.2838  -4.1499  -4.1302   3.0467   6.1430   6.7178   7.2110
     7.6585   7.9024   8.1213   9.1508   9.7670  10.1119

          k = 0.2857 0.4303 0.1919 (  6849 PWs)   bands (ev):

   -45.1791 -21.8690 -21.8533 -21.8187  -6.1753  -5.8142  -5.7528  -4.4203
    -4.3873  -4.2382  -4.1152  -4.0669   3.1898   6.0624   6.1837   6.3993
     7.1594   7.9163   8.8653   9.3182   9.5146   9.8587

          k = 0.2857 0.4303 0.3837 (  6859 PWs)   bands (ev):

   -45.1787 -21.8954 -21.8520 -21.8175  -6.1208  -5.8390  -5.6179  -4.3912
    -4.3559  -4.1760  -4.0600  -3.9520   3.4180   5.5420   5.6950   6.0909
     6.6912   7.2583   8.2015   9.7217   9.7893  10.0769

          k = 0.4286 0.0000 0.0000 (  6830 PWs)   bands (ev):

   -45.1803 -21.8549 -21.8494 -21.7767  -6.5769  -5.8689  -5.6861  -4.4887
    -4.4285  -4.4066  -4.2393  -4.1571   3.5463   6.1429   7.3028   7.3138
     7.9681   8.0554   8.7459   8.9145   9.3373  10.8047

          k = 0.4286 0.0000 0.1919 (  6858 PWs)   bands (ev):

   -45.1800 -21.8713 -21.8487 -21.7759  -6.5176  -5.8233  -5.6157  -4.4628
    -4.4290  -4.4210  -4.2129  -4.1347   3.3288   6.1212   7.1303   7.4236
     7.4881   7.9466   8.6618   8.9010   9.2648  10.5625

          k = 0.4286 0.0000 0.3837 (  6870 PWs)   bands (ev):

   -45.1796 -21.8979 -21.8470 -21.7747  -6.4668  -5.7338  -5.4409  -4.4442
    -4.4298  -4.4139  -4.2615  -4.0275   3.0078   5.9445   6.5758   7.3806
     7.4984   7.8996   7.9082   8.8877   9.8444  10.1286

          k = 0.4286 0.1434 0.0000 (  6855 PWs)   bands (ev):

   -45.1800 -21.8543 -21.8486 -21.7918  -6.4787  -5.8450  -5.7237  -4.4764
    -4.4105  -4.3755  -4.2124  -4.1487   3.3916   6.1555   7.0910   7.4891
     7.5134   8.1079   8.5177   9.1452   9.4310  10.6159

          k = 0.4286 0.1434 0.1919 (  6866 PWs)   bands (ev):

   -45.1797 -21.8706 -21.8478 -21.7911  -6.4134  -5.8202  -5.6647  -4.4535
    -4.4147  -4.3627  -4.1819  -4.1149   3.3059   6.1256   6.5214   6.9908
     7.5528   8.3464   8.5127   9.1459   9.3946  10.2405

          k = 0.4286 0.1434 0.3837 (  6862 PWs)   bands (ev):

   -45.1793 -21.8972 -21.8463 -21.7899  -6.3623  -5.7694  -5.5029  -4.4428
    -4.3844  -4.3377  -4.2027  -4.0078   3.1272   5.9101   6.3261   6.5286
     6.8786   8.1492   8.8396   9.0119   9.4319  10.0571

          k = 0.4286 0.2869 0.0000 (  6884 PWs)   bands (ev):

   -45.1793 -21.8528 -21.8467 -21.8255  -6.2728  -5.7954  -5.7724  -4.4495
    -4.3941  -4.2856  -4.1468  -4.1329   3.0477   6.1712   6.6968   7.2131
     7.6664   7.9020   8.1182   9.1534   9.7973  10.0849

          k = 0.4286 0.2869 0.1919 (  6845 PWs)   bands (ev):

   -45.1791 -21.8690 -21.8460 -21.8249  -6.1794  -5.8169  -5.7535  -4.4201
    -4.3881  -4.2396  -4.1108  -4.0724   3.1886   6.0838   6.1900   6.3850
     7.1550   7.9173   8.8859   9.3185   9.5125   9.8618

          k = 0.4286 0.2869 0.3837 (  6854 PWs)   bands (ev):

   -45.1787 -21.8955 -21.8446 -21.8237  -6.1223  -5.8435  -5.6182  -4.3907
    -4.3573  -4.1766  -4.0533  -3.9619   3.4110   5.5496   5.6872   6.1029
     6.7014   7.2515   8.2165   9.7345   9.8028  10.0680

          k = 0.4286 0.4303 0.0000 (  6872 PWs)   bands (ev):

   -45.1788 -21.8536 -21.8504 -21.8451  -6.1550  -5.7570  -5.7501  -4.4346
    -4.3483  -4.2144  -4.1663  -4.0695   2.7807   6.0076   6.4120   7.3883
     7.4881   7.8664   8.0383   8.8846   9.4713  10.2331

          k = 0.4286 0.4303 0.1919 (  6864 PWs)   bands (ev):

   -45.1786 -21.8676 -21.8519 -21.8445  -6.0146  -5.8072  -5.7965  -4.4028
    -4.3422  -4.1321  -4.0753  -4.0352   3.0333   5.9606   6.1717   6.2261
     6.6050   7.8801   8.5153   9.2388   9.2587  10.2243

          k = 0.4286 0.4303 0.3837 (  6860 PWs)   bands (ev):

   -45.1782 -21.8940 -21.8507 -21.8432  -5.9319  -5.8876  -5.7002  -4.3514
    -4.3363  -4.0353  -3.9417  -3.9295   3.6062   5.3475   5.4551   5.8798
     6.5190   6.7934   7.1585  10.0612  10.0826  10.2114

     highest occupied level (ev):    10.8186

!    total energy              =    -380.57765547 Ry
     estimated scf accuracy    <          7.1E-11 Ry

     The total energy is the sum of the following terms:
     one-electron contribution =     -79.62677595 Ry
     hartree contribution      =      69.88746111 Ry
     xc contribution           =    -102.67386968 Ry
     ewald contribution        =    -268.16447094 Ry

     convergence has been achieved in   8 iterations

     negative rho (up, down):  1.583E-02 0.000E+00

     Forces acting on atoms (cartesian axes, Ry/au):

     atom    1 type  1   force =     0.00000000    0.00000000    0.00093205
     atom    2 type  2   force =     0.00000000    0.00000000    0.00001514
     atom    3 type  3   force =     0.00000000    0.00000000    0.00005494
     atom    4 type  3   force =     0.00000000    0.00000000   -0.00025721
     atom    5 type  3   force =     0.00000000    0.00000000   -0.00074492

     Total force =     0.001222     Total SCF correction =     0.000030


     Computing stress (Cartesian axis) and pressure


     negative rho (up, down):  1.583E-02 0.000E+00
          total   stress  (Ry/bohr**3)                   (kbar)     P=       -0.53
  -0.00003751   0.00000000   0.00000000           -5.52        0.00        0.00
   0.00000000   0.00001153   0.00000000            0.00        1.70        0.00
   0.00000000   0.00000000   0.00001524            0.00        0.00        2.24

     Energy error            =      5.6E-06 Ry
     Gradient error          =      9.3E-04 Ry/Bohr

     bfgs converged in   3 scf cycles and   2 bfgs steps
     (criteria: energy <  1.0E-04 Ry, force <  1.0E-03 Ry/Bohr)

     End of BFGS Geometry Optimization

     Final energy             =    -380.5776554657 Ry

     File ./PTO2.bfgs deleted, as requested
Begin final coordinates

ATOMIC_POSITIONS (crystal)
Pb            0.0000000000        0.0000000000        1.0051304260
Ti            0.5000000000        0.5000000000        0.5407129925
O             0.5000000000        0.5000000000        0.0987005310
O             0.5000000000        0.0000000000        0.6115898960
O             0.0000000000        0.5000000000        0.6111504424
End final coordinates



     Writing all to output data dir ./PTO2.save/
 
     init_run     :     16.85s CPU     17.21s WALL (       1 calls)
     electrons    :   2534.53s CPU   2614.43s WALL (       4 calls)
     update_pot   :      2.62s CPU      2.64s WALL (       3 calls)
     forces       :     13.97s CPU     14.37s WALL (       4 calls)
     stress       :     87.13s CPU     88.07s WALL (       4 calls)

     Called by init_run:
     wfcinit      :     11.84s CPU     12.10s WALL (       1 calls)
     potinit      :      0.18s CPU      0.18s WALL (       1 calls)
     hinit0       :      3.94s CPU      3.96s WALL (       1 calls)

     Called by electrons:
     c_bands      :   2298.50s CPU   2369.81s WALL (      44 calls)
     sum_band     :    203.96s CPU    209.53s WALL (      44 calls)
     v_of_rho     :      1.25s CPU      1.27s WALL (      45 calls)
     newd         :     33.14s CPU     36.24s WALL (      45 calls)
     mix_rho      :      0.62s CPU      0.65s WALL (      44 calls)

     Called by c_bands:
     init_us_2    :     57.83s CPU     58.12s WALL (    4656 calls)
     init_us_2:cp :     57.67s CPU     58.03s WALL (    4656 calls)
     ccgdiagg     :   2021.35s CPU   2084.88s WALL (    2112 calls)
     wfcrot       :    257.03s CPU    261.33s WALL (    1824 calls)

     Called by *cgdiagg:
     h_psi        :   1543.09s CPU   1580.85s WALL (  176336 calls)
     s_psi        :    379.50s CPU    399.29s WALL (  350848 calls)

     Called by h_psi:
     h_psi:calbec :    195.96s CPU    202.10s WALL (  176336 calls)
     vloc_psi     :   1136.51s CPU   1161.49s WALL (  176336 calls)
     add_vuspsi   :    194.34s CPU    202.92s WALL (  176336 calls)
     hs_1psi      :   1510.76s CPU   1552.07s WALL (  174512 calls)
     s_1psi       :    381.64s CPU    394.35s WALL (  174512 calls)

     General routines
     calbec       :    383.11s CPU    402.48s WALL (  353920 calls)
     fft          :      0.48s CPU      0.49s WALL (     218 calls)
     ffts         :      0.10s CPU      0.10s WALL (      44 calls)
     fftw         :   1042.21s CPU   1061.62s WALL (  476608 calls)
 
     Parallel routines
 
     PWSCF        :  44m18.96s CPU  45m42.66s WALL

 
   This run was terminated on:  10:40:48  11Apr2022            

=------------------------------------------------------------------------------=
   JOB DONE.
=------------------------------------------------------------------------------=
