
     Program PWSCF v.7.0 starts on 11Apr2022 at  8:29:18 

     This program is part of the open-source Quantum ESPRESSO suite
     for quantum simulation of materials; please cite
         "P. Giannozzi et al., J. Phys.:Condens. Matter 21 395502 (2009);
         "P. Giannozzi et al., J. Phys.:Condens. Matter 29 465901 (2017);
         "P. Giannozzi et al., J. Chem. Phys. 152 154105 (2020);
          URL http://www.quantum-espresso.org", 
     in publications or presentations arising from this work. More details at
     http://www.quantum-espresso.org/quote

     Parallel version (MPI), running on     1 processors

     MPI processes distributed on     1 nodes
     91221 MiB available memory on the printing compute node when the environment starts
 
     Waiting for input...
     Reading input from standard input
Warning: card &CELL ignored
Warning: card  CELL_DYNAMICS = 'BFGS', ignored
Warning: card  PRESS=0.1D0, ignored
Warning: card / ignored

     Current dimensions of program PWSCF are:
     Max number of different atomic species (ntypx) = 10
     Max number of k-points (npk) =  40000
     Max angular momentum in pseudopotentials (lmaxx) =  4

     File ./PTO2.update deleted, as requested

     File ./PTO2.bfgs deleted, as requested
     Message from routine setup:
     using ibrav=0 with symmetry is DISCOURAGED, use correct ibrav instead

     Subspace diagonalization in iterative solution of the eigenvalue problem:
     a serial algorithm will be used

 
     G-vector sticks info
     --------------------
     sticks:   dense  smooth     PW     G-vecs:    dense   smooth      PW
     Sum        1685    1685    481                54709    54709    8209
 
     Using Slab Decomposition
 


     bravais-lattice index     =            0
     lattice parameter (alat)  =       7.2864  a.u.
     unit-cell volume          =     404.8468 (a.u.)^3
     number of atoms/cell      =            5
     number of atomic types    =            3
     number of electrons       =        44.00
     number of Kohn-Sham states=           22
     kinetic-energy cutoff     =     100.0000  Ry
     charge density cutoff     =     400.0000  Ry
     scf convergence threshold =      1.0E-08
     mixing beta               =       0.7000
     number of iterations used =            8  plain     mixing
     energy convergence thresh.=      1.0E-04
     force convergence thresh. =      1.0E-03
     Exchange-correlation= SLA  PZ   NOGX NOGC
                           (   1   1   0   0   0   0   0)
     nstep                     =           50


     celldm(1)=   7.286406  celldm(2)=   0.000000  celldm(3)=   0.000000
     celldm(4)=   0.000000  celldm(5)=   0.000000  celldm(6)=   0.000000

     crystal axes: (cart. coord. in units of alat)
               a(1) = (   1.000000   0.000000   0.000000 )  
               a(2) = (   0.000000   1.000000   0.000000 )  
               a(3) = (   0.000000   0.000000   1.046527 )  

     reciprocal axes: (cart. coord. in units 2 pi/alat)
               b(1) = (  1.000000  0.000000  0.000000 )  
               b(2) = (  0.000000  1.000000  0.000000 )  
               b(3) = (  0.000000  0.000000  0.955541 )  


     PseudoPot. # 1 for Pb read from file:
     ./Pb_LDA.UPF
     MD5 check sum: 062a37469794d955244864f8fe2e5624
     Pseudo is Ultrasoft + core correction, Zval = 14.0
     Generated by new atomic code, or converted to UPF format
     Using radial grid of  899 points,  6 beta functions with: 
                l(1) =   0
                l(2) =   0
                l(3) =   1
                l(4) =   1
                l(5) =   2
                l(6) =   2
     Q(r) pseudized with  6 coefficients,  rinner =    1.000   1.000   1.000
                                                       1.000   1.000

     PseudoPot. # 2 for Ti read from file:
     ./Ti_LDA.UPF
     MD5 check sum: 0d9f225c038fe889ca2a701dcc8d72cb
     Pseudo is Ultrasoft + core correction, Zval = 12.0
     Generated by new atomic code, or converted to UPF format
     Using radial grid of  851 points,  6 beta functions with: 
                l(1) =   0
                l(2) =   0
                l(3) =   1
                l(4) =   1
                l(5) =   2
                l(6) =   2
     Q(r) pseudized with  6 coefficients,  rinner =    1.000   1.000   1.000
                                                       1.000   1.000

     PseudoPot. # 3 for O  read from file:
     ./O_LDA.UPF
     MD5 check sum: 194b818514d2a7dbb603bb78519a4f40
     Pseudo is Ultrasoft + core correction, Zval =  6.0
     Generated by new atomic code, or converted to UPF format
     Using radial grid of  737 points,  5 beta functions with: 
                l(1) =   0
                l(2) =   0
                l(3) =   1
                l(4) =   1
                l(5) =   2
     Q(r) pseudized with  8 coefficients,  rinner =    0.900   0.900   0.900
                                                       0.900   0.900

     atomic species   valence    mass     pseudopotential
        Pb            14.00   207.20000     Pb( 1.00)
        Ti            12.00    47.88000     Ti( 1.00)
        O              6.00    16.00000     O ( 1.00)

      8 Sym. Ops. (no inversion) found



   Cartesian axes

     site n.     atom                  positions (alat units)
         1           Pb  tau(   1) = (   0.0000000   0.0000000   1.0519592  )
         2           Ti  tau(   2) = (   0.5000000   0.5000000   0.5646144  )
         3           O   tau(   3) = (   0.5000000   0.5000000   0.1041072  )
         4           O   tau(   4) = (   0.5000000   0.0000000   0.6400052  )
         5           O   tau(   5) = (   0.0000000   0.5000000   0.6400052  )

     number of k points=    30
                       cart. coord. in units 2pi/alat
        k(    1) = (   0.0000000   0.0000000   0.0000000), wk =   0.0081633
        k(    2) = (   0.0000000   0.0000000   0.1911082), wk =   0.0163265
        k(    3) = (   0.0000000   0.0000000   0.3822165), wk =   0.0163265
        k(    4) = (   0.0000000   0.1428571   0.0000000), wk =   0.0326531
        k(    5) = (   0.0000000   0.1428571   0.1911082), wk =   0.0653061
        k(    6) = (   0.0000000   0.1428571   0.3822165), wk =   0.0653061
        k(    7) = (   0.0000000   0.2857143   0.0000000), wk =   0.0326531
        k(    8) = (   0.0000000   0.2857143   0.1911082), wk =   0.0653061
        k(    9) = (   0.0000000   0.2857143   0.3822165), wk =   0.0653061
        k(   10) = (   0.0000000   0.4285714   0.0000000), wk =   0.0326531
        k(   11) = (   0.0000000   0.4285714   0.1911082), wk =   0.0653061
        k(   12) = (   0.0000000   0.4285714   0.3822165), wk =   0.0653061
        k(   13) = (   0.1428571   0.1428571   0.0000000), wk =   0.0326531
        k(   14) = (   0.1428571   0.1428571   0.1911082), wk =   0.0653061
        k(   15) = (   0.1428571   0.1428571   0.3822165), wk =   0.0653061
        k(   16) = (   0.1428571   0.2857143   0.0000000), wk =   0.0653061
        k(   17) = (   0.1428571   0.2857143   0.1911082), wk =   0.1306122
        k(   18) = (   0.1428571   0.2857143   0.3822165), wk =   0.1306122
        k(   19) = (   0.1428571   0.4285714   0.0000000), wk =   0.0653061
        k(   20) = (   0.1428571   0.4285714   0.1911082), wk =   0.1306122
        k(   21) = (   0.1428571   0.4285714   0.3822165), wk =   0.1306122
        k(   22) = (   0.2857143   0.2857143   0.0000000), wk =   0.0326531
        k(   23) = (   0.2857143   0.2857143   0.1911082), wk =   0.0653061
        k(   24) = (   0.2857143   0.2857143   0.3822165), wk =   0.0653061
        k(   25) = (   0.2857143   0.4285714   0.0000000), wk =   0.0653061
        k(   26) = (   0.2857143   0.4285714   0.1911082), wk =   0.1306122
        k(   27) = (   0.2857143   0.4285714   0.3822165), wk =   0.1306122
        k(   28) = (   0.4285714   0.4285714   0.0000000), wk =   0.0326531
        k(   29) = (   0.4285714   0.4285714   0.1911082), wk =   0.0653061
        k(   30) = (   0.4285714   0.4285714   0.3822165), wk =   0.0653061

     Dense  grid:    54709 G-vectors     FFT dimensions: (  48,  48,  50)

     Estimated max dynamical RAM per process >     285.58 MB

     Check: negative core charge=   -0.000003

     Initial potential from superposition of free atoms

     starting charge      42.9982, renormalised to      44.0000

     negative rho (up, down):  1.705E-02 0.000E+00
     Starting wfcs are   31 randomized atomic wfcs

     total cpu time spent up to now is       13.4 secs

     Self-consistent Calculation

     iteration #  1     ecut=   100.00 Ry     beta= 0.70
     CG style diagonalization
     ethr =  1.00E-02,  avg # of iterations =  2.2

     negative rho (up, down):  1.434E-02 0.000E+00

     total cpu time spent up to now is       34.8 secs

     total energy              =    -380.06280127 Ry
     estimated scf accuracy    <       1.02431403 Ry

     iteration #  2     ecut=   100.00 Ry     beta= 0.70
     CG style diagonalization
     ethr =  2.33E-03,  avg # of iterations =  4.8

     negative rho (up, down):  1.505E-02 0.000E+00

     total cpu time spent up to now is       73.7 secs

     total energy              =    -379.78501554 Ry
     estimated scf accuracy    <       3.77496292 Ry

     iteration #  3     ecut=   100.00 Ry     beta= 0.70
     CG style diagonalization
     ethr =  2.33E-03,  avg # of iterations =  4.5

     negative rho (up, down):  1.563E-02 0.000E+00

     total cpu time spent up to now is      109.9 secs

     total energy              =    -380.54812025 Ry
     estimated scf accuracy    <       0.24699302 Ry

     iteration #  4     ecut=   100.00 Ry     beta= 0.70
     CG style diagonalization
     ethr =  5.61E-04,  avg # of iterations =  3.4

     negative rho (up, down):  1.567E-02 0.000E+00

     total cpu time spent up to now is      137.4 secs

     total energy              =    -380.56164857 Ry
     estimated scf accuracy    <       0.04948086 Ry

     iteration #  5     ecut=   100.00 Ry     beta= 0.70
     CG style diagonalization
     ethr =  1.12E-04,  avg # of iterations =  3.8

     negative rho (up, down):  1.567E-02 0.000E+00

     total cpu time spent up to now is      168.0 secs

     total energy              =    -380.57593957 Ry
     estimated scf accuracy    <       0.00499199 Ry

     iteration #  6     ecut=   100.00 Ry     beta= 0.70
     CG style diagonalization
     ethr =  1.13E-05,  avg # of iterations =  4.1

     negative rho (up, down):  1.566E-02 0.000E+00

     total cpu time spent up to now is      200.7 secs

     total energy              =    -380.57743206 Ry
     estimated scf accuracy    <       0.00690904 Ry

     iteration #  7     ecut=   100.00 Ry     beta= 0.70
     CG style diagonalization
     ethr =  1.13E-05,  avg # of iterations =  3.2

     negative rho (up, down):  1.567E-02 0.000E+00

     total cpu time spent up to now is      226.8 secs

     total energy              =    -380.57706189 Ry
     estimated scf accuracy    <       0.00233566 Ry

     iteration #  8     ecut=   100.00 Ry     beta= 0.70
     CG style diagonalization
     ethr =  5.31E-06,  avg # of iterations =  3.6

     negative rho (up, down):  1.569E-02 0.000E+00

     total cpu time spent up to now is      256.3 secs

     total energy              =    -380.57754625 Ry
     estimated scf accuracy    <       0.00001140 Ry

     iteration #  9     ecut=   100.00 Ry     beta= 0.70
     CG style diagonalization
     c_bands:  1 eigenvalues not converged
     c_bands:  1 eigenvalues not converged
     ethr =  2.59E-08,  avg # of iterations =  7.5

     negative rho (up, down):  1.572E-02 0.000E+00

     total cpu time spent up to now is      316.5 secs

     total energy              =    -380.57760089 Ry
     estimated scf accuracy    <       0.00001009 Ry

     iteration # 10     ecut=   100.00 Ry     beta= 0.70
     CG style diagonalization
     ethr =  2.29E-08,  avg # of iterations =  3.4

     negative rho (up, down):  1.581E-02 0.000E+00

     total cpu time spent up to now is      344.1 secs

     total energy              =    -380.57759917 Ry
     estimated scf accuracy    <       0.00000708 Ry

     iteration # 11     ecut=   100.00 Ry     beta= 0.70
     CG style diagonalization
     ethr =  1.61E-08,  avg # of iterations =  4.0

     negative rho (up, down):  1.581E-02 0.000E+00

     total cpu time spent up to now is      376.0 secs

     total energy              =    -380.57760070 Ry
     estimated scf accuracy    <       0.00000013 Ry

     iteration # 12     ecut=   100.00 Ry     beta= 0.70
     CG style diagonalization
     c_bands:  1 eigenvalues not converged
     c_bands:  1 eigenvalues not converged
     c_bands:  1 eigenvalues not converged
     c_bands:  1 eigenvalues not converged
     c_bands:  1 eigenvalues not converged
     c_bands:  1 eigenvalues not converged
     ethr =  2.87E-10,  avg # of iterations = 11.6

     negative rho (up, down):  1.582E-02 0.000E+00

     total cpu time spent up to now is      466.9 secs

     total energy              =    -380.57760219 Ry
     estimated scf accuracy    <       0.00000008 Ry

     iteration # 13     ecut=   100.00 Ry     beta= 0.70
     CG style diagonalization
     ethr =  1.89E-10,  avg # of iterations =  4.3

     negative rho (up, down):  1.582E-02 0.000E+00

     total cpu time spent up to now is      501.0 secs

     total energy              =    -380.57760222 Ry
     estimated scf accuracy    <       0.00000001 Ry

     iteration # 14     ecut=   100.00 Ry     beta= 0.70
     CG style diagonalization
     ethr =  2.54E-11,  avg # of iterations =  6.9

     negative rho (up, down):  1.582E-02 0.000E+00

     total cpu time spent up to now is      555.2 secs

     End of self-consistent calculation

          k = 0.0000 0.0000 0.0000 (  6853 PWs)   bands (ev):

   -45.0875 -21.7779 -21.6862 -21.6862  -7.1206  -5.9598  -5.7080  -4.3432
    -4.3432  -4.3043  -4.1899  -4.0656   4.9214   6.7790   6.7790   7.1768
     8.7637   8.7637   9.0157   9.3512   9.4965   9.4965

          k = 0.0000 0.0000 0.1911 (  6844 PWs)   bands (ev):

   -45.0872 -21.7951 -21.6855 -21.6855  -6.9748  -5.9166  -5.6564  -4.3560
    -4.3560  -4.3032  -4.1799  -4.1197   4.2604   6.8186   6.8186   7.4809
     8.5723   8.5723   8.9558   9.2407   9.5886   9.5886

          k = 0.0000 0.0000 0.3822 (  6828 PWs)   bands (ev):

   -45.0868 -21.8226 -21.6844 -21.6844  -6.7215  -5.8406  -5.5781  -4.3767
    -4.3767  -4.3015  -4.2132  -4.1651   3.5845   6.7864   6.8608   6.8608
     8.3738   8.3738   8.8632   9.6833   9.6833  10.4158

          k = 0.0000 0.1429 0.0000 (  6853 PWs)   bands (ev):

   -45.0872 -21.7773 -21.7016 -21.6856  -7.0119  -5.9338  -5.6850  -4.3625
    -4.3420  -4.3156  -4.1916  -4.0566   4.5259   6.8454   6.8615   7.2421
     8.6948   8.7793   9.0172   9.2063   9.2429   9.6124

          k = 0.0000 0.1429 0.1911 (  6847 PWs)   bands (ev):

   -45.0869 -21.7943 -21.7009 -21.6849  -6.8735  -5.8992  -5.6313  -4.3653
    -4.3552  -4.3148  -4.1845  -4.0914   4.0409   6.7095   6.9073   7.5271
     8.3272   8.5621   8.9480   9.1402   9.3278   9.8037

          k = 0.0000 0.1429 0.3822 (  6856 PWs)   bands (ev):

   -45.0865 -21.8217 -21.6997 -21.6837  -6.6400  -5.8382  -5.5431  -4.3763
    -4.3673  -4.3136  -4.1825  -4.1447   3.4646   6.4395   6.9558   7.1276
     8.0703   8.3661   9.0355   9.1802   9.4308  10.5214

          k = 0.0000 0.2857 0.0000 (  6837 PWs)   bands (ev):

   -45.0865 -21.7758 -21.7361 -21.6841  -6.7512  -5.8737  -5.6416  -4.3965
    -4.3411  -4.3388  -4.1898  -4.0550   3.9306   6.6881   7.0818   7.0923
     8.5768   8.5777   8.8970   8.9014   9.3250   9.9676

          k = 0.0000 0.2857 0.1911 (  6844 PWs)   bands (ev):

   -45.0863 -21.7926 -21.7352 -21.6834  -6.6419  -5.8494  -5.5790  -4.3779
    -4.3532  -4.3406  -4.1818  -4.0524   3.6350   6.5298   7.1457   7.1689
     8.1307   8.3969   8.5817   8.9873   9.3209  10.2107

          k = 0.0000 0.2857 0.3822 (  6848 PWs)   bands (ev):

   -45.0859 -21.8196 -21.7338 -21.6822  -6.4857  -5.7906  -5.4556  -4.3755
    -4.3410  -4.3406  -4.2038  -4.0257   3.2217   6.1731   6.9984   7.2065
     7.7850   8.0828   8.2614   9.0570   9.7128  10.3335

          k = 0.0000 0.4286 0.0000 (  6794 PWs)   bands (ev):

   -45.0860 -21.7745 -21.7636 -21.6829  -6.5203  -5.8091  -5.6346  -4.4191
    -4.3606  -4.3370  -4.1661  -4.0853   3.6022   6.1875   7.3418   7.3538
     8.0308   8.1164   8.7970   8.9337   9.3795  10.8855

          k = 0.0000 0.4286 0.1911 (  6820 PWs)   bands (ev):

   -45.0857 -21.7911 -21.7626 -21.6822  -6.4600  -5.7643  -5.5656  -4.3931
    -4.3612  -4.3515  -4.1413  -4.0594   3.3838   6.1653   7.1778   7.4642
     7.5401   7.9963   8.7140   8.9364   9.3135  10.6397

          k = 0.0000 0.4286 0.3822 (  6850 PWs)   bands (ev):

   -45.0853 -21.8179 -21.7610 -21.6810  -6.4087  -5.6755  -5.3928  -4.3748
    -4.3621  -4.3441  -4.1900  -3.9487   3.0620   5.9882   6.6263   7.4284
     7.5391   7.9486   7.9572   8.9394   9.9028  10.1886

          k = 0.1429 0.1429 0.0000 (  6825 PWs)   bands (ev):

   -45.0869 -21.7766 -21.7011 -21.7008  -6.9046  -5.9071  -5.6741  -4.3667
    -4.3560  -4.3222  -4.1762  -4.0481   4.2422   6.7810   6.9826   7.3059
     8.3403   8.5602   9.0577   9.1052   9.4587   9.7534

          k = 0.1429 0.1429 0.1911 (  6847 PWs)   bands (ev):

   -45.0866 -21.7936 -21.7004 -21.7000  -6.7718  -5.8822  -5.6208  -4.3711
    -4.3569  -4.3208  -4.1680  -4.0683   3.8930   6.6677   6.7467   7.5388
     8.2056   8.3302   8.8713   9.2147   9.4895   9.8198

          k = 0.1429 0.1429 0.3822 (  6847 PWs)   bands (ev):

   -45.0862 -21.8208 -21.6991 -21.6989  -6.5530  -5.8408  -5.5266  -4.3910
    -4.3308  -4.3159  -4.1657  -4.1069   3.4114   6.4747   6.4885   7.2076
     8.1184   8.1276   8.7919   9.2881   9.5289  10.3917

          k = 0.1429 0.2857 0.0000 (  6847 PWs)   bands (ev):

   -45.0862 -21.7752 -21.7353 -21.6994  -6.6487  -5.8470  -5.6582  -4.3959
    -4.3499  -4.3199  -4.1578  -4.0467   3.7472   6.6490   7.0543   7.2091
     7.9781   8.3414   8.8133   9.2057   9.4384  10.1590

          k = 0.1429 0.2857 0.1911 (  6838 PWs)   bands (ev):

   -45.0860 -21.7919 -21.7344 -21.6986  -6.5391  -5.8371  -5.6018  -4.3796
    -4.3566  -4.3098  -4.1439  -4.0339   3.5784   6.4891   6.6404   7.2436
     7.7538   8.2595   8.8991   9.1789   9.4253  10.1306

          k = 0.1429 0.2857 0.3822 (  6846 PWs)   bands (ev):

   -45.0856 -21.8188 -21.7330 -21.6974  -6.3857  -5.8104  -5.4821  -4.3792
    -4.3375  -4.2758  -4.1515  -4.0036   3.2807   6.1141   6.5372   6.8787
     7.3261   8.0726   8.9219   9.2249   9.7291  10.0366

          k = 0.1429 0.4286 0.0000 (  6820 PWs)   bands (ev):

   -45.0857 -21.7738 -21.7627 -21.6981  -6.4235  -5.7853  -5.6718  -4.4068
    -4.3407  -4.3065  -4.1394  -4.0770   3.4473   6.2000   7.1263   7.5380
     7.5717   8.1711   8.5395   9.1953   9.4814  10.6954

          k = 0.1429 0.4286 0.1911 (  6833 PWs)   bands (ev):

   -45.0855 -21.7904 -21.7618 -21.6974  -6.3568  -5.7612  -5.6145  -4.3840
    -4.3447  -4.2938  -4.1107  -4.0397   3.3611   6.1689   6.5596   7.0432
     7.6109   8.3939   8.5598   9.1875   9.4464  10.3142

          k = 0.1429 0.4286 0.3822 (  6834 PWs)   bands (ev):

   -45.0851 -21.8171 -21.7602 -21.6962  -6.3049  -5.7104  -5.4549  -4.3735
    -4.3142  -4.2689  -4.1325  -3.9292   3.1814   5.9522   6.3677   6.5759
     6.9338   8.2137   8.8865   9.0525   9.4973  10.1096

          k = 0.2857 0.2857 0.0000 (  6832 PWs)   bands (ev):

   -45.0856 -21.7737 -21.7337 -21.7333  -6.4129  -5.7875  -5.6930  -4.3868
    -4.3457  -4.2764  -4.0991  -4.0439   3.3697   6.6377   6.7476   7.4193
     7.5686   7.8559   8.6432   9.2050   9.7260  10.2382

          k = 0.2857 0.2857 0.1911 (  6831 PWs)   bands (ev):

   -45.0853 -21.7903 -21.7329 -21.7325  -6.3059  -5.8067  -5.6519  -4.3601
    -4.3465  -4.2491  -4.0724  -4.0053   3.4068   6.3202   6.3385   6.8012
     7.4712   7.8646   9.1271   9.3215   9.7537   9.8628

          k = 0.2857 0.2857 0.3822 (  6846 PWs)   bands (ev):

   -45.0849 -21.8170 -21.7315 -21.7313  -6.1738  -5.8370  -5.5315  -4.3432
    -4.3178  -4.1904  -4.0365  -3.9479   3.3962   5.8344   5.9750   6.4665
     7.1315   7.3407   9.0389   9.6566   9.7042   9.9201

          k = 0.2857 0.4286 0.0000 (  6842 PWs)   bands (ev):

   -45.0850 -21.7723 -21.7607 -21.7321  -6.2218  -5.7377  -5.7171  -4.3794
    -4.3241  -4.2143  -4.0762  -4.0594   3.1026   6.2155   6.7643   7.2442
     7.7166   7.9250   8.1816   9.2135   9.8475  10.1681

          k = 0.2857 0.4286 0.1911 (  6818 PWs)   bands (ev):

   -45.0848 -21.7887 -21.7600 -21.7313  -6.1260  -5.7584  -5.7017  -4.3500
    -4.3177  -4.1685  -4.0408  -3.9973   3.2434   6.1202   6.2330   6.4396
     7.2144   7.9758   8.9329   9.3656   9.5703   9.9266

          k = 0.2857 0.4286 0.3822 (  6833 PWs)   bands (ev):

   -45.0844 -21.8154 -21.7585 -21.7301  -6.0665  -5.7835  -5.5708  -4.3211
    -4.2859  -4.1066  -3.9844  -3.8838   3.4650   5.5876   5.7275   6.1552
     6.7572   7.3223   8.2752   9.7767   9.8631  10.1204

          k = 0.4286 0.4286 0.0000 (  6836 PWs)   bands (ev):

   -45.0845 -21.7708 -21.7593 -21.7591  -6.1086  -5.6996  -5.6922  -4.3641
    -4.2777  -4.1428  -4.0943  -3.9966   2.8348   6.0664   6.4721   7.4170
     7.5139   7.9204   8.0949   8.9470   9.5392  10.3040

          k = 0.4286 0.4286 0.1911 (  6840 PWs)   bands (ev):

   -45.0843 -21.7873 -21.7585 -21.7585  -5.9664  -5.7487  -5.7414  -4.3321
    -4.2716  -4.0603  -4.0029  -3.9626   3.0871   6.0164   6.2145   6.2671
     6.6610   7.9420   8.5793   9.2842   9.3031  10.2956

          k = 0.4286 0.4286 0.3822 (  6825 PWs)   bands (ev):

   -45.0839 -21.8138 -21.7572 -21.7572  -5.8745  -5.8299  -5.6531  -4.2804
    -4.2656  -3.9642  -3.8662  -3.8588   3.6592   5.3857   5.4929   5.9387
     6.5815   6.8554   7.2190  10.1094  10.1302  10.2822

     highest occupied level (ev):    10.8855

!    total energy              =    -380.57760224 Ry
     estimated scf accuracy    <          6.9E-09 Ry

     The total energy is the sum of the following terms:
     one-electron contribution =     -79.15657454 Ry
     hartree contribution      =      69.76773558 Ry
     xc contribution           =    -102.69273288 Ry
     ewald contribution        =    -268.49603040 Ry

     convergence has been achieved in  14 iterations

     negative rho (up, down):  1.582E-02 0.000E+00

     Forces acting on atoms (cartesian axes, Ry/au):

     atom    1 type  1   force =     0.00000000    0.00000000    0.00091011
     atom    2 type  2   force =     0.00000000    0.00000000    0.00471739
     atom    3 type  3   force =     0.00000000    0.00000000   -0.00508925
     atom    4 type  3   force =     0.00000000    0.00000000   -0.00026912
     atom    5 type  3   force =     0.00000000    0.00000000   -0.00026912

     Total force =     0.007009     Total SCF correction =     0.000173


     Computing stress (Cartesian axis) and pressure


     negative rho (up, down):  1.582E-02 0.000E+00
          total   stress  (Ry/bohr**3)                   (kbar)     P=        9.24
   0.00004777   0.00000000   0.00000000            7.03        0.00        0.00
   0.00000000   0.00004777   0.00000000            0.00        7.03        0.00
   0.00000000   0.00000000   0.00009295            0.00        0.00       13.67

     Energy error            =      9.4E-05 Ry
     Gradient error          =      5.1E-03 Ry/Bohr

     number of scf cycles    =   2
     number of bfgs steps    =   1

     energy             old  =    -380.5775080164 Ry
     energy             new  =    -380.5776022375 Ry

     CASE: energy            _new < energy            _old


     WARNING: bfgs curvature condition failed, Theta= 0.665
     new trust radius        =       0.0027595149 bohr
     new conv_thr            =            1.0E-10 Ry


ATOMIC_POSITIONS (crystal)
Pb            0.0000000000        0.0000000000        1.0052267610
Ti            0.5000000000        0.5000000000        0.5396006051
O             0.5000000000        0.5000000000        0.0993893716
O             0.5000000000        0.0000000000        0.6111894960
O             0.0000000000        0.5000000000        0.6118780542



 %%%%%%%%%%%%%%%%%%%%%%%%%%%%%%%%%%%%%%%%%%%%%%%%%%%%%%%%%%%%%%%%%%%%%%%%%%%%%%
     Error in routine checkallsym (1):
     some of the original symmetry operations not satisfied
 %%%%%%%%%%%%%%%%%%%%%%%%%%%%%%%%%%%%%%%%%%%%%%%%%%%%%%%%%%%%%%%%%%%%%%%%%%%%%%

     stopping ...
