
     Program PWSCF v.7.0 starts on 11Apr2022 at  8: 7:59 

     This program is part of the open-source Quantum ESPRESSO suite
     for quantum simulation of materials; please cite
         "P. Giannozzi et al., J. Phys.:Condens. Matter 21 395502 (2009);
         "P. Giannozzi et al., J. Phys.:Condens. Matter 29 465901 (2017);
         "P. Giannozzi et al., J. Chem. Phys. 152 154105 (2020);
          URL http://www.quantum-espresso.org", 
     in publications or presentations arising from this work. More details at
     http://www.quantum-espresso.org/quote

     Parallel version (MPI), running on     1 processors

     MPI processes distributed on     1 nodes
     90788 MiB available memory on the printing compute node when the environment starts
 
     Waiting for input...
     Reading input from standard input
Warning: card &CELL ignored
Warning: card  CELL_DYNAMICS = 'BFGS', ignored
Warning: card  PRESS=0.1D0, ignored
Warning: card / ignored

     Current dimensions of program PWSCF are:
     Max number of different atomic species (ntypx) = 10
     Max number of k-points (npk) =  40000
     Max angular momentum in pseudopotentials (lmaxx) =  4
     Message from routine setup:
     using ibrav=0 with symmetry is DISCOURAGED, use correct ibrav instead

     Subspace diagonalization in iterative solution of the eigenvalue problem:
     a serial algorithm will be used

 
     G-vector sticks info
     --------------------
     sticks:   dense  smooth     PW     G-vecs:    dense   smooth      PW
     Sum        1677    1677    481                54581    54581    8185
 
     Using Slab Decomposition
 


     bravais-lattice index     =            0
     lattice parameter (alat)  =       7.2428  a.u.
     unit-cell volume          =     404.0369 (a.u.)^3
     number of atoms/cell      =            5
     number of atomic types    =            3
     number of electrons       =        44.00
     number of Kohn-Sham states=           22
     kinetic-energy cutoff     =     100.0000  Ry
     charge density cutoff     =     400.0000  Ry
     scf convergence threshold =      1.0E-08
     mixing beta               =       0.7000
     number of iterations used =            8  plain     mixing
     energy convergence thresh.=      1.0E-04
     force convergence thresh. =      1.0E-03
     Exchange-correlation= SLA  PZ   NOGX NOGC
                           (   1   1   0   0   0   0   0)
     nstep                     =           50


     celldm(1)=   7.242753  celldm(2)=   0.000000  celldm(3)=   0.000000
     celldm(4)=   0.000000  celldm(5)=   0.000000  celldm(6)=   0.000000

     crystal axes: (cart. coord. in units of alat)
               a(1) = (   1.000000   0.000000   0.000000 )  
               a(2) = (   0.000000   1.006027   0.000000 )  
               a(3) = (   0.000000   0.000000   1.057062 )  

     reciprocal axes: (cart. coord. in units 2 pi/alat)
               b(1) = (  1.000000  0.000000  0.000000 )  
               b(2) = (  0.000000  0.994009  0.000000 )  
               b(3) = (  0.000000  0.000000  0.946019 )  


     PseudoPot. # 1 for Pb read from file:
     ./Pb_LDA.UPF
     MD5 check sum: 062a37469794d955244864f8fe2e5624
     Pseudo is Ultrasoft + core correction, Zval = 14.0
     Generated by new atomic code, or converted to UPF format
     Using radial grid of  899 points,  6 beta functions with: 
                l(1) =   0
                l(2) =   0
                l(3) =   1
                l(4) =   1
                l(5) =   2
                l(6) =   2
     Q(r) pseudized with  6 coefficients,  rinner =    1.000   1.000   1.000
                                                       1.000   1.000

     PseudoPot. # 2 for Ti read from file:
     ./Ti_LDA.UPF
     MD5 check sum: 0d9f225c038fe889ca2a701dcc8d72cb
     Pseudo is Ultrasoft + core correction, Zval = 12.0
     Generated by new atomic code, or converted to UPF format
     Using radial grid of  851 points,  6 beta functions with: 
                l(1) =   0
                l(2) =   0
                l(3) =   1
                l(4) =   1
                l(5) =   2
                l(6) =   2
     Q(r) pseudized with  6 coefficients,  rinner =    1.000   1.000   1.000
                                                       1.000   1.000

     PseudoPot. # 3 for O  read from file:
     ./O_LDA.UPF
     MD5 check sum: 194b818514d2a7dbb603bb78519a4f40
     Pseudo is Ultrasoft + core correction, Zval =  6.0
     Generated by new atomic code, or converted to UPF format
     Using radial grid of  737 points,  5 beta functions with: 
                l(1) =   0
                l(2) =   0
                l(3) =   1
                l(4) =   1
                l(5) =   2
     Q(r) pseudized with  8 coefficients,  rinner =    0.900   0.900   0.900
                                                       0.900   0.900

     atomic species   valence    mass     pseudopotential
        Pb            14.00   207.20000     Pb( 1.00)
        Ti            12.00    47.88000     Ti( 1.00)
        O              6.00    16.00000     O ( 1.00)

      4 Sym. Ops. (no inversion) found



   Cartesian axes

     site n.     atom                  positions (alat units)
         1           Pb  tau(   1) = (   0.0000000   0.0000000   1.0625482  )
         2           Ti  tau(   2) = (   0.5000000   0.5030135   0.5702978  )
         3           O   tau(   3) = (   0.5000000   0.5030135   0.1051551  )
         4           O   tau(   4) = (   0.5000000   0.0000000   0.6464475  )
         5           O   tau(   5) = (   0.0000000   0.5030135   0.6464475  )

     number of k points=    48
                       cart. coord. in units 2pi/alat
        k(    1) = (   0.0000000   0.0000000   0.0000000), wk =   0.0081633
        k(    2) = (   0.0000000   0.0000000   0.1892037), wk =   0.0163265
        k(    3) = (   0.0000000   0.0000000   0.3784075), wk =   0.0163265
        k(    4) = (   0.0000000   0.1420013   0.0000000), wk =   0.0163265
        k(    5) = (   0.0000000   0.1420013   0.1892037), wk =   0.0326531
        k(    6) = (   0.0000000   0.1420013   0.3784075), wk =   0.0326531
        k(    7) = (   0.0000000   0.2840026   0.0000000), wk =   0.0163265
        k(    8) = (   0.0000000   0.2840026   0.1892037), wk =   0.0326531
        k(    9) = (   0.0000000   0.2840026   0.3784075), wk =   0.0326531
        k(   10) = (   0.0000000   0.4260039   0.0000000), wk =   0.0163265
        k(   11) = (   0.0000000   0.4260039   0.1892037), wk =   0.0326531
        k(   12) = (   0.0000000   0.4260039   0.3784075), wk =   0.0326531
        k(   13) = (   0.1428571   0.0000000   0.0000000), wk =   0.0163265
        k(   14) = (   0.1428571   0.0000000   0.1892037), wk =   0.0326531
        k(   15) = (   0.1428571   0.0000000   0.3784075), wk =   0.0326531
        k(   16) = (   0.1428571   0.1420013   0.0000000), wk =   0.0326531
        k(   17) = (   0.1428571   0.1420013   0.1892037), wk =   0.0653061
        k(   18) = (   0.1428571   0.1420013   0.3784075), wk =   0.0653061
        k(   19) = (   0.1428571   0.2840026   0.0000000), wk =   0.0326531
        k(   20) = (   0.1428571   0.2840026   0.1892037), wk =   0.0653061
        k(   21) = (   0.1428571   0.2840026   0.3784075), wk =   0.0653061
        k(   22) = (   0.1428571   0.4260039   0.0000000), wk =   0.0326531
        k(   23) = (   0.1428571   0.4260039   0.1892037), wk =   0.0653061
        k(   24) = (   0.1428571   0.4260039   0.3784075), wk =   0.0653061
        k(   25) = (   0.2857143   0.0000000   0.0000000), wk =   0.0163265
        k(   26) = (   0.2857143   0.0000000   0.1892037), wk =   0.0326531
        k(   27) = (   0.2857143   0.0000000   0.3784075), wk =   0.0326531
        k(   28) = (   0.2857143   0.1420013   0.0000000), wk =   0.0326531
        k(   29) = (   0.2857143   0.1420013   0.1892037), wk =   0.0653061
        k(   30) = (   0.2857143   0.1420013   0.3784075), wk =   0.0653061
        k(   31) = (   0.2857143   0.2840026   0.0000000), wk =   0.0326531
        k(   32) = (   0.2857143   0.2840026   0.1892037), wk =   0.0653061
        k(   33) = (   0.2857143   0.2840026   0.3784075), wk =   0.0653061
        k(   34) = (   0.2857143   0.4260039   0.0000000), wk =   0.0326531
        k(   35) = (   0.2857143   0.4260039   0.1892037), wk =   0.0653061
        k(   36) = (   0.2857143   0.4260039   0.3784075), wk =   0.0653061
        k(   37) = (   0.4285714   0.0000000   0.0000000), wk =   0.0163265
        k(   38) = (   0.4285714   0.0000000   0.1892037), wk =   0.0326531
        k(   39) = (   0.4285714   0.0000000   0.3784075), wk =   0.0326531
        k(   40) = (   0.4285714   0.1420013   0.0000000), wk =   0.0326531
        k(   41) = (   0.4285714   0.1420013   0.1892037), wk =   0.0653061
        k(   42) = (   0.4285714   0.1420013   0.3784075), wk =   0.0653061
        k(   43) = (   0.4285714   0.2840026   0.0000000), wk =   0.0326531
        k(   44) = (   0.4285714   0.2840026   0.1892037), wk =   0.0653061
        k(   45) = (   0.4285714   0.2840026   0.3784075), wk =   0.0653061
        k(   46) = (   0.4285714   0.4260039   0.0000000), wk =   0.0326531
        k(   47) = (   0.4285714   0.4260039   0.1892037), wk =   0.0653061
        k(   48) = (   0.4285714   0.4260039   0.3784075), wk =   0.0653061

     Dense  grid:    54581 G-vectors     FFT dimensions: (  48,  48,  50)

     Estimated max dynamical RAM per process >     326.19 MB

     Check: negative core charge=   -0.000003

     Initial potential from superposition of free atoms

     starting charge      42.9982, renormalised to      44.0000

     negative rho (up, down):  1.702E-02 0.000E+00
     Starting wfcs are   31 randomized atomic wfcs

     total cpu time spent up to now is       19.2 secs

     Self-consistent Calculation

     iteration #  1     ecut=   100.00 Ry     beta= 0.70
     CG style diagonalization
     ethr =  1.00E-02,  avg # of iterations =  2.1

     negative rho (up, down):  1.432E-02 0.000E+00

     total cpu time spent up to now is       53.4 secs

     total energy              =    -380.06200567 Ry
     estimated scf accuracy    <       1.02544605 Ry

     iteration #  2     ecut=   100.00 Ry     beta= 0.70
     CG style diagonalization
     ethr =  2.33E-03,  avg # of iterations =  4.9

     negative rho (up, down):  1.504E-02 0.000E+00

     total cpu time spent up to now is      117.2 secs

     total energy              =    -379.79512576 Ry
     estimated scf accuracy    <       3.72023843 Ry

     iteration #  3     ecut=   100.00 Ry     beta= 0.70
     CG style diagonalization
     ethr =  2.33E-03,  avg # of iterations =  4.5

     negative rho (up, down):  1.562E-02 0.000E+00

     total cpu time spent up to now is      175.1 secs

     total energy              =    -380.54748056 Ry
     estimated scf accuracy    <       0.24351558 Ry

     iteration #  4     ecut=   100.00 Ry     beta= 0.70
     CG style diagonalization
     ethr =  5.53E-04,  avg # of iterations =  3.4

     negative rho (up, down):  1.565E-02 0.000E+00

     total cpu time spent up to now is      219.5 secs

     total energy              =    -380.56170436 Ry
     estimated scf accuracy    <       0.04842735 Ry

     iteration #  5     ecut=   100.00 Ry     beta= 0.70
     CG style diagonalization
     ethr =  1.10E-04,  avg # of iterations =  3.8

     negative rho (up, down):  1.565E-02 0.000E+00

     total cpu time spent up to now is      269.1 secs

     total energy              =    -380.57577137 Ry
     estimated scf accuracy    <       0.00493485 Ry

     iteration #  6     ecut=   100.00 Ry     beta= 0.70
     CG style diagonalization
     ethr =  1.12E-05,  avg # of iterations =  4.1

     negative rho (up, down):  1.565E-02 0.000E+00

     total cpu time spent up to now is      322.8 secs

     total energy              =    -380.57733245 Ry
     estimated scf accuracy    <       0.00687778 Ry

     iteration #  7     ecut=   100.00 Ry     beta= 0.70
     CG style diagonalization
     ethr =  1.12E-05,  avg # of iterations =  3.2

     negative rho (up, down):  1.566E-02 0.000E+00

     total cpu time spent up to now is      364.5 secs

     total energy              =    -380.57694263 Ry
     estimated scf accuracy    <       0.00239579 Ry

     iteration #  8     ecut=   100.00 Ry     beta= 0.70
     CG style diagonalization
     ethr =  5.44E-06,  avg # of iterations =  3.6

     negative rho (up, down):  1.568E-02 0.000E+00

     total cpu time spent up to now is      412.2 secs

     total energy              =    -380.57742519 Ry
     estimated scf accuracy    <       0.00000941 Ry

     iteration #  9     ecut=   100.00 Ry     beta= 0.70
     CG style diagonalization
     c_bands:  1 eigenvalues not converged
     c_bands:  1 eigenvalues not converged
     c_bands:  1 eigenvalues not converged
     c_bands:  1 eigenvalues not converged
     c_bands:  1 eigenvalues not converged
     ethr =  2.14E-08,  avg # of iterations =  8.1

     negative rho (up, down):  1.571E-02 0.000E+00

     total cpu time spent up to now is      516.3 secs

     total energy              =    -380.57748086 Ry
     estimated scf accuracy    <       0.00001864 Ry

     iteration # 10     ecut=   100.00 Ry     beta= 0.70
     CG style diagonalization
     ethr =  2.14E-08,  avg # of iterations =  3.6

     negative rho (up, down):  1.575E-02 0.000E+00

     total cpu time spent up to now is      562.3 secs

     total energy              =    -380.57748111 Ry
     estimated scf accuracy    <       0.00000837 Ry

     iteration # 11     ecut=   100.00 Ry     beta= 0.70
     CG style diagonalization
     ethr =  1.90E-08,  avg # of iterations =  3.1

     negative rho (up, down):  1.580E-02 0.000E+00

     total cpu time spent up to now is      602.4 secs

     total energy              =    -380.57747904 Ry
     estimated scf accuracy    <       0.00000559 Ry

     iteration # 12     ecut=   100.00 Ry     beta= 0.70
     CG style diagonalization
     ethr =  1.27E-08,  avg # of iterations =  4.0

     negative rho (up, down):  1.580E-02 0.000E+00

     total cpu time spent up to now is      653.5 secs

     total energy              =    -380.57748065 Ry
     estimated scf accuracy    <       0.00000067 Ry

     iteration # 13     ecut=   100.00 Ry     beta= 0.70
     CG style diagonalization
     ethr =  1.52E-09,  avg # of iterations =  6.6

     negative rho (up, down):  1.580E-02 0.000E+00

     total cpu time spent up to now is      737.1 secs

     total energy              =    -380.57748165 Ry
     estimated scf accuracy    <       0.00000003 Ry

     iteration # 14     ecut=   100.00 Ry     beta= 0.70
     CG style diagonalization
     c_bands:  1 eigenvalues not converged
     c_bands:  1 eigenvalues not converged
     c_bands:  1 eigenvalues not converged
     c_bands:  1 eigenvalues not converged
     c_bands:  1 eigenvalues not converged
     c_bands:  1 eigenvalues not converged
     c_bands:  1 eigenvalues not converged
     c_bands:  1 eigenvalues not converged
     ethr =  6.93E-11,  avg # of iterations = 10.2

     negative rho (up, down):  1.581E-02 0.000E+00

     total cpu time spent up to now is      866.0 secs

     total energy              =    -380.57748191 Ry
     estimated scf accuracy    <       0.00000002 Ry

     iteration # 15     ecut=   100.00 Ry     beta= 0.70
     CG style diagonalization
     ethr =  4.35E-11,  avg # of iterations =  4.6

     negative rho (up, down):  1.581E-02 0.000E+00

     total cpu time spent up to now is      924.2 secs

     End of self-consistent calculation

          k = 0.0000 0.0000 0.0000 (  6829 PWs)   bands (ev):

   -45.0524 -21.7362 -21.6587 -21.6521  -7.1062  -5.9413  -5.6767  -4.3070
    -4.3051  -4.2647  -4.1448  -4.0381   4.9434   6.7929   6.8408   7.1819
     8.7894   8.8002   9.0246   9.3812   9.5293   9.5388

          k = 0.0000 0.0000 0.1892 (  6820 PWs)   bands (ev):

   -45.0522 -21.7526 -21.6581 -21.6514  -6.9644  -5.8992  -5.6278  -4.3194
    -4.3176  -4.2637  -4.1369  -4.0906   4.2824   6.8342   6.8762   7.5111
     8.5996   8.6185   8.9684   9.2655   9.6216   9.6272

          k = 0.0000 0.0000 0.3784 (  6828 PWs)   bands (ev):

   -45.0518 -21.7789 -21.6570 -21.6504  -6.7178  -5.8256  -5.5546  -4.3392
    -4.3375  -4.2620  -4.1829  -4.1243   3.6098   6.8503   6.8819   6.9114
     8.3972   8.4334   8.8811   9.7164   9.7185  10.4267

          k = 0.0000 0.1420 0.0000 (  6833 PWs)   bands (ev):

   -45.0521 -21.7356 -21.6675 -21.6581  -6.9980  -5.9156  -5.6529  -4.3264
    -4.3039  -4.2760  -4.1474  -4.0285   4.5508   6.8465   6.9221   7.2537
     8.7231   8.8206   9.0395   9.2371   9.2738   9.6419

          k = 0.0000 0.1420 0.1892 (  6839 PWs)   bands (ev):

   -45.0519 -21.7519 -21.6668 -21.6574  -6.8639  -5.8815  -5.6017  -4.3294
    -4.3167  -4.2753  -4.1408  -4.0635   4.0620   6.7237   6.9638   7.5504
     8.3709   8.6102   8.9803   9.1552   9.3615   9.8273

          k = 0.0000 0.1420 0.3784 (  6847 PWs)   bands (ev):

   -45.0515 -21.7780 -21.6657 -21.6563  -6.6372  -5.8213  -5.5184  -4.3371
    -4.3313  -4.2742  -4.1415  -4.1159   3.4859   6.4769   7.0056   7.1726
     8.1040   8.4258   9.0720   9.1989   9.4656  10.5369

          k = 0.0000 0.2840 0.0000 (  6827 PWs)   bands (ev):

   -45.0515 -21.7342 -21.7019 -21.6566  -6.7390  -5.8554  -5.6076  -4.3604
    -4.3022  -4.3003  -4.1493  -4.0245   3.9579   6.7086   7.0884   7.1390
     8.5957   8.6290   8.9179   8.9241   9.3534  10.0103

          k = 0.0000 0.2840 0.1892 (  6821 PWs)   bands (ev):

   -45.0512 -21.7502 -21.7011 -21.6559  -6.6346  -5.8301  -5.5467  -4.3428
    -4.3148  -4.3012  -4.1403  -4.0248   3.6546   6.5483   7.1878   7.1993
     8.1715   8.4455   8.6215   9.0260   9.3319  10.2425

          k = 0.0000 0.2840 0.3784 (  6837 PWs)   bands (ev):

   -45.0508 -21.7760 -21.6998 -21.6548  -6.4844  -5.7705  -5.4284  -4.3363
    -4.3074  -4.3013  -4.1631  -4.0002   3.2354   6.2074   7.0316   7.2543
     7.8426   8.1214   8.3163   9.1008   9.7359  10.3666

          k = 0.0000 0.4260 0.0000 (  6796 PWs)   bands (ev):

   -45.0509 -21.7332 -21.7292 -21.6555  -6.5109  -5.7895  -5.5986  -4.3832
    -4.3213  -4.2989  -4.1321  -4.0497   3.6308   6.2140   7.3449   7.4066
     8.0312   8.1651   8.8170   8.9699   9.4047  10.9337

          k = 0.0000 0.4260 0.1892 (  6812 PWs)   bands (ev):

   -45.0507 -21.7486 -21.7286 -21.6548  -6.4554  -5.7442  -5.5296  -4.3583
    -4.3219  -4.3130  -4.1033  -4.0311   3.4028   6.1907   7.1991   7.5140
     7.5706   8.0434   8.7490   8.9824   9.3177  10.6979

          k = 0.0000 0.4260 0.3784 (  6831 PWs)   bands (ev):

   -45.0503 -21.7742 -21.7270 -21.6536  -6.4066  -5.6560  -5.3625  -4.3357
    -4.3229  -4.3110  -4.1518  -3.9255   3.0705   6.0184   6.6674   7.4747
     7.5857   7.9946   8.0016   8.9947   9.9387  10.2378

          k = 0.1429 0.0000 0.0000 (  6821 PWs)   bands (ev):

   -45.0521 -21.7356 -21.6753 -21.6514  -6.9936  -5.9136  -5.6520  -4.3247
    -4.3057  -4.2766  -4.1473  -4.0269   4.5534   6.8721   6.8749   7.2503
     8.7364   8.8073   9.0446   9.2408   9.2693   9.6411

          k = 0.1429 0.0000 0.1892 (  6832 PWs)   bands (ev):

   -45.0519 -21.7518 -21.6746 -21.6507  -6.8591  -5.8804  -5.6010  -4.3278
    -4.3184  -4.2759  -4.1428  -4.0589   4.0657   6.7492   6.9228   7.5437
     8.3691   8.5913   8.9833   9.1698   9.3590   9.8300

          k = 0.1429 0.0000 0.3784 (  6830 PWs)   bands (ev):

   -45.0515 -21.7779 -21.6734 -21.6496  -6.6314  -5.8224  -5.5179  -4.3387
    -4.3305  -4.2748  -4.1465  -4.1058   3.4906   6.4943   6.9778   7.1679
     8.1163   8.3896   9.0635   9.2191   9.4590  10.5348

          k = 0.1429 0.1420 0.0000 (  6822 PWs)   bands (ev):

   -45.0518 -21.7349 -21.6746 -21.6668  -6.8866  -5.8873  -5.6409  -4.3291
    -4.3193  -4.2835  -4.1321  -4.0180   4.2710   6.8099   6.9884   7.3204
     8.3609   8.5929   9.1013   9.1265   9.4961   9.7865

          k = 0.1429 0.1420 0.1892 (  6829 PWs)   bands (ev):

   -45.0516 -21.7511 -21.6739 -21.6661  -6.7579  -5.8633  -5.5898  -4.3341
    -4.3196  -4.2822  -4.1250  -4.0374   3.9171   6.6948   6.7725   7.5593
     8.2319   8.3748   8.9118   9.2360   9.5257   9.8490

          k = 0.1429 0.1420 0.3784 (  6833 PWs)   bands (ev):

   -45.0512 -21.7771 -21.6727 -21.6649  -6.5452  -5.8234  -5.5006  -4.3537
    -4.2935  -4.2784  -4.1247  -4.0744   3.4342   6.5028   6.5432   7.2346
     8.1493   8.1771   8.8339   9.3136   9.5648  10.4114

          k = 0.1429 0.2840 0.0000 (  6819 PWs)   bands (ev):

   -45.0511 -21.7335 -21.7011 -21.6730  -6.6315  -5.8277  -5.6248  -4.3588
    -4.3126  -4.2814  -4.1154  -4.0147   3.7782   6.6729   7.0782   7.2182
     7.9960   8.3685   8.8291   9.2508   9.4694  10.2058

          k = 0.1429 0.2840 0.1892 (  6831 PWs)   bands (ev):

   -45.0509 -21.7494 -21.7003 -21.6723  -6.5268  -5.8171  -5.5696  -4.3432
    -4.3189  -4.2714  -4.1011  -4.0043   3.6019   6.5082   6.6689   7.2734
     7.7796   8.3006   8.9398   9.2131   9.4509  10.1682

          k = 0.1429 0.2840 0.3784 (  6833 PWs)   bands (ev):

   -45.0505 -21.7751 -21.6990 -21.6712  -6.3792  -5.7899  -5.4547  -4.3422
    -4.3001  -4.2391  -4.1088  -3.9766   3.2968   6.1431   6.5776   6.9167
     7.3608   8.1149   8.9855   9.2677   9.7569  10.0665

          k = 0.1429 0.4260 0.0000 (  6822 PWs)   bands (ev):

   -45.0506 -21.7324 -21.7282 -21.6718  -6.4077  -5.7654  -5.6384  -4.3698
    -4.3032  -4.2672  -4.1025  -4.0405   3.4801   6.2277   7.1494   7.5455
     7.5890   8.1856   8.5746   9.2384   9.5098  10.7350

          k = 0.1429 0.4260 0.1892 (  6806 PWs)   bands (ev):

   -45.0504 -21.7479 -21.7277 -21.6711  -6.3464  -5.7407  -5.5804  -4.3478
    -4.3069  -4.2538  -4.0712  -4.0099   3.3847   6.1950   6.5860   7.0610
     7.6437   8.4374   8.5970   9.2256   9.4643  10.3653

          k = 0.1429 0.4260 0.3784 (  6828 PWs)   bands (ev):

   -45.0500 -21.7734 -21.7262 -21.6699  -6.2971  -5.6906  -5.4259  -4.3367
    -4.2776  -4.2294  -4.0927  -3.9049   3.1928   5.9807   6.3975   6.6099
     6.9842   8.2515   8.9446   9.1117   9.5522  10.1285

          k = 0.2857 0.0000 0.0000 (  6817 PWs)   bands (ev):

   -45.0514 -21.7342 -21.7120 -21.6498  -6.7244  -5.8492  -5.6044  -4.3588
    -4.3039  -4.3020  -4.1467  -4.0213   3.9585   6.6926   7.0847   7.0920
     8.6079   8.6085   8.9244   8.9273   9.3516  10.0151

          k = 0.2857 0.0000 0.1892 (  6834 PWs)   bands (ev):

   -45.0511 -21.7501 -21.7113 -21.6491  -6.6192  -5.8264  -5.5440  -4.3408
    -4.3163  -4.3031  -4.1417  -4.0151   3.6614   6.5449   7.1588   7.1729
     8.1671   8.4266   8.6089   9.0153   9.3458  10.2564

          k = 0.2857 0.0000 0.3784 (  6842 PWs)   bands (ev):

   -45.0508 -21.7758 -21.7100 -21.6480  -6.4679  -5.7711  -5.4261  -4.3378
    -4.3055  -4.3033  -4.1656  -3.9846   3.2487   6.2151   7.0175   7.2300
     7.8185   8.1067   8.2811   9.0827   9.7650  10.3487

          k = 0.2857 0.1420 0.0000 (  6829 PWs)   bands (ev):

   -45.0511 -21.7336 -21.7112 -21.6651  -6.6215  -5.8231  -5.6225  -4.3583
    -4.3129  -4.2819  -4.1140  -4.0128   3.7775   6.6541   7.0631   7.2065
     8.0028   8.3688   8.8343   9.2319   9.4697  10.2136

          k = 0.2857 0.1420 0.1892 (  6825 PWs)   bands (ev):

   -45.0508 -21.7494 -21.7105 -21.6644  -6.5164  -5.8143  -5.5677  -4.3426
    -4.3192  -4.2719  -4.1030  -3.9974   3.6058   6.5032   6.6503   7.2662
     7.7795   8.2845   8.9198   9.2059   9.4556  10.1813

          k = 0.2857 0.1420 0.3784 (  6827 PWs)   bands (ev):

   -45.0505 -21.7750 -21.7093 -21.6632  -6.3682  -5.7897  -5.4531  -4.3415
    -4.3003  -4.2397  -4.1133  -3.9636   3.3063   6.1498   6.5614   6.9120
     7.3419   8.0989   8.9642   9.2430   9.7822  10.0546

          k = 0.2857 0.2840 0.0000 (  6831 PWs)   bands (ev):

   -45.0504 -21.7321 -21.7094 -21.6991  -6.3844  -5.7652  -5.6610  -4.3486
    -4.3082  -4.2381  -4.0539  -4.0089   3.4045   6.6461   6.7670   7.4179
     7.5797   7.8816   8.6531   9.2341   9.7644  10.2862

          k = 0.2857 0.2840 0.1892 (  6820 PWs)   bands (ev):

   -45.0502 -21.7477 -21.7088 -21.6984  -6.2828  -5.7842  -5.6200  -4.3225
    -4.3086  -4.2107  -4.0288  -3.9710   3.4366   6.3312   6.3553   6.8266
     7.4918   7.8916   9.1476   9.3381   9.7906   9.9125

          k = 0.2857 0.2840 0.3784 (  6824 PWs)   bands (ev):

   -45.0498 -21.7732 -21.7076 -21.6972  -6.1562  -5.8143  -5.5039  -4.3052
    -4.2809  -4.1523  -3.9958  -3.9141   3.4182   5.8584   5.9951   6.5121
     7.1636   7.3579   9.0946   9.6866   9.7373   9.9531

          k = 0.2857 0.4260 0.0000 (  6836 PWs)   bands (ev):

   -45.0499 -21.7309 -21.7262 -21.7080  -6.1908  -5.7150  -5.6910  -4.3407
    -4.2861  -4.1774  -4.0354  -4.0166   3.1406   6.2471   6.7585   7.2555
     7.7235   7.9535   8.1865   9.2397   9.9115  10.1753

          k = 0.2857 0.4260 0.1892 (  6815 PWs)   bands (ev):

   -45.0497 -21.7462 -21.7257 -21.7074  -6.1020  -5.7364  -5.6720  -4.3119
    -4.2798  -4.1294  -3.9977  -3.9624   3.2755   6.1458   6.2507   6.4488
     7.2314   8.0118   8.9526   9.3866   9.6062   9.9668

          k = 0.2857 0.4260 0.3784 (  6812 PWs)   bands (ev):

   -45.0493 -21.7715 -21.7244 -21.7063  -6.0457  -5.7631  -5.5438  -4.2827
    -4.2496  -4.0646  -3.9420  -3.8564   3.4840   5.6090   5.7462   6.1886
     6.8044   7.3425   8.3294   9.8223   9.9100  10.1384

          k = 0.4286 0.0000 0.0000 (  6799 PWs)   bands (ev):

   -45.0508 -21.7422 -21.7321 -21.6485  -6.4880  -5.7777  -5.5951  -4.3814
    -4.3243  -4.3004  -4.1237  -4.0488   3.6294   6.1735   7.3350   7.3538
     8.0445   8.1509   8.8177   8.9695   9.4030  10.9541

          k = 0.4286 0.0000 0.1892 (  6799 PWs)   bands (ev):

   -45.0506 -21.7485 -21.7406 -21.6478  -6.4331  -5.7344  -5.5268  -4.3562
    -4.3250  -4.3144  -4.1030  -4.0179   3.4111   6.1545   7.1915   7.4661
     7.5613   8.0308   8.7401   8.9708   9.3214  10.7077

          k = 0.4286 0.0000 0.3784 (  6840 PWs)   bands (ev):

   -45.0502 -21.7739 -21.7392 -21.6467  -6.3873  -5.6485  -5.3594  -4.3370
    -4.3259  -4.3089  -4.1515  -3.9054   3.0909   6.0070   6.6436   7.4499
     7.5673   7.9568   7.9842   8.9720   9.9175  10.2425

          k = 0.4286 0.1420 0.0000 (  6820 PWs)   bands (ev):

   -45.0505 -21.7413 -21.7314 -21.6637  -6.3904  -5.7549  -5.6355  -4.3689
    -4.3035  -4.2679  -4.0962  -4.0407   3.4775   6.1853   7.1314   7.5282
     7.5968   8.1894   8.5728   9.2180   9.5040  10.7571

          k = 0.4286 0.1420 0.1892 (  6824 PWs)   bands (ev):

   -45.0503 -21.7478 -21.7398 -21.6630  -6.3297  -5.7315  -5.5783  -4.3469
    -4.3068  -4.2549  -4.0733  -3.9981   3.3901   6.1577   6.5665   7.0700
     7.6443   8.4073   8.5714   9.2163   9.4631  10.3744

          k = 0.4286 0.1420 0.3784 (  6817 PWs)   bands (ev):

   -45.0499 -21.7731 -21.7385 -21.6619  -6.2837  -5.6821  -5.4238  -4.3360
    -4.2770  -4.2303  -4.0969  -3.8858   3.2100   5.9738   6.3765   6.5850
     6.9809   8.2393   8.8905   9.0904   9.5318  10.1450

          k = 0.4286 0.2840 0.0000 (  6828 PWs)   bands (ev):

   -45.0498 -21.7393 -21.7299 -21.6976  -6.1852  -5.7113  -5.6864  -4.3408
    -4.2857  -4.1736  -4.0405  -4.0121   3.1384   6.2017   6.7904   7.2528
     7.7085   7.9544   8.1905   9.2369   9.8636  10.2176

          k = 0.4286 0.2840 0.1892 (  6806 PWs)   bands (ev):

   -45.0496 -21.7462 -21.7379 -21.6970  -6.0974  -5.7300  -5.6704  -4.3124
    -4.2785  -4.1268  -4.0055  -3.9528   3.2761   6.1142   6.2401   6.4672
     7.2381   8.0116   8.9199   9.3865   9.6083   9.9625

          k = 0.4286 0.2840 0.3784 (  6811 PWs)   bands (ev):

   -45.0492 -21.7714 -21.7368 -21.6958  -6.0455  -5.7529  -5.5433  -4.2837
    -4.2471  -4.0637  -3.9530  -3.8403   3.4921   5.5986   5.7588   6.1671
     6.7861   7.3568   8.3052   9.8028   9.8904  10.1509

          k = 0.4286 0.4260 0.0000 (  6819 PWs)   bands (ev):

   -45.0493 -21.7377 -21.7287 -21.7245  -6.0684  -5.6769  -5.6658  -4.3250
    -4.2380  -4.1052  -4.0566  -3.9452   2.8743   6.0786   6.4718   7.4328
     7.5368   7.9213   8.0992   8.9717   9.5394  10.3469

          k = 0.4286 0.4260 0.1892 (  6816 PWs)   bands (ev):

   -45.0491 -21.7447 -21.7365 -21.7241  -5.9329  -5.7256  -5.7126  -4.2938
    -4.2317  -4.0220  -3.9668  -3.9136   3.1224   6.0281   6.2289   6.2857
     6.6693   7.9817   8.5848   9.2934   9.3172  10.3377

          k = 0.4286 0.4260 0.3784 (  6814 PWs)   bands (ev):

   -45.0487 -21.7699 -21.7354 -21.7229  -5.8494  -5.8025  -5.6274  -4.2434
    -4.2256  -3.9188  -3.8339  -3.8185   3.6832   5.4061   5.5193   5.9604
     6.5812   6.9090   7.2500  10.1319  10.1550  10.3242

     highest occupied level (ev):    10.9541

!    total energy              =    -380.57748191 Ry
     estimated scf accuracy    <          9.3E-09 Ry

     The total energy is the sum of the following terms:
     one-electron contribution =     -78.94869382 Ry
     hartree contribution      =      69.71876734 Ry
     xc contribution           =    -102.70062246 Ry
     ewald contribution        =    -268.64693297 Ry

     convergence has been achieved in  15 iterations

     negative rho (up, down):  1.581E-02 0.000E+00

     Forces acting on atoms (cartesian axes, Ry/au):

     atom    1 type  1   force =     0.00000000    0.00000000    0.00145129
     atom    2 type  2   force =     0.00000000    0.00000000   -0.00050012
     atom    3 type  3   force =     0.00000000    0.00000000   -0.00121302
     atom    4 type  3   force =     0.00000000    0.00000000   -0.00054509
     atom    5 type  3   force =     0.00000000    0.00000000    0.00080694

     Total force =     0.002185     Total SCF correction =     0.000384
     SCF correction compared to forces is large: reduce conv_thr to get better values


     Computing stress (Cartesian axis) and pressure


     negative rho (up, down):  1.581E-02 0.000E+00
          total   stress  (Ry/bohr**3)                   (kbar)     P=       13.63
   0.00014871   0.00000000   0.00000000           21.88        0.00        0.00
   0.00000000   0.00006874   0.00000000            0.00       10.11        0.00
   0.00000000   0.00000000   0.00006044            0.00        0.00        8.89

     Energy error            =      2.1E-05 Ry
     Gradient error          =      1.5E-03 Ry/Bohr

     number of scf cycles    =   2
     number of bfgs steps    =   1

     energy             old  =    -380.5775024817 Ry
     energy             new  =    -380.5774819130 Ry

     CASE: energy            _new > energy            _old

     new trust radius        =       0.0000000000 bohr

     trust_radius < trust_radius_min

     resetting bfgs history

     new conv_thr            =       0.0000000100 Ry


ATOMIC_POSITIONS (crystal)
Pb            0.0000000000        0.0000000000        1.0051812994
Ti            0.5000000000        0.5000000000        0.5395432289
O             0.5000000000        0.5000000000        0.0994610791
O             0.5000000000        0.0000000000        0.6113843436
O             0.0000000000        0.5000000000        0.6117143370



     Writing config-only to output data dir ./PTO2.save/
     NEW-OLD atomic charge density approx. for the potential

     Check: negative core charge=   -0.000003

     negative rho (up, down):  1.581E-02 0.000E+00

     total cpu time spent up to now is      952.3 secs

     Self-consistent Calculation

     iteration #  1     ecut=   100.00 Ry     beta= 0.70
     CG style diagonalization
     ethr =  1.00E-06,  avg # of iterations =  2.4

     Threshold (ethr) on eigenvalues was too large:
     Diagonalizing with lowered threshold

     CG style diagonalization
     c_bands:  2 eigenvalues not converged
     c_bands:  1 eigenvalues not converged
     c_bands:  2 eigenvalues not converged
     c_bands:  2 eigenvalues not converged
     c_bands:  1 eigenvalues not converged
     c_bands:  1 eigenvalues not converged
     c_bands:  1 eigenvalues not converged
     c_bands:  1 eigenvalues not converged
     c_bands:  1 eigenvalues not converged
     c_bands:  1 eigenvalues not converged
     c_bands:  1 eigenvalues not converged
     c_bands:  3 eigenvalues not converged
     c_bands:  3 eigenvalues not converged
     c_bands:  3 eigenvalues not converged
     c_bands:  1 eigenvalues not converged
     c_bands:  1 eigenvalues not converged
     c_bands:  1 eigenvalues not converged
     c_bands:  1 eigenvalues not converged
     c_bands:  3 eigenvalues not converged
     c_bands:  5 eigenvalues not converged
     c_bands:  3 eigenvalues not converged
     c_bands:  2 eigenvalues not converged
     ethr =  7.72E-10,  avg # of iterations =  8.0

     negative rho (up, down):  1.581E-02 0.000E+00

     total cpu time spent up to now is     1095.7 secs

     total energy              =    -380.57748385 Ry
     estimated scf accuracy    <       0.00000042 Ry

     iteration #  2     ecut=   100.00 Ry     beta= 0.70
     CG style diagonalization
     ethr =  9.52E-10,  avg # of iterations =  4.6

     negative rho (up, down):  1.581E-02 0.000E+00

     total cpu time spent up to now is     1155.2 secs

     total energy              =    -380.57748380 Ry
     estimated scf accuracy    <       0.00000089 Ry

     iteration #  3     ecut=   100.00 Ry     beta= 0.70
     CG style diagonalization
     ethr =  9.52E-10,  avg # of iterations =  4.3

     negative rho (up, down):  1.581E-02 0.000E+00

     total cpu time spent up to now is     1211.4 secs

     total energy              =    -380.57748400 Ry
     estimated scf accuracy    <       0.00000009 Ry

     iteration #  4     ecut=   100.00 Ry     beta= 0.70
     CG style diagonalization
     ethr =  2.11E-10,  avg # of iterations =  3.5

     negative rho (up, down):  1.581E-02 0.000E+00

     total cpu time spent up to now is     1256.4 secs

     End of self-consistent calculation

          k = 0.0000 0.0000 0.0000 (  6829 PWs)   bands (ev):

   -45.0523 -21.7359 -21.6586 -21.6521  -7.1063  -5.9415  -5.6766  -4.3071
    -4.3052  -4.2648  -4.1448  -4.0381   4.9433   6.7930   6.8405   7.1818
     8.7909   8.8007   9.0246   9.3820   9.5286   9.5393

          k = 0.0000 0.0000 0.1892 (  6820 PWs)   bands (ev):

   -45.0521 -21.7522 -21.6579 -21.6515  -6.9645  -5.8995  -5.6276  -4.3194
    -4.3176  -4.2637  -4.1370  -4.0907   4.2825   6.8347   6.8758   7.5111
     8.6007   8.6189   8.9684   9.2659   9.6214   9.6272

          k = 0.0000 0.0000 0.3784 (  6828 PWs)   bands (ev):

   -45.0517 -21.7785 -21.6569 -21.6504  -6.7180  -5.8258  -5.5543  -4.3392
    -4.3376  -4.2620  -4.1829  -4.1243   3.6101   6.8503   6.8831   6.9108
     8.3972   8.4339   8.8811   9.7165   9.7181  10.4267

          k = 0.0000 0.1420 0.0000 (  6833 PWs)   bands (ev):

   -45.0520 -21.7352 -21.6676 -21.6579  -6.9981  -5.9157  -5.6527  -4.3265
    -4.3040  -4.2761  -4.1474  -4.0284   4.5505   6.8465   6.9218   7.2540
     8.7239   8.8212   9.0402   9.2361   9.2736   9.6418

          k = 0.0000 0.1420 0.1892 (  6839 PWs)   bands (ev):

   -45.0518 -21.7515 -21.6668 -21.6573  -6.8641  -5.8816  -5.6015  -4.3295
    -4.3167  -4.2753  -4.1408  -4.0635   4.0619   6.7241   6.9635   7.5506
     8.3715   8.6105   8.9797   9.1557   9.3613   9.8271

          k = 0.0000 0.1420 0.3784 (  6847 PWs)   bands (ev):

   -45.0514 -21.7776 -21.6657 -21.6562  -6.6375  -5.8214  -5.5181  -4.3372
    -4.3315  -4.2742  -4.1415  -4.1158   3.4859   6.4775   7.0050   7.1730
     8.1040   8.4262   9.0712   9.1992   9.4659  10.5366

          k = 0.0000 0.2840 0.0000 (  6827 PWs)   bands (ev):

   -45.0514 -21.7338 -21.7020 -21.6565  -6.7392  -5.8553  -5.6074  -4.3606
    -4.3022  -4.3003  -4.1491  -4.0244   3.9573   6.7087   7.0878   7.1387
     8.5941   8.6287   8.9188   8.9240   9.3534  10.0104

          k = 0.0000 0.2840 0.1892 (  6821 PWs)   bands (ev):

   -45.0511 -21.7498 -21.7012 -21.6558  -6.6348  -5.8299  -5.5465  -4.3429
    -4.3148  -4.3012  -4.1403  -4.0246   3.6540   6.5485   7.1876   7.1989
     8.1704   8.4450   8.6213   9.0264   9.3324  10.2423

          k = 0.0000 0.2840 0.3784 (  6837 PWs)   bands (ev):

   -45.0507 -21.7756 -21.6998 -21.6547  -6.4848  -5.7701  -5.4282  -4.3364
    -4.3076  -4.3014  -4.1632  -3.9999   3.2348   6.2080   7.0308   7.2536
     7.8430   8.1202   8.3161   9.1015   9.7367  10.3661

          k = 0.0000 0.4260 0.0000 (  6796 PWs)   bands (ev):

   -45.0508 -21.7329 -21.7292 -21.6553  -6.5113  -5.7890  -5.5984  -4.3834
    -4.3214  -4.2990  -4.1316  -4.0497   3.6301   6.2132   7.3435   7.4064
     8.0298   8.1643   8.8180   8.9702   9.4047  10.9341

          k = 0.0000 0.4260 0.1892 (  6812 PWs)   bands (ev):

   -45.0506 -21.7483 -21.7287 -21.6546  -6.4559  -5.7436  -5.5293  -4.3584
    -4.3220  -4.3130  -4.1033  -4.0307   3.4019   6.1902   7.1984   7.5138
     7.5694   8.0425   8.7490   8.9832   9.3181  10.6982

          k = 0.0000 0.4260 0.3784 (  6831 PWs)   bands (ev):

   -45.0502 -21.7738 -21.7271 -21.6535  -6.4071  -5.6552  -5.3622  -4.3357
    -4.3229  -4.3113  -4.1519  -3.9251   3.0694   6.0188   6.6659   7.4744
     7.5848   7.9942   8.0014   8.9959   9.9387  10.2383

          k = 0.1429 0.0000 0.0000 (  6821 PWs)   bands (ev):

   -45.0520 -21.7352 -21.6751 -21.6514  -6.9937  -5.9139  -5.6518  -4.3247
    -4.3058  -4.2767  -4.1473  -4.0270   4.5536   6.8719   6.8750   7.2502
     8.7366   8.8087   9.0443   9.2416   9.2700   9.6418

          k = 0.1429 0.0000 0.1892 (  6832 PWs)   bands (ev):

   -45.0518 -21.7515 -21.6744 -21.6507  -6.8592  -5.8808  -5.6008  -4.3278
    -4.3185  -4.2759  -4.1428  -4.0590   4.0660   6.7490   6.9232   7.5436
     8.3691   8.5924   8.9841   9.1699   9.3591   9.8304

          k = 0.1429 0.0000 0.3784 (  6830 PWs)   bands (ev):

   -45.0514 -21.7776 -21.6733 -21.6497  -6.6316  -5.8228  -5.5176  -4.3388
    -4.3305  -4.2748  -4.1465  -4.1060   3.4910   6.4943   6.9790   7.1675
     8.1166   8.3898   9.0640   9.2192   9.4586  10.5350

          k = 0.1429 0.1420 0.0000 (  6822 PWs)   bands (ev):

   -45.0517 -21.7346 -21.6744 -21.6668  -6.8866  -5.8875  -5.6407  -4.3292
    -4.3194  -4.2836  -4.1321  -4.0180   4.2709   6.8098   6.9883   7.3205
     8.3616   8.5930   9.1020   9.1264   9.4959   9.7872

          k = 0.1429 0.1420 0.1892 (  6829 PWs)   bands (ev):

   -45.0515 -21.7507 -21.6737 -21.6661  -6.7580  -5.8635  -5.5896  -4.3342
    -4.3197  -4.2823  -4.1250  -4.0374   3.9171   6.6949   6.7725   7.5594
     8.2321   8.3750   8.9124   9.2361   9.5256   9.8492

          k = 0.1429 0.1420 0.3784 (  6833 PWs)   bands (ev):

   -45.0511 -21.7767 -21.6726 -21.6649  -6.5454  -5.8236  -5.5003  -4.3538
    -4.2936  -4.2784  -4.1247  -4.0744   3.4344   6.5032   6.5433   7.2345
     8.1492   8.1775   8.8342   9.3137   9.5646  10.4114

          k = 0.1429 0.2840 0.0000 (  6819 PWs)   bands (ev):

   -45.0510 -21.7332 -21.7011 -21.6729  -6.6316  -5.8276  -5.6246  -4.3590
    -4.3126  -4.2815  -4.1152  -4.0147   3.7778   6.6729   7.0780   7.2179
     7.9952   8.3695   8.8282   9.2507   9.4697  10.2062

          k = 0.1429 0.2840 0.1892 (  6831 PWs)   bands (ev):

   -45.0508 -21.7491 -21.7004 -21.6722  -6.5271  -5.8170  -5.5694  -4.3434
    -4.3189  -4.2715  -4.1011  -4.0042   3.6014   6.5084   6.6689   7.2729
     7.7785   8.3013   8.9397   9.2128   9.4511  10.1684

          k = 0.1429 0.2840 0.3784 (  6833 PWs)   bands (ev):

   -45.0504 -21.7747 -21.6991 -21.6710  -6.3796  -5.7896  -5.4544  -4.3423
    -4.3001  -4.2392  -4.1089  -3.9764   3.2964   6.1437   6.5776   6.9162
     7.3596   8.1150   8.9862   9.2673   9.7575  10.0663

          k = 0.1429 0.4260 0.0000 (  6822 PWs)   bands (ev):

   -45.0505 -21.7321 -21.7283 -21.6716  -6.4081  -5.7649  -5.6382  -4.3700
    -4.3033  -4.2671  -4.1021  -4.0406   3.4795   6.2268   7.1491   7.5448
     7.5877   8.1852   8.5752   9.2387   9.5098  10.7354

          k = 0.1429 0.4260 0.1892 (  6806 PWs)   bands (ev):

   -45.0503 -21.7475 -21.7278 -21.6709  -6.3469  -5.7401  -5.5802  -4.3480
    -4.3070  -4.2539  -4.0713  -4.0096   3.3839   6.1945   6.5858   7.0600
     7.6430   8.4377   8.5968   9.2255   9.4647  10.3658

          k = 0.1429 0.4260 0.3784 (  6828 PWs)   bands (ev):

   -45.0499 -21.7730 -21.7263 -21.6698  -6.2977  -5.6899  -5.4255  -4.3368
    -4.2776  -4.2294  -4.0930  -3.9045   3.1917   5.9811   6.3974   6.6086
     6.9836   8.2519   8.9440   9.1119   9.5526  10.1291

          k = 0.2857 0.0000 0.0000 (  6817 PWs)   bands (ev):

   -45.0513 -21.7339 -21.7118 -21.6498  -6.7244  -5.8497  -5.6042  -4.3588
    -4.3040  -4.3021  -4.1469  -4.0215   3.9590   6.6925   7.0854   7.0920
     8.6082   8.6101   8.9234   8.9294   9.3526  10.0156

          k = 0.2857 0.0000 0.1892 (  6834 PWs)   bands (ev):

   -45.0510 -21.7497 -21.7112 -21.6491  -6.6192  -5.8269  -5.5437  -4.3408
    -4.3164  -4.3032  -4.1418  -4.0154   3.6621   6.5448   7.1592   7.1732
     8.1680   8.4277   8.6094   9.0156   9.3457  10.2569

          k = 0.2857 0.0000 0.3784 (  6842 PWs)   bands (ev):

   -45.0507 -21.7754 -21.7099 -21.6480  -6.4680  -5.7719  -5.4256  -4.3379
    -4.3053  -4.3033  -4.1656  -3.9850   3.2495   6.2151   7.0181   7.2311
     7.8182   8.1075   8.2818   9.0820   9.7650  10.3491

          k = 0.2857 0.1420 0.0000 (  6829 PWs)   bands (ev):

   -45.0510 -21.7332 -21.7110 -21.6651  -6.6215  -5.8235  -5.6223  -4.3583
    -4.3130  -4.2820  -4.1141  -4.0130   3.7778   6.6539   7.0636   7.2067
     8.0037   8.3694   8.8351   9.2323   9.4696  10.2141

          k = 0.2857 0.1420 0.1892 (  6825 PWs)   bands (ev):

   -45.0507 -21.7490 -21.7104 -21.6644  -6.5164  -5.8147  -5.5675  -4.3426
    -4.3192  -4.2719  -4.1030  -3.9976   3.6062   6.5031   6.6504   7.2668
     7.7809   8.2840   8.9202   9.2066   9.4555  10.1814

          k = 0.2857 0.1420 0.3784 (  6827 PWs)   bands (ev):

   -45.0504 -21.7746 -21.7091 -21.6633  -6.3683  -5.7903  -5.4527  -4.3416
    -4.3004  -4.2397  -4.1132  -3.9640   3.3070   6.1498   6.5615   6.9124
     7.3429   8.0987   8.9645   9.2431   9.7822  10.0546

          k = 0.2857 0.2840 0.0000 (  6831 PWs)   bands (ev):

   -45.0503 -21.7318 -21.7093 -21.6992  -6.3844  -5.7653  -5.6609  -4.3486
    -4.3083  -4.2381  -4.0538  -4.0090   3.4044   6.6459   6.7671   7.4177
     7.5799   7.8824   8.6527   9.2344   9.7643  10.2866

          k = 0.2857 0.2840 0.1892 (  6820 PWs)   bands (ev):

   -45.0501 -21.7474 -21.7087 -21.6985  -6.2829  -5.7844  -5.6198  -4.3226
    -4.3087  -4.2107  -4.0288  -3.9711   3.4365   6.3312   6.3555   6.8266
     7.4918   7.8916   9.1479   9.3382   9.7906   9.9127

          k = 0.2857 0.2840 0.3784 (  6824 PWs)   bands (ev):

   -45.0497 -21.7728 -21.7075 -21.6973  -6.1563  -5.8145  -5.5036  -4.3052
    -4.2810  -4.1523  -3.9957  -3.9142   3.4182   5.8586   5.9950   6.5122
     7.1637   7.3576   9.0949   9.6870   9.7370   9.9534

          k = 0.2857 0.4260 0.0000 (  6836 PWs)   bands (ev):

   -45.0498 -21.7306 -21.7262 -21.7078  -6.1911  -5.7148  -5.6908  -4.3408
    -4.2862  -4.1772  -4.0357  -4.0163   3.1402   6.2462   6.7582   7.2559
     7.7228   7.9545   8.1859   9.2401   9.9111  10.1758

          k = 0.2857 0.4260 0.1892 (  6815 PWs)   bands (ev):

   -45.0496 -21.7459 -21.7258 -21.7073  -6.1024  -5.7359  -5.6718  -4.3120
    -4.2799  -4.1293  -3.9981  -3.9620   3.2750   6.1455   6.2504   6.4483
     7.2315   8.0123   8.9520   9.3869   9.6067   9.9668

          k = 0.2857 0.4260 0.3784 (  6812 PWs)   bands (ev):

   -45.0492 -21.7712 -21.7245 -21.7062  -6.0464  -5.7625  -5.5435  -4.2828
    -4.2496  -4.0646  -3.9423  -3.8561   3.4832   5.6092   5.7465   6.1880
     6.8032   7.3437   8.3293   9.8223   9.9099  10.1388

          k = 0.4286 0.0000 0.0000 (  6799 PWs)   bands (ev):

   -45.0507 -21.7420 -21.7317 -21.6486  -6.4877  -5.7786  -5.5949  -4.3814
    -4.3244  -4.3005  -4.1242  -4.0489   3.6300   6.1739   7.3367   7.3536
     8.0456   8.1516   8.8166   8.9715   9.4041  10.9542

          k = 0.4286 0.0000 0.1892 (  6799 PWs)   bands (ev):

   -45.0504 -21.7482 -21.7405 -21.6479  -6.4329  -5.7353  -5.5266  -4.3561
    -4.3250  -4.3145  -4.1030  -4.0184   3.4120   6.1547   7.1923   7.4661
     7.5625   8.0321   8.7405   8.9714   9.3212  10.7079

          k = 0.4286 0.0000 0.3784 (  6840 PWs)   bands (ev):

   -45.0501 -21.7735 -21.7391 -21.6467  -6.3872  -5.6496  -5.3590  -4.3371
    -4.3259  -4.3088  -4.1514  -3.9060   3.0920   6.0069   6.6452   7.4499
     7.5686   7.9574   7.9841   8.9713   9.9178  10.2426

          k = 0.4286 0.1420 0.0000 (  6820 PWs)   bands (ev):

   -45.0504 -21.7411 -21.7311 -21.6638  -6.3900  -5.7557  -5.6354  -4.3689
    -4.3035  -4.2680  -4.0966  -4.0407   3.4780   6.1857   7.1320   7.5286
     7.5979   8.1896   8.5741   9.2176   9.5045  10.7571

          k = 0.4286 0.1420 0.1892 (  6824 PWs)   bands (ev):

   -45.0502 -21.7475 -21.7396 -21.6631  -6.3294  -5.7324  -5.5782  -4.3469
    -4.3069  -4.2549  -4.0732  -3.9985   3.3908   6.1580   6.5667   7.0711
     7.6453   8.4073   8.5716   9.2173   9.4628  10.3743

          k = 0.4286 0.1420 0.3784 (  6817 PWs)   bands (ev):

   -45.0498 -21.7727 -21.7383 -21.6619  -6.2835  -5.6831  -5.4234  -4.3360
    -4.2770  -4.2303  -4.0967  -3.8863   3.2110   5.9738   6.3764   6.5862
     6.9818   8.2387   8.8908   9.0911   9.5315  10.1450

          k = 0.4286 0.2840 0.0000 (  6828 PWs)   bands (ev):

   -45.0497 -21.7392 -21.7296 -21.6977  -6.1848  -5.7114  -5.6868  -4.3408
    -4.2857  -4.1738  -4.0403  -4.0125   3.1385   6.2022   6.7904   7.2531
     7.7090   7.9551   8.1904   9.2367   9.8640  10.2171

          k = 0.4286 0.2840 0.1892 (  6806 PWs)   bands (ev):

   -45.0495 -21.7458 -21.7378 -21.6970  -6.0970  -5.7306  -5.6704  -4.3124
    -4.2786  -4.1269  -4.0052  -3.9533   3.2763   6.1144   6.2404   6.4678
     7.2379   8.0115   8.9206   9.3867   9.6086   9.9621

          k = 0.4286 0.2840 0.3784 (  6811 PWs)   bands (ev):

   -45.0491 -21.7710 -21.7366 -21.6959  -6.0451  -5.7538  -5.5430  -4.2836
    -4.2473  -4.0636  -3.9527  -3.8408   3.4927   5.5982   5.7589   6.1675
     6.7873   7.3553   8.3057   9.8034   9.8901  10.1511

          k = 0.4286 0.4260 0.0000 (  6819 PWs)   bands (ev):

   -45.0492 -21.7376 -21.7284 -21.7245  -6.0682  -5.6764  -5.6667  -4.3250
    -4.2381  -4.1051  -4.0567  -3.9451   2.8742   6.0786   6.4714   7.4333
     7.5374   7.9214   8.0988   8.9718   9.5395  10.3467

          k = 0.4286 0.4260 0.1892 (  6816 PWs)   bands (ev):

   -45.0490 -21.7443 -21.7363 -21.7242  -5.9327  -5.7251  -5.7132  -4.2938
    -4.2318  -4.0220  -3.9669  -3.9136   3.1222   6.0281   6.2289   6.2858
     6.6691   7.9818   8.5848   9.2936   9.3174  10.3375

          k = 0.4286 0.4260 0.3784 (  6814 PWs)   bands (ev):

   -45.0486 -21.7695 -21.7353 -21.7230  -5.8494  -5.8028  -5.6272  -4.2434
    -4.2257  -3.9187  -3.8336  -3.8189   3.6830   5.4062   5.5194   5.9603
     6.5809   6.9090   7.2502  10.1323  10.1552  10.3240

     highest occupied level (ev):    10.9542

!    total energy              =    -380.57748401 Ry
     estimated scf accuracy    <          9.9E-09 Ry

     The total energy is the sum of the following terms:
     one-electron contribution =     -78.94762997 Ry
     hartree contribution      =      69.71769722 Ry
     xc contribution           =    -102.70046510 Ry
     ewald contribution        =    -268.64708615 Ry

     convergence has been achieved in   4 iterations

     negative rho (up, down):  1.581E-02 0.000E+00

     Forces acting on atoms (cartesian axes, Ry/au):

     atom    1 type  1   force =     0.00000000    0.00000000    0.00176091
     atom    2 type  2   force =     0.00000000    0.00000000   -0.00070910
     atom    3 type  3   force =     0.00000000    0.00000000   -0.00118879
     atom    4 type  3   force =     0.00000000    0.00000000   -0.00049502
     atom    5 type  3   force =     0.00000000    0.00000000    0.00063200

     Total force =     0.002379     Total SCF correction =     0.000239
     SCF correction compared to forces is large: reduce conv_thr to get better values


     Computing stress (Cartesian axis) and pressure


     negative rho (up, down):  1.581E-02 0.000E+00
          total   stress  (Ry/bohr**3)                   (kbar)     P=       13.26
   0.00014583   0.00000000   0.00000000           21.45        0.00        0.00
   0.00000000   0.00006713   0.00000000            0.00        9.88        0.00
   0.00000000   0.00000000   0.00005745            0.00        0.00        8.45

     Energy error            =      2.1E-05 Ry
     Gradient error          =      1.8E-03 Ry/Bohr

     number of scf cycles    =   2
     number of bfgs steps    =   1

     energy             old  =    -380.5775053416 Ry
     energy             new  =    -380.5774840124 Ry

     CASE: energy            _new > energy            _old


 %%%%%%%%%%%%%%%%%%%%%%%%%%%%%%%%%%%%%%%%%%%%%%%%%%%%%%%%%%%%%%%%%%%%%%%%%%%%%%
     Error in routine bfgs (1):
     dE0s is positive which should never happen
 %%%%%%%%%%%%%%%%%%%%%%%%%%%%%%%%%%%%%%%%%%%%%%%%%%%%%%%%%%%%%%%%%%%%%%%%%%%%%%

     stopping ...
