
     Program PWSCF v.7.0 starts on 11Apr2022 at  9:19:40 

     This program is part of the open-source Quantum ESPRESSO suite
     for quantum simulation of materials; please cite
         "P. Giannozzi et al., J. Phys.:Condens. Matter 21 395502 (2009);
         "P. Giannozzi et al., J. Phys.:Condens. Matter 29 465901 (2017);
         "P. Giannozzi et al., J. Chem. Phys. 152 154105 (2020);
          URL http://www.quantum-espresso.org", 
     in publications or presentations arising from this work. More details at
     http://www.quantum-espresso.org/quote

     Parallel version (MPI), running on     1 processors

     MPI processes distributed on     1 nodes
     90004 MiB available memory on the printing compute node when the environment starts
 
     Waiting for input...
     Reading input from standard input
Warning: card &CELL ignored
Warning: card  CELL_DYNAMICS = 'BFGS', ignored
Warning: card  PRESS=0.1D0, ignored
Warning: card / ignored

     Current dimensions of program PWSCF are:
     Max number of different atomic species (ntypx) = 10
     Max number of k-points (npk) =  40000
     Max angular momentum in pseudopotentials (lmaxx) =  4
     Message from routine setup:
     using ibrav=0 with symmetry is DISCOURAGED, use correct ibrav instead

     Subspace diagonalization in iterative solution of the eigenvalue problem:
     a serial algorithm will be used

 
     G-vector sticks info
     --------------------
     sticks:   dense  smooth     PW     G-vecs:    dense   smooth      PW
     Sum        1689    1689    481                54905    54905    8221
 
     Using Slab Decomposition
 


     bravais-lattice index     =            0
     lattice parameter (alat)  =       7.3010  a.u.
     unit-cell volume          =     406.4705 (a.u.)^3
     number of atoms/cell      =            5
     number of atomic types    =            3
     number of electrons       =        44.00
     number of Kohn-Sham states=           22
     kinetic-energy cutoff     =     100.0000  Ry
     charge density cutoff     =     400.0000  Ry
     scf convergence threshold =      1.0E-08
     mixing beta               =       0.7000
     number of iterations used =            8  plain     mixing
     energy convergence thresh.=      1.0E-04
     force convergence thresh. =      1.0E-03
     Exchange-correlation= SLA  PZ   NOGX NOGC
                           (   1   1   0   0   0   0   0)
     nstep                     =           50


     celldm(1)=   7.300957  celldm(2)=   0.000000  celldm(3)=   0.000000
     celldm(4)=   0.000000  celldm(5)=   0.000000  celldm(6)=   0.000000

     crystal axes: (cart. coord. in units of alat)
               a(1) = (   1.000000   0.000000   0.000000 )  
               a(2) = (   0.000000   0.996014   0.000000 )  
               a(3) = (   0.000000   0.000000   1.048635 )  

     reciprocal axes: (cart. coord. in units 2 pi/alat)
               b(1) = (  1.000000  0.000000  0.000000 )  
               b(2) = (  0.000000  1.004002  0.000000 )  
               b(3) = (  0.000000  0.000000  0.953621 )  


     PseudoPot. # 1 for Pb read from file:
     ./Pb_LDA.UPF
     MD5 check sum: 062a37469794d955244864f8fe2e5624
     Pseudo is Ultrasoft + core correction, Zval = 14.0
     Generated by new atomic code, or converted to UPF format
     Using radial grid of  899 points,  6 beta functions with: 
                l(1) =   0
                l(2) =   0
                l(3) =   1
                l(4) =   1
                l(5) =   2
                l(6) =   2
     Q(r) pseudized with  6 coefficients,  rinner =    1.000   1.000   1.000
                                                       1.000   1.000

     PseudoPot. # 2 for Ti read from file:
     ./Ti_LDA.UPF
     MD5 check sum: 0d9f225c038fe889ca2a701dcc8d72cb
     Pseudo is Ultrasoft + core correction, Zval = 12.0
     Generated by new atomic code, or converted to UPF format
     Using radial grid of  851 points,  6 beta functions with: 
                l(1) =   0
                l(2) =   0
                l(3) =   1
                l(4) =   1
                l(5) =   2
                l(6) =   2
     Q(r) pseudized with  6 coefficients,  rinner =    1.000   1.000   1.000
                                                       1.000   1.000

     PseudoPot. # 3 for O  read from file:
     ./O_LDA.UPF
     MD5 check sum: 194b818514d2a7dbb603bb78519a4f40
     Pseudo is Ultrasoft + core correction, Zval =  6.0
     Generated by new atomic code, or converted to UPF format
     Using radial grid of  737 points,  5 beta functions with: 
                l(1) =   0
                l(2) =   0
                l(3) =   1
                l(4) =   1
                l(5) =   2
     Q(r) pseudized with  8 coefficients,  rinner =    0.900   0.900   0.900
                                                       0.900   0.900

     atomic species   valence    mass     pseudopotential
        Pb            14.00   207.20000     Pb( 1.00)
        Ti            12.00    47.88000     Ti( 1.00)
        O              6.00    16.00000     O ( 1.00)

      4 Sym. Ops. (no inversion) found



   Cartesian axes

     site n.     atom                  positions (alat units)
         1           Pb  tau(   1) = (   0.0000000   0.0000000   1.0540775  )
         2           Ti  tau(   2) = (   0.5000000   0.4980070   0.5657514  )
         3           O   tau(   3) = (   0.5000000   0.4980070   0.1043168  )
         4           O   tau(   4) = (   0.5000000   0.0000000   0.6412940  )
         5           O   tau(   5) = (   0.0000000   0.4980070   0.6412940  )

     number of k points=    48
                       cart. coord. in units 2pi/alat
        k(    1) = (   0.0000000   0.0000000   0.0000000), wk =   0.0081633
        k(    2) = (   0.0000000   0.0000000   0.1907242), wk =   0.0163265
        k(    3) = (   0.0000000   0.0000000   0.3814484), wk =   0.0163265
        k(    4) = (   0.0000000   0.1434289   0.0000000), wk =   0.0163265
        k(    5) = (   0.0000000   0.1434289   0.1907242), wk =   0.0326531
        k(    6) = (   0.0000000   0.1434289   0.3814484), wk =   0.0326531
        k(    7) = (   0.0000000   0.2868577   0.0000000), wk =   0.0163265
        k(    8) = (   0.0000000   0.2868577   0.1907242), wk =   0.0326531
        k(    9) = (   0.0000000   0.2868577   0.3814484), wk =   0.0326531
        k(   10) = (   0.0000000   0.4302866   0.0000000), wk =   0.0163265
        k(   11) = (   0.0000000   0.4302866   0.1907242), wk =   0.0326531
        k(   12) = (   0.0000000   0.4302866   0.3814484), wk =   0.0326531
        k(   13) = (   0.1428571   0.0000000   0.0000000), wk =   0.0163265
        k(   14) = (   0.1428571   0.0000000   0.1907242), wk =   0.0326531
        k(   15) = (   0.1428571   0.0000000   0.3814484), wk =   0.0326531
        k(   16) = (   0.1428571   0.1434289   0.0000000), wk =   0.0326531
        k(   17) = (   0.1428571   0.1434289   0.1907242), wk =   0.0653061
        k(   18) = (   0.1428571   0.1434289   0.3814484), wk =   0.0653061
        k(   19) = (   0.1428571   0.2868577   0.0000000), wk =   0.0326531
        k(   20) = (   0.1428571   0.2868577   0.1907242), wk =   0.0653061
        k(   21) = (   0.1428571   0.2868577   0.3814484), wk =   0.0653061
        k(   22) = (   0.1428571   0.4302866   0.0000000), wk =   0.0326531
        k(   23) = (   0.1428571   0.4302866   0.1907242), wk =   0.0653061
        k(   24) = (   0.1428571   0.4302866   0.3814484), wk =   0.0653061
        k(   25) = (   0.2857143   0.0000000   0.0000000), wk =   0.0163265
        k(   26) = (   0.2857143   0.0000000   0.1907242), wk =   0.0326531
        k(   27) = (   0.2857143   0.0000000   0.3814484), wk =   0.0326531
        k(   28) = (   0.2857143   0.1434289   0.0000000), wk =   0.0326531
        k(   29) = (   0.2857143   0.1434289   0.1907242), wk =   0.0653061
        k(   30) = (   0.2857143   0.1434289   0.3814484), wk =   0.0653061
        k(   31) = (   0.2857143   0.2868577   0.0000000), wk =   0.0326531
        k(   32) = (   0.2857143   0.2868577   0.1907242), wk =   0.0653061
        k(   33) = (   0.2857143   0.2868577   0.3814484), wk =   0.0653061
        k(   34) = (   0.2857143   0.4302866   0.0000000), wk =   0.0326531
        k(   35) = (   0.2857143   0.4302866   0.1907242), wk =   0.0653061
        k(   36) = (   0.2857143   0.4302866   0.3814484), wk =   0.0653061
        k(   37) = (   0.4285714   0.0000000   0.0000000), wk =   0.0163265
        k(   38) = (   0.4285714   0.0000000   0.1907242), wk =   0.0326531
        k(   39) = (   0.4285714   0.0000000   0.3814484), wk =   0.0326531
        k(   40) = (   0.4285714   0.1434289   0.0000000), wk =   0.0326531
        k(   41) = (   0.4285714   0.1434289   0.1907242), wk =   0.0653061
        k(   42) = (   0.4285714   0.1434289   0.3814484), wk =   0.0653061
        k(   43) = (   0.4285714   0.2868577   0.0000000), wk =   0.0326531
        k(   44) = (   0.4285714   0.2868577   0.1907242), wk =   0.0653061
        k(   45) = (   0.4285714   0.2868577   0.3814484), wk =   0.0653061
        k(   46) = (   0.4285714   0.4302866   0.0000000), wk =   0.0326531
        k(   47) = (   0.4285714   0.4302866   0.1907242), wk =   0.0653061
        k(   48) = (   0.4285714   0.4302866   0.3814484), wk =   0.0653061

     Dense  grid:    54905 G-vectors     FFT dimensions: (  48,  48,  50)

     Estimated max dynamical RAM per process >     328.06 MB

     Check: negative core charge=   -0.000003

     Initial potential from superposition of free atoms

     starting charge      42.9982, renormalised to      44.0000

     negative rho (up, down):  1.705E-02 0.000E+00
     Starting wfcs are   31 randomized atomic wfcs

     total cpu time spent up to now is       19.2 secs

     Self-consistent Calculation

     iteration #  1     ecut=   100.00 Ry     beta= 0.70
     CG style diagonalization
     ethr =  1.00E-02,  avg # of iterations =  2.2

     negative rho (up, down):  1.433E-02 0.000E+00

     total cpu time spent up to now is       53.1 secs

     total energy              =    -380.06180537 Ry
     estimated scf accuracy    <       1.02536843 Ry

     iteration #  2     ecut=   100.00 Ry     beta= 0.70
     CG style diagonalization
     ethr =  2.33E-03,  avg # of iterations =  4.9

     negative rho (up, down):  1.504E-02 0.000E+00

     total cpu time spent up to now is      116.6 secs

     total energy              =    -379.77222755 Ry
     estimated scf accuracy    <       3.85200878 Ry

     iteration #  3     ecut=   100.00 Ry     beta= 0.70
     CG style diagonalization
     ethr =  2.33E-03,  avg # of iterations =  4.5

     negative rho (up, down):  1.563E-02 0.000E+00

     total cpu time spent up to now is      175.2 secs

     total energy              =    -380.54772994 Ry
     estimated scf accuracy    <       0.25011979 Ry

     iteration #  4     ecut=   100.00 Ry     beta= 0.70
     CG style diagonalization
     ethr =  5.68E-04,  avg # of iterations =  3.4

     negative rho (up, down):  1.567E-02 0.000E+00

     total cpu time spent up to now is      219.7 secs

     total energy              =    -380.56105381 Ry
     estimated scf accuracy    <       0.05228883 Ry

     iteration #  5     ecut=   100.00 Ry     beta= 0.70
     CG style diagonalization
     ethr =  1.19E-04,  avg # of iterations =  3.8

     negative rho (up, down):  1.566E-02 0.000E+00

     total cpu time spent up to now is      269.2 secs

     total energy              =    -380.57581792 Ry
     estimated scf accuracy    <       0.00492796 Ry

     iteration #  6     ecut=   100.00 Ry     beta= 0.70
     CG style diagonalization
     ethr =  1.12E-05,  avg # of iterations =  4.1

     negative rho (up, down):  1.566E-02 0.000E+00

     total cpu time spent up to now is      322.8 secs

     total energy              =    -380.57756655 Ry
     estimated scf accuracy    <       0.00730960 Ry

     iteration #  7     ecut=   100.00 Ry     beta= 0.70
     CG style diagonalization
     ethr =  1.12E-05,  avg # of iterations =  3.2

     negative rho (up, down):  1.567E-02 0.000E+00

     total cpu time spent up to now is      364.4 secs

     total energy              =    -380.57708981 Ry
     estimated scf accuracy    <       0.00265971 Ry

     iteration #  8     ecut=   100.00 Ry     beta= 0.70
     CG style diagonalization
     ethr =  6.04E-06,  avg # of iterations =  3.6

     negative rho (up, down):  1.569E-02 0.000E+00

     total cpu time spent up to now is      411.4 secs

     total energy              =    -380.57760879 Ry
     estimated scf accuracy    <       0.00000914 Ry

     iteration #  9     ecut=   100.00 Ry     beta= 0.70
     CG style diagonalization
     c_bands:  1 eigenvalues not converged
     c_bands:  1 eigenvalues not converged
     c_bands:  1 eigenvalues not converged
     c_bands:  1 eigenvalues not converged
     c_bands:  1 eigenvalues not converged
     ethr =  2.08E-08,  avg # of iterations =  8.2

     negative rho (up, down):  1.572E-02 0.000E+00

     total cpu time spent up to now is      515.6 secs

     total energy              =    -380.57766820 Ry
     estimated scf accuracy    <       0.00001786 Ry

     iteration # 10     ecut=   100.00 Ry     beta= 0.70
     CG style diagonalization
     ethr =  2.08E-08,  avg # of iterations =  3.7

     negative rho (up, down):  1.576E-02 0.000E+00

     total cpu time spent up to now is      563.0 secs

     total energy              =    -380.57766884 Ry
     estimated scf accuracy    <       0.00000659 Ry

     iteration # 11     ecut=   100.00 Ry     beta= 0.70
     CG style diagonalization
     ethr =  1.50E-08,  avg # of iterations =  3.3

     negative rho (up, down):  1.581E-02 0.000E+00

     total cpu time spent up to now is      604.5 secs

     total energy              =    -380.57766764 Ry
     estimated scf accuracy    <       0.00000460 Ry

     iteration # 12     ecut=   100.00 Ry     beta= 0.70
     CG style diagonalization
     ethr =  1.05E-08,  avg # of iterations =  4.0

     negative rho (up, down):  1.581E-02 0.000E+00

     total cpu time spent up to now is      655.6 secs

     total energy              =    -380.57766894 Ry
     estimated scf accuracy    <       0.00000042 Ry

     iteration # 13     ecut=   100.00 Ry     beta= 0.70
     CG style diagonalization
     ethr =  9.45E-10,  avg # of iterations =  7.4

     negative rho (up, down):  1.581E-02 0.000E+00

     total cpu time spent up to now is      749.9 secs

     total energy              =    -380.57766988 Ry
     estimated scf accuracy    <       0.00000003 Ry

     iteration # 14     ecut=   100.00 Ry     beta= 0.70
     CG style diagonalization
     c_bands:  1 eigenvalues not converged
     ethr =  7.24E-11,  avg # of iterations =  8.6

     negative rho (up, down):  1.581E-02 0.000E+00

     total cpu time spent up to now is      860.1 secs

     total energy              =    -380.57767004 Ry
     estimated scf accuracy    <       0.00000003 Ry

     iteration # 15     ecut=   100.00 Ry     beta= 0.70
     CG style diagonalization
     ethr =  6.32E-11,  avg # of iterations =  3.8

     negative rho (up, down):  1.581E-02 0.000E+00

     total cpu time spent up to now is      908.2 secs

     total energy              =    -380.57767005 Ry
     estimated scf accuracy    <       0.00000001 Ry

     iteration # 16     ecut=   100.00 Ry     beta= 0.70
     CG style diagonalization
     ethr =  3.40E-11,  avg # of iterations =  4.2

     negative rho (up, down):  1.582E-02 0.000E+00

     total cpu time spent up to now is      961.2 secs

     total energy              =    -380.57767004 Ry
     estimated scf accuracy    <       0.00000002 Ry

     iteration # 17     ecut=   100.00 Ry     beta= 0.70
     CG style diagonalization
     ethr =  3.40E-11,  avg # of iterations =  4.1

     negative rho (up, down):  1.581E-02 0.000E+00

     total cpu time spent up to now is     1012.7 secs

     End of self-consistent calculation

          k = 0.0000 0.0000 0.0000 (  6885 PWs)   bands (ev):

   -45.1692 -21.8501 -21.7687 -21.7645  -7.1654  -6.0128  -5.7573  -4.4143
    -4.4131  -4.3741  -4.2567  -4.1424   4.8412   6.7191   6.7505   7.1090
     8.7072   8.7142   8.9506   9.2870   9.4380   9.4445

          k = 0.0000 0.0000 0.1907 (  6856 PWs)   bands (ev):

   -45.1690 -21.8664 -21.7680 -21.7639  -7.0234  -5.9706  -5.7086  -4.4266
    -4.4254  -4.3731  -4.2482  -4.1950   4.1925   6.7608   6.7883   7.4191
     8.5166   8.5290   8.8927   9.1737   9.5288   9.5326

          k = 0.0000 0.0000 0.3814 (  6856 PWs)   bands (ev):

   -45.1686 -21.8925 -21.7670 -21.7628  -6.7764  -5.8966  -5.6357  -4.4463
    -4.4452  -4.3714  -4.2864  -4.2355   3.5267   6.7523   6.8090   6.8283
     8.3132   8.3370   8.8029   9.6224   9.6240  10.3266

          k = 0.0000 0.1434 0.0000 (  6879 PWs)   bands (ev):

   -45.1689 -21.8495 -21.7844 -21.7638  -7.0555  -5.9865  -5.7337  -4.4320
    -4.4131  -4.3855  -4.2589  -4.1324   4.4568   6.7945   6.8013   7.1746
     8.6454   8.7244   8.9626   9.1502   9.1802   9.5480

          k = 0.0000 0.1434 0.1907 (  6867 PWs)   bands (ev):

   -45.1687 -21.8657 -21.7837 -21.7632  -6.9208  -5.9530  -5.6830  -4.4348
    -4.4257  -4.3848  -4.2536  -4.1651   3.9780   6.6678   6.8491   7.4598
     8.2785   8.5084   8.8923   9.0858   9.2677   9.7361

          k = 0.0000 0.1434 0.3814 (  6886 PWs)   bands (ev):

   -45.1683 -21.8916 -21.7825 -21.7621  -6.6928  -5.8944  -5.6003  -4.4459
    -4.4370  -4.3837  -4.2551  -4.2143   3.4096   6.4079   6.9038   7.0800
     8.0265   8.3068   8.9740   9.1308   9.3676  10.4343

          k = 0.0000 0.2869 0.0000 (  6851 PWs)   bands (ev):

   -45.1683 -21.8481 -21.8194 -21.7624  -6.7923  -5.9254  -5.6886  -4.4654
    -4.4115  -4.4097  -4.2577  -4.1289   3.8695   6.6195   7.0203   7.0243
     8.5219   8.5228   8.8410   8.8447   9.2588   9.9075

          k = 0.0000 0.2869 0.1907 (  6866 PWs)   bands (ev):

   -45.1680 -21.8640 -21.8186 -21.7617  -6.6864  -5.9024  -5.6287  -4.4474
    -4.4237  -4.4109  -4.2520  -4.1239   3.5783   6.4713   7.0857   7.1026
     8.0792   8.3448   8.5225   8.9251   9.2623  10.1475

          k = 0.0000 0.2869 0.3814 (  6891 PWs)   bands (ev):

   -45.1677 -21.8896 -21.8173 -21.7606  -6.5346  -5.8467  -5.5113  -4.4449
    -4.4117  -4.4109  -4.2753  -4.0950   3.1715   6.1342   6.9399   7.1537
     7.7335   8.0262   8.2033   8.9910   9.6678  10.2466

          k = 0.0000 0.4303 0.0000 (  6826 PWs)   bands (ev):

   -45.1677 -21.8486 -21.8455 -21.7612  -6.5600  -5.8588  -5.6803  -4.4877
    -4.4312  -4.4080  -4.2336  -4.1582   3.5433   6.1129   7.2752   7.2893
     7.9675   8.0597   8.7389   8.8815   9.3125  10.8272

          k = 0.0000 0.4303 0.1907 (  6852 PWs)   bands (ev):

   -45.1675 -21.8624 -21.8466 -21.7605  -6.5036  -5.8155  -5.6134  -4.4626
    -4.4317  -4.4219  -4.2129  -4.1283   3.3299   6.0927   7.1197   7.3992
     7.4848   7.9444   8.6535   8.8792   9.2451  10.5818

          k = 0.0000 0.4303 0.3814 (  6877 PWs)   bands (ev):

   -45.1671 -21.8877 -21.8450 -21.7593  -6.4562  -5.7296  -5.4471  -4.4442
    -4.4326  -4.4153  -4.2613  -4.0177   3.0152   5.9346   6.5715   7.3747
     7.4882   7.8849   7.9028   8.8770   9.8239  10.1320

          k = 0.1429 0.0000 0.0000 (  6881 PWs)   bands (ev):

   -45.1690 -21.8495 -21.7795 -21.7681  -7.0584  -5.9877  -5.7343  -4.4332
    -4.4119  -4.3851  -4.2590  -4.1334   4.4551   6.7773   6.8322   7.1772
     8.6368   8.7331   8.9593   9.1475   9.1833   9.5486

          k = 0.1429 0.0000 0.1907 (  6877 PWs)   bands (ev):

   -45.1687 -21.8657 -21.7788 -21.7674  -6.9239  -5.9538  -5.6834  -4.4359
    -4.4245  -4.3844  -4.2524  -4.1680   3.9756   6.6511   6.8760   7.4641
     8.2796   8.5208   8.8906   9.0763   9.2692   9.7344

          k = 0.1429 0.0000 0.3814 (  6891 PWs)   bands (ev):

   -45.1683 -21.8916 -21.7777 -21.7663  -6.6966  -5.8937  -5.6005  -4.4448
    -4.4375  -4.3833  -4.2520  -4.2207   3.4064   6.3967   6.9219   7.0831
     8.0183   8.3306   8.9797   9.1175   9.3717  10.4358

          k = 0.1429 0.1434 0.0000 (  6868 PWs)   bands (ev):

   -45.1687 -21.8489 -21.7837 -21.7788  -6.9497  -5.9607  -5.7230  -4.4364
    -4.4265  -4.3920  -4.2439  -4.1240   4.1783   6.7321   6.9186   7.2401
     8.2840   8.5086   9.0012   9.0454   9.4039   9.6903

          k = 0.1429 0.1434 0.1907 (  6874 PWs)   bands (ev):

   -45.1684 -21.8650 -21.7830 -21.7781  -6.8207  -5.9367  -5.6724  -4.4410
    -4.4268  -4.3907  -4.2365  -4.1435   3.8314   6.6209   6.6959   7.4746
     8.1500   8.2804   8.8204   9.1546   9.4345   9.7510

          k = 0.1429 0.1434 0.3814 (  6869 PWs)   bands (ev):

   -45.1680 -21.8908 -21.7819 -21.7770  -6.6077  -5.8966  -5.5836  -4.4603
    -4.4012  -4.3861  -4.2358  -4.1806   3.3554   6.4316   6.4543   7.1540
     8.0618   8.0841   8.7401   9.2294   9.4739  10.3085

          k = 0.1429 0.2869 0.0000 (  6859 PWs)   bands (ev):

   -45.1680 -21.8475 -21.8186 -21.7772  -6.6910  -5.8998  -5.7062  -4.4650
    -4.4203  -4.3899  -4.2256  -4.1207   3.6905   6.5838   6.9915   7.1400
     7.9235   8.2883   8.7510   9.1446   9.3764  10.1020

          k = 0.1429 0.2869 0.1907 (  6869 PWs)   bands (ev):

   -45.1677 -21.8633 -21.8179 -21.7765  -6.5853  -5.8908  -5.6521  -4.4494
    -4.4266  -4.3799  -4.2139  -4.1062   3.5228   6.4324   6.5852   7.1847
     7.6990   8.1973   8.8352   9.1195   9.3695  10.0701

          k = 0.1429 0.2869 0.3814 (  6870 PWs)   bands (ev):

   -45.1674 -21.8888 -21.8166 -21.7754  -6.4366  -5.8660  -5.5382  -4.4485
    -4.4079  -4.3471  -4.2232  -4.0739   3.2293   6.0748   6.4886   6.8318
     7.2654   8.0104   8.8711   9.1603   9.6822   9.9563

          k = 0.1429 0.4303 0.0000 (  6853 PWs)   bands (ev):

   -45.1674 -21.8478 -21.8448 -21.7759  -6.4644  -5.8360  -5.7195  -4.4756
    -4.4111  -4.3761  -4.2069  -4.1501   3.3933   6.1249   7.0665   7.4664
     7.5159   8.1086   8.4878   9.1353   9.4126  10.6341

          k = 0.1429 0.4303 0.1907 (  6856 PWs)   bands (ev):

   -45.1672 -21.8617 -21.8458 -21.7752  -6.4021  -5.8129  -5.6638  -4.4537
    -4.4145  -4.3633  -4.1831  -4.1088   3.3088   6.0964   6.5055   6.9941
     7.5565   8.3268   8.4912   9.1289   9.3826  10.2544

          k = 0.1429 0.4303 0.3814 (  6859 PWs)   bands (ev):

   -45.1668 -21.8870 -21.8443 -21.7741  -6.3544  -5.7638  -5.5103  -4.4430
    -4.3849  -4.3388  -4.2057  -3.9983   3.1337   5.9023   6.3141   6.5174
     6.8947   8.1505   8.8122   9.0000   9.4271  10.0517

          k = 0.2857 0.0000 0.0000 (  6865 PWs)   bands (ev):

   -45.1683 -21.8481 -21.8130 -21.7667  -6.8018  -5.9294  -5.6907  -4.4664
    -4.4104  -4.4085  -4.2593  -4.1311   3.8692   6.6300   7.0269   7.0510
     8.5144   8.5358   8.8387   8.8404   9.2601   9.9043

          k = 0.2857 0.0000 0.1907 (  6863 PWs)   bands (ev):

   -45.1681 -21.8640 -21.8122 -21.7660  -6.6965  -5.9048  -5.6305  -4.4486
    -4.4226  -4.4096  -4.2511  -4.1302   3.5738   6.4737   7.1121   7.1126
     8.0822   8.3574   8.5308   8.9319   9.2530  10.1383

          k = 0.2857 0.0000 0.3814 (  6887 PWs)   bands (ev):

   -45.1677 -21.8897 -21.8108 -21.7649  -6.5454  -5.8462  -5.5129  -4.4440
    -4.4129  -4.4097  -4.2737  -4.1053   3.1627   6.1291   6.9495   7.1695
     7.7495   8.0361   8.2266   9.0026   9.6478  10.2590

          k = 0.2857 0.1434 0.0000 (  6863 PWs)   bands (ev):

   -45.1680 -21.8475 -21.8121 -21.7822  -6.6975  -5.9027  -5.7077  -4.4654
    -4.4201  -4.3896  -4.2265  -4.1220   3.6910   6.5961   7.0023   7.1470
     7.9191   8.2880   8.7475   9.1572   9.3761  10.0967

          k = 0.2857 0.1434 0.1907 (  6869 PWs)   bands (ev):

   -45.1678 -21.8633 -21.8114 -21.7815  -6.5921  -5.8926  -5.6534  -4.4498
    -4.4264  -4.3796  -4.2126  -4.1108   3.5203   6.4358   6.5976   7.1894
     7.6990   8.2079   8.8484   9.1246   9.3661  10.0614

          k = 0.2857 0.1434 0.3814 (  6875 PWs)   bands (ev):

   -45.1674 -21.8889 -21.8101 -21.7804  -6.4437  -5.8661  -5.5392  -4.4489
    -4.4078  -4.3467  -4.2203  -4.0825   3.2230   6.0704   6.4993   6.8350
     7.2780   8.0207   8.8851   9.1767   9.6648   9.9647

          k = 0.2857 0.2869 0.0000 (  6865 PWs)   bands (ev):

   -45.1673 -21.8460 -21.8169 -21.8103  -6.4578  -5.8428  -5.7436  -4.4557
    -4.4158  -4.3464  -4.1666  -4.1176   3.3214   6.5791   6.6864   7.3513
     7.5090   7.8050   8.5784   9.1375   9.6729  10.1733

          k = 0.2857 0.2869 0.1907 (  6864 PWs)   bands (ev):

   -45.1671 -21.8617 -21.8162 -21.8096  -6.3554  -5.8620  -5.7036  -4.4300
    -4.4163  -4.3192  -4.1412  -4.0797   3.3554   6.2688   6.2895   6.7431
     7.4152   7.8050   9.0606   9.2575   9.6996   9.8018

          k = 0.2857 0.2869 0.3814 (  6874 PWs)   bands (ev):

   -45.1667 -21.8870 -21.8150 -21.8084  -6.2283  -5.8921  -5.5885  -4.4130
    -4.3889  -4.2612  -4.1074  -4.0230   3.3422   5.7948   5.9308   6.4241
     7.0781   7.2811   8.9828   9.5968   9.6476   9.8627

          k = 0.2857 0.4303 0.0000 (  6870 PWs)   bands (ev):

   -45.1668 -21.8461 -21.8432 -21.8089  -6.2640  -5.7918  -5.7689  -4.4483
    -4.3940  -4.2831  -4.1498  -4.1256   3.0582   6.1398   6.7141   7.1855
     7.6446   7.8757   8.1168   9.1444   9.7750  10.1058

          k = 0.2857 0.4303 0.1907 (  6851 PWs)   bands (ev):

   -45.1666 -21.8601 -21.8440 -21.8082  -6.1744  -5.8116  -5.7537  -4.4202
    -4.3872  -4.2373  -4.1149  -4.0655   3.1967   6.0557   6.1766   6.3940
     7.1597   7.9210   8.8449   9.3027   9.5073   9.8703

          k = 0.2857 0.4303 0.3814 (  6854 PWs)   bands (ev):

   -45.1662 -21.8853 -21.8427 -21.8071  -6.1206  -5.8356  -5.6278  -4.3918
    -4.3565  -4.1753  -4.0614  -3.9536   3.4152   5.5422   5.6923   6.0930
     6.7073   7.2721   8.2063   9.7143   9.8014  10.0609

          k = 0.4286 0.0000 0.0000 (  6836 PWs)   bands (ev):

   -45.1678 -21.8469 -21.8397 -21.7655  -6.5750  -5.8663  -5.6826  -4.4888
    -4.4292  -4.4070  -4.2391  -4.1589   3.5444   6.1398   7.2817   7.3237
     7.9589   8.0691   8.7387   8.8817   9.3138  10.8134

          k = 0.4286 0.0000 0.1907 (  6856 PWs)   bands (ev):

   -45.1676 -21.8625 -21.8389 -21.7648  -6.5182  -5.8217  -5.6153  -4.4639
    -4.4298  -4.4209  -4.2131  -4.1371   3.3245   6.1167   7.1247   7.4302
     7.4912   7.9531   8.6595   8.8867   9.2425  10.5752

          k = 0.4286 0.0000 0.3814 (  6867 PWs)   bands (ev):

   -45.1672 -21.8879 -21.8373 -21.7637  -6.4688  -5.7342  -5.4491  -4.4433
    -4.4307  -4.4166  -4.2614  -4.0310   3.0018   5.9419   6.5878   7.3913
     7.4993   7.9106   7.9144   8.8918   9.8376  10.1288

          k = 0.4286 0.1434 0.0000 (  6855 PWs)   bands (ev):

   -45.1675 -21.8462 -21.8388 -21.7810  -6.4757  -5.8428  -5.7214  -4.4761
    -4.4110  -4.3756  -4.2110  -4.1500   3.3951   6.1530   7.0782   7.4779
     7.5106   8.1061   8.4889   9.1488   9.4165  10.6192

          k = 0.4286 0.1434 0.1907 (  6862 PWs)   bands (ev):

   -45.1673 -21.8618 -21.8380 -21.7803  -6.4130  -5.8187  -5.6651  -4.4542
    -4.4146  -4.3626  -4.1817  -4.1167   3.3054   6.1211   6.5183   6.9882
     7.5560   8.3456   8.5092   9.1352   9.3831  10.2481

          k = 0.4286 0.1434 0.3814 (  6859 PWs)   bands (ev):

   -45.1669 -21.8872 -21.8365 -21.7792  -6.3632  -5.7692  -5.5117  -4.4434
    -4.3854  -4.3382  -4.2028  -4.0111   3.1224   5.9068   6.3279   6.5342
     6.8970   8.1583   8.8481   9.0142   9.4397  10.0412

          k = 0.4286 0.2869 0.0000 (  6881 PWs)   bands (ev):

   -45.1668 -21.8447 -21.8368 -21.8155  -6.2677  -5.7941  -5.7718  -4.4482
    -4.3942  -4.2856  -4.1461  -4.1288   3.0597   6.1696   6.6931   7.1873
     7.6543   7.8749   8.1145   9.1463   9.8072  10.0771

          k = 0.4286 0.2869 0.1907 (  6854 PWs)   bands (ev):

   -45.1666 -21.8602 -21.8361 -21.8149  -6.1775  -5.8156  -5.7548  -4.4198
    -4.3881  -4.2390  -4.1098  -4.0719   3.1963   6.0772   6.1835   6.3813
     7.1553   7.9210   8.8667   9.3030   9.5054   9.8732

          k = 0.4286 0.2869 0.3814 (  6847 PWs)   bands (ev):

   -45.1662 -21.8854 -21.8348 -21.8137  -6.1208  -5.8421  -5.6281  -4.3911
    -4.3581  -4.1759  -4.0540  -3.9644   3.4098   5.5491   5.6842   6.1066
     6.7200   7.2624   8.2221   9.7275   9.8144  10.0523

          k = 0.4286 0.4303 0.0000 (  6872 PWs)   bands (ev):

   -45.1663 -21.8446 -21.8418 -21.8352  -6.1503  -5.7570  -5.7481  -4.4330
    -4.3477  -4.2138  -4.1658  -4.0619   2.7971   6.0055   6.4100   7.3621
     7.4637   7.8544   8.0306   8.8776   9.4436  10.2496

          k = 0.4286 0.4303 0.1907 (  6859 PWs)   bands (ev):

   -45.1661 -21.8587 -21.8425 -21.8346  -6.0144  -5.8058  -5.7955  -4.4021
    -4.3417  -4.1318  -4.0762  -4.0296   3.0461   5.9570   6.1658   6.2192
     6.6037   7.8883   8.4939   9.2164   9.2372  10.2410

          k = 0.4286 0.4303 0.3814 (  6855 PWs)   bands (ev):

   -45.1657 -21.8839 -21.8413 -21.8334  -5.9296  -5.8844  -5.7106  -4.3523
    -4.3359  -4.0329  -3.9432  -3.9318   3.6092   5.3469   5.4570   5.8816
     6.5186   6.8189   7.1577  10.0446  10.0665  10.2278

     highest occupied level (ev):    10.8272

!    total energy              =    -380.57767004 Ry
     estimated scf accuracy    <          6.2E-09 Ry

     The total energy is the sum of the following terms:
     one-electron contribution =     -79.71131695 Ry
     hartree contribution      =      69.93359682 Ry
     xc contribution           =    -102.67748558 Ry
     ewald contribution        =    -268.12246433 Ry

     convergence has been achieved in  17 iterations

     negative rho (up, down):  1.581E-02 0.000E+00

     Forces acting on atoms (cartesian axes, Ry/au):

     atom    1 type  1   force =     0.00000000    0.00000000    0.00008187
     atom    2 type  2   force =     0.00000000    0.00000000    0.00029505
     atom    3 type  3   force =     0.00000000    0.00000000   -0.00015914
     atom    4 type  3   force =     0.00000000    0.00000000    0.00031198
     atom    5 type  3   force =     0.00000000    0.00000000   -0.00052976

     Total force =     0.000705     Total SCF correction =     0.000242
     SCF correction compared to forces is large: reduce conv_thr to get better values


     Computing stress (Cartesian axis) and pressure


     negative rho (up, down):  1.581E-02 0.000E+00
          total   stress  (Ry/bohr**3)                   (kbar)     P=        1.65
  -0.00001209   0.00000000   0.00000000           -1.78        0.00        0.00
   0.00000000   0.00003921   0.00000000            0.00        5.77        0.00
   0.00000000   0.00000000   0.00000647            0.00        0.00        0.95


     BFGS Geometry Optimization
     Energy error            =      0.0E+00 Ry
     Gradient error          =      5.3E-04 Ry/Bohr

     bfgs converged in   1 scf cycles and   0 bfgs steps
     (criteria: energy <  1.0E-04 Ry, force <  1.0E-03 Ry/Bohr)

     End of BFGS Geometry Optimization

     Final energy             =    -380.5776700430 Ry
Begin final coordinates

ATOMIC_POSITIONS (crystal)
Pb            0.0000000000        0.0000000000        1.0051904083
Ti            0.5000000000        0.5000000000        0.5395123895
O             0.5000000000        0.5000000000        0.0994787311
O             0.5000000000        0.0000000000        0.6115513795
O             0.0000000000        0.5000000000        0.6115513795
End final coordinates



     Writing all to output data dir ./PTO2.save/
 
     init_run     :     17.50s CPU     17.91s WALL (       1 calls)
     electrons    :    963.11s CPU    993.50s WALL (       1 calls)
     forces       :      3.57s CPU      3.65s WALL (       1 calls)
     stress       :     21.76s CPU     21.98s WALL (       1 calls)

     Called by init_run:
     wfcinit      :     12.37s CPU     12.66s WALL (       1 calls)
     potinit      :      0.19s CPU      0.20s WALL (       1 calls)
     hinit0       :      4.02s CPU      4.04s WALL (       1 calls)

     Called by electrons:
     c_bands      :    870.57s CPU    897.34s WALL (      17 calls)
     sum_band     :     79.22s CPU     81.57s WALL (      17 calls)
     v_of_rho     :      0.50s CPU      0.52s WALL (      18 calls)
     newd         :     13.23s CPU     14.49s WALL (      18 calls)
     mix_rho      :      0.33s CPU      0.36s WALL (      17 calls)

     Called by c_bands:
     init_us_2    :     22.11s CPU     22.23s WALL (    1776 calls)
     init_us_2:cp :     22.05s CPU     22.20s WALL (    1776 calls)
     ccgdiagg     :    752.70s CPU    776.19s WALL (     816 calls)
     wfcrot       :    116.44s CPU    118.46s WALL (     816 calls)

     Called by *cgdiagg:
     h_psi        :    590.59s CPU    605.41s WALL (   65219 calls)
     s_psi        :    143.58s CPU    150.69s WALL (  129622 calls)

     Called by h_psi:
     h_psi:calbec :     74.34s CPU     76.66s WALL (   65219 calls)
     vloc_psi     :    436.12s CPU    445.95s WALL (   65219 calls)
     add_vuspsi   :     74.00s CPU     77.38s WALL (   65219 calls)
     hs_1psi      :    560.63s CPU    576.02s WALL (   64403 calls)
     s_1psi       :    143.46s CPU    148.16s WALL (   64403 calls)

     General routines
     calbec       :    144.41s CPU    151.52s WALL (  130678 calls)
     fft          :      0.18s CPU      0.18s WALL (      80 calls)
     ffts         :      0.04s CPU      0.04s WALL (      17 calls)
     fftw         :    399.38s CPU    407.08s WALL (  183526 calls)
 
     Parallel routines
 
     PWSCF        :  16m47.39s CPU  17m20.07s WALL

 
   This run was terminated on:   9:37: 0  11Apr2022            

=------------------------------------------------------------------------------=
   JOB DONE.
=------------------------------------------------------------------------------=
