
     Program PWSCF v.7.0 starts on 11Apr2022 at  8: 7:43 

     This program is part of the open-source Quantum ESPRESSO suite
     for quantum simulation of materials; please cite
         "P. Giannozzi et al., J. Phys.:Condens. Matter 21 395502 (2009);
         "P. Giannozzi et al., J. Phys.:Condens. Matter 29 465901 (2017);
         "P. Giannozzi et al., J. Chem. Phys. 152 154105 (2020);
          URL http://www.quantum-espresso.org", 
     in publications or presentations arising from this work. More details at
     http://www.quantum-espresso.org/quote

     Parallel version (MPI), running on     1 processors

     MPI processes distributed on     1 nodes
     90131 MiB available memory on the printing compute node when the environment starts
 
     Waiting for input...
     Reading input from standard input
Warning: card &CELL ignored
Warning: card  CELL_DYNAMICS = 'BFGS', ignored
Warning: card  PRESS=0.1D0, ignored
Warning: card / ignored

     Current dimensions of program PWSCF are:
     Max number of different atomic species (ntypx) = 10
     Max number of k-points (npk) =  40000
     Max angular momentum in pseudopotentials (lmaxx) =  4
     Message from routine setup:
     using ibrav=0 with symmetry is DISCOURAGED, use correct ibrav instead

     Subspace diagonalization in iterative solution of the eigenvalue problem:
     a serial algorithm will be used

 
     G-vector sticks info
     --------------------
     sticks:   dense  smooth     PW     G-vecs:    dense   smooth      PW
     Sum        1685    1685    485                54885    54885    8241
 
     Using Slab Decomposition
 


     bravais-lattice index     =            0
     lattice parameter (alat)  =       7.2428  a.u.
     unit-cell volume          =     406.4575 (a.u.)^3
     number of atoms/cell      =            5
     number of atomic types    =            3
     number of electrons       =        44.00
     number of Kohn-Sham states=           22
     kinetic-energy cutoff     =     100.0000  Ry
     charge density cutoff     =     400.0000  Ry
     scf convergence threshold =      1.0E-08
     mixing beta               =       0.7000
     number of iterations used =            8  plain     mixing
     energy convergence thresh.=      1.0E-04
     force convergence thresh. =      1.0E-03
     Exchange-correlation= SLA  PZ   NOGX NOGC
                           (   1   1   0   0   0   0   0)
     nstep                     =           50


     celldm(1)=   7.242753  celldm(2)=   0.000000  celldm(3)=   0.000000
     celldm(4)=   0.000000  celldm(5)=   0.000000  celldm(6)=   0.000000

     crystal axes: (cart. coord. in units of alat)
               a(1) = (   1.000000   0.000000   0.000000 )  
               a(2) = (   0.000000   1.012054   0.000000 )  
               a(3) = (   0.000000   0.000000   1.057062 )  

     reciprocal axes: (cart. coord. in units 2 pi/alat)
               b(1) = (  1.000000  0.000000  0.000000 )  
               b(2) = (  0.000000  0.988089  0.000000 )  
               b(3) = (  0.000000  0.000000  0.946019 )  


     PseudoPot. # 1 for Pb read from file:
     ./Pb_LDA.UPF
     MD5 check sum: 062a37469794d955244864f8fe2e5624
     Pseudo is Ultrasoft + core correction, Zval = 14.0
     Generated by new atomic code, or converted to UPF format
     Using radial grid of  899 points,  6 beta functions with: 
                l(1) =   0
                l(2) =   0
                l(3) =   1
                l(4) =   1
                l(5) =   2
                l(6) =   2
     Q(r) pseudized with  6 coefficients,  rinner =    1.000   1.000   1.000
                                                       1.000   1.000

     PseudoPot. # 2 for Ti read from file:
     ./Ti_LDA.UPF
     MD5 check sum: 0d9f225c038fe889ca2a701dcc8d72cb
     Pseudo is Ultrasoft + core correction, Zval = 12.0
     Generated by new atomic code, or converted to UPF format
     Using radial grid of  851 points,  6 beta functions with: 
                l(1) =   0
                l(2) =   0
                l(3) =   1
                l(4) =   1
                l(5) =   2
                l(6) =   2
     Q(r) pseudized with  6 coefficients,  rinner =    1.000   1.000   1.000
                                                       1.000   1.000

     PseudoPot. # 3 for O  read from file:
     ./O_LDA.UPF
     MD5 check sum: 194b818514d2a7dbb603bb78519a4f40
     Pseudo is Ultrasoft + core correction, Zval =  6.0
     Generated by new atomic code, or converted to UPF format
     Using radial grid of  737 points,  5 beta functions with: 
                l(1) =   0
                l(2) =   0
                l(3) =   1
                l(4) =   1
                l(5) =   2
     Q(r) pseudized with  8 coefficients,  rinner =    0.900   0.900   0.900
                                                       0.900   0.900

     atomic species   valence    mass     pseudopotential
        Pb            14.00   207.20000     Pb( 1.00)
        Ti            12.00    47.88000     Ti( 1.00)
        O              6.00    16.00000     O ( 1.00)

      4 Sym. Ops. (no inversion) found



   Cartesian axes

     site n.     atom                  positions (alat units)
         1           Pb  tau(   1) = (   0.0000000   0.0000000   1.0625482  )
         2           Ti  tau(   2) = (   0.5000000   0.5060271   0.5702978  )
         3           O   tau(   3) = (   0.5000000   0.5060271   0.1051551  )
         4           O   tau(   4) = (   0.5000000   0.0000000   0.6464475  )
         5           O   tau(   5) = (   0.0000000   0.5060271   0.6464475  )

     number of k points=    48
                       cart. coord. in units 2pi/alat
        k(    1) = (   0.0000000   0.0000000   0.0000000), wk =   0.0081633
        k(    2) = (   0.0000000   0.0000000   0.1892037), wk =   0.0163265
        k(    3) = (   0.0000000   0.0000000   0.3784075), wk =   0.0163265
        k(    4) = (   0.0000000   0.1411556   0.0000000), wk =   0.0163265
        k(    5) = (   0.0000000   0.1411556   0.1892037), wk =   0.0326531
        k(    6) = (   0.0000000   0.1411556   0.3784075), wk =   0.0326531
        k(    7) = (   0.0000000   0.2823113   0.0000000), wk =   0.0163265
        k(    8) = (   0.0000000   0.2823113   0.1892037), wk =   0.0326531
        k(    9) = (   0.0000000   0.2823113   0.3784075), wk =   0.0326531
        k(   10) = (   0.0000000   0.4234669   0.0000000), wk =   0.0163265
        k(   11) = (   0.0000000   0.4234669   0.1892037), wk =   0.0326531
        k(   12) = (   0.0000000   0.4234669   0.3784075), wk =   0.0326531
        k(   13) = (   0.1428571   0.0000000   0.0000000), wk =   0.0163265
        k(   14) = (   0.1428571   0.0000000   0.1892037), wk =   0.0326531
        k(   15) = (   0.1428571   0.0000000   0.3784075), wk =   0.0326531
        k(   16) = (   0.1428571   0.1411556   0.0000000), wk =   0.0326531
        k(   17) = (   0.1428571   0.1411556   0.1892037), wk =   0.0653061
        k(   18) = (   0.1428571   0.1411556   0.3784075), wk =   0.0653061
        k(   19) = (   0.1428571   0.2823113   0.0000000), wk =   0.0326531
        k(   20) = (   0.1428571   0.2823113   0.1892037), wk =   0.0653061
        k(   21) = (   0.1428571   0.2823113   0.3784075), wk =   0.0653061
        k(   22) = (   0.1428571   0.4234669   0.0000000), wk =   0.0326531
        k(   23) = (   0.1428571   0.4234669   0.1892037), wk =   0.0653061
        k(   24) = (   0.1428571   0.4234669   0.3784075), wk =   0.0653061
        k(   25) = (   0.2857143   0.0000000   0.0000000), wk =   0.0163265
        k(   26) = (   0.2857143   0.0000000   0.1892037), wk =   0.0326531
        k(   27) = (   0.2857143   0.0000000   0.3784075), wk =   0.0326531
        k(   28) = (   0.2857143   0.1411556   0.0000000), wk =   0.0326531
        k(   29) = (   0.2857143   0.1411556   0.1892037), wk =   0.0653061
        k(   30) = (   0.2857143   0.1411556   0.3784075), wk =   0.0653061
        k(   31) = (   0.2857143   0.2823113   0.0000000), wk =   0.0326531
        k(   32) = (   0.2857143   0.2823113   0.1892037), wk =   0.0653061
        k(   33) = (   0.2857143   0.2823113   0.3784075), wk =   0.0653061
        k(   34) = (   0.2857143   0.4234669   0.0000000), wk =   0.0326531
        k(   35) = (   0.2857143   0.4234669   0.1892037), wk =   0.0653061
        k(   36) = (   0.2857143   0.4234669   0.3784075), wk =   0.0653061
        k(   37) = (   0.4285714   0.0000000   0.0000000), wk =   0.0163265
        k(   38) = (   0.4285714   0.0000000   0.1892037), wk =   0.0326531
        k(   39) = (   0.4285714   0.0000000   0.3784075), wk =   0.0326531
        k(   40) = (   0.4285714   0.1411556   0.0000000), wk =   0.0326531
        k(   41) = (   0.4285714   0.1411556   0.1892037), wk =   0.0653061
        k(   42) = (   0.4285714   0.1411556   0.3784075), wk =   0.0653061
        k(   43) = (   0.4285714   0.2823113   0.0000000), wk =   0.0326531
        k(   44) = (   0.4285714   0.2823113   0.1892037), wk =   0.0653061
        k(   45) = (   0.4285714   0.2823113   0.3784075), wk =   0.0653061
        k(   46) = (   0.4285714   0.4234669   0.0000000), wk =   0.0326531
        k(   47) = (   0.4285714   0.4234669   0.1892037), wk =   0.0653061
        k(   48) = (   0.4285714   0.4234669   0.3784075), wk =   0.0653061

     Dense  grid:    54885 G-vectors     FFT dimensions: (  48,  48,  50)

     Estimated max dynamical RAM per process >     327.99 MB

     Check: negative core charge=   -0.000003

     Initial potential from superposition of free atoms

     starting charge      42.9982, renormalised to      44.0000

     negative rho (up, down):  1.705E-02 0.000E+00
     Starting wfcs are   31 randomized atomic wfcs

     total cpu time spent up to now is       20.7 secs

     Self-consistent Calculation

     iteration #  1     ecut=   100.00 Ry     beta= 0.70
     CG style diagonalization
     ethr =  1.00E-02,  avg # of iterations =  2.2

     negative rho (up, down):  1.433E-02 0.000E+00

     total cpu time spent up to now is       54.9 secs

     total energy              =    -380.06333241 Ry
     estimated scf accuracy    <       1.02352439 Ry

     iteration #  2     ecut=   100.00 Ry     beta= 0.70
     CG style diagonalization
     ethr =  2.33E-03,  avg # of iterations =  4.9

     negative rho (up, down):  1.504E-02 0.000E+00

     total cpu time spent up to now is      118.3 secs

     total energy              =    -379.77951833 Ry
     estimated scf accuracy    <       3.81163233 Ry

     iteration #  3     ecut=   100.00 Ry     beta= 0.70
     CG style diagonalization
     ethr =  2.33E-03,  avg # of iterations =  4.5

     negative rho (up, down):  1.563E-02 0.000E+00

     total cpu time spent up to now is      177.3 secs

     total energy              =    -380.54822683 Ry
     estimated scf accuracy    <       0.24766452 Ry

     iteration #  4     ecut=   100.00 Ry     beta= 0.70
     CG style diagonalization
     ethr =  5.63E-04,  avg # of iterations =  3.4

     negative rho (up, down):  1.567E-02 0.000E+00

     total cpu time spent up to now is      221.9 secs

     total energy              =    -380.56102355 Ry
     estimated scf accuracy    <       0.05135626 Ry

     iteration #  5     ecut=   100.00 Ry     beta= 0.70
     CG style diagonalization
     ethr =  1.17E-04,  avg # of iterations =  3.8

     negative rho (up, down):  1.566E-02 0.000E+00

     total cpu time spent up to now is      271.3 secs

     total energy              =    -380.57578567 Ry
     estimated scf accuracy    <       0.00475024 Ry

     iteration #  6     ecut=   100.00 Ry     beta= 0.70
     CG style diagonalization
     ethr =  1.08E-05,  avg # of iterations =  4.1

     negative rho (up, down):  1.565E-02 0.000E+00

     total cpu time spent up to now is      325.4 secs

     total energy              =    -380.57739751 Ry
     estimated scf accuracy    <       0.00719380 Ry

     iteration #  7     ecut=   100.00 Ry     beta= 0.70
     CG style diagonalization
     ethr =  1.08E-05,  avg # of iterations =  3.2

     negative rho (up, down):  1.566E-02 0.000E+00

     total cpu time spent up to now is      367.3 secs

     total energy              =    -380.57692868 Ry
     estimated scf accuracy    <       0.00264310 Ry

     iteration #  8     ecut=   100.00 Ry     beta= 0.70
     CG style diagonalization
     ethr =  6.01E-06,  avg # of iterations =  3.6

     negative rho (up, down):  1.568E-02 0.000E+00

     total cpu time spent up to now is      414.3 secs

     total energy              =    -380.57744147 Ry
     estimated scf accuracy    <       0.00001037 Ry

     iteration #  9     ecut=   100.00 Ry     beta= 0.70
     CG style diagonalization
     c_bands:  1 eigenvalues not converged
     c_bands:  1 eigenvalues not converged
     c_bands:  1 eigenvalues not converged
     c_bands:  1 eigenvalues not converged
     c_bands:  1 eigenvalues not converged
     ethr =  2.36E-08,  avg # of iterations =  8.0

     negative rho (up, down):  1.572E-02 0.000E+00

     total cpu time spent up to now is      517.9 secs

     total energy              =    -380.57750047 Ry
     estimated scf accuracy    <       0.00002324 Ry

     iteration # 10     ecut=   100.00 Ry     beta= 0.70
     CG style diagonalization
     ethr =  2.36E-08,  avg # of iterations =  3.7

     negative rho (up, down):  1.576E-02 0.000E+00

     total cpu time spent up to now is      566.1 secs

     total energy              =    -380.57750115 Ry
     estimated scf accuracy    <       0.00000743 Ry

     iteration # 11     ecut=   100.00 Ry     beta= 0.70
     CG style diagonalization
     ethr =  1.69E-08,  avg # of iterations =  3.3

     negative rho (up, down):  1.580E-02 0.000E+00

     total cpu time spent up to now is      607.9 secs

     total energy              =    -380.57749996 Ry
     estimated scf accuracy    <       0.00000510 Ry

     iteration # 12     ecut=   100.00 Ry     beta= 0.70
     CG style diagonalization
     ethr =  1.16E-08,  avg # of iterations =  4.0

     negative rho (up, down):  1.581E-02 0.000E+00

     total cpu time spent up to now is      659.4 secs

     total energy              =    -380.57750138 Ry
     estimated scf accuracy    <       0.00000030 Ry

     iteration # 13     ecut=   100.00 Ry     beta= 0.70
     CG style diagonalization
     ethr =  6.76E-10,  avg # of iterations =  8.2

     negative rho (up, down):  1.581E-02 0.000E+00

     total cpu time spent up to now is      765.6 secs

     total energy              =    -380.57750235 Ry
     estimated scf accuracy    <       0.00000004 Ry

     iteration # 14     ecut=   100.00 Ry     beta= 0.70
     CG style diagonalization
     ethr =  8.05E-11,  avg # of iterations =  7.9

     negative rho (up, down):  1.581E-02 0.000E+00

     total cpu time spent up to now is      866.6 secs

     total energy              =    -380.57750248 Ry
     estimated scf accuracy    <       0.00000001 Ry

     iteration # 15     ecut=   100.00 Ry     beta= 0.70
     CG style diagonalization
     ethr =  2.48E-11,  avg # of iterations =  5.5

     negative rho (up, down):  1.581E-02 0.000E+00

     total cpu time spent up to now is      937.7 secs

     End of self-consistent calculation

          k = 0.0000 0.0000 0.0000 (  6861 PWs)   bands (ev):

   -45.1682 -21.8491 -21.7721 -21.7596  -7.1658  -6.0131  -5.7569  -4.4149
    -4.4111  -4.3735  -4.2573  -4.1406   4.8416   6.6883   6.7826   7.1090
     8.7005   8.7216   8.9500   9.2877   9.4322   9.4515

          k = 0.0000 0.0000 0.1892 (  6858 PWs)   bands (ev):

   -45.1680 -21.8654 -21.7715 -21.7590  -7.0239  -5.9708  -5.7082  -4.4271
    -4.4235  -4.3724  -4.2497  -4.1924   4.1927   6.7338   6.8163   7.4189
     8.5048   8.5418   8.8925   9.1746   9.5254   9.5370

          k = 0.0000 0.0000 0.3784 (  6868 PWs)   bands (ev):

   -45.1676 -21.8915 -21.7705 -21.7579  -6.7772  -5.8966  -5.6351  -4.4467
    -4.4434  -4.3708  -4.2869  -4.2338   3.5267   6.7524   6.7901   6.8479
     8.2902   8.3615   8.8021   9.6213   9.6260  10.3281

          k = 0.0000 0.1412 0.0000 (  6869 PWs)   bands (ev):

   -45.1680 -21.8485 -21.7740 -21.7716  -7.0615  -5.9892  -5.7345  -4.4336
    -4.4100  -4.3841  -4.2594  -4.1329   4.4539   6.7603   6.8638   7.1795
     8.6286   8.7419   8.9559   9.1456   9.1869   9.5497

          k = 0.0000 0.1412 0.1892 (  6879 PWs)   bands (ev):

   -45.1677 -21.8647 -21.7733 -21.7709  -6.9275  -5.9546  -5.6833  -4.4364
    -4.4227  -4.3834  -4.2517  -4.1692   3.9735   6.6348   6.9033   7.4679
     8.2812   8.5337   8.8893   9.0673   9.2712   9.7332

          k = 0.0000 0.1412 0.3784 (  6887 PWs)   bands (ev):

   -45.1674 -21.8906 -21.7721 -21.7698  -6.7012  -5.8930  -5.6001  -4.4430
    -4.4375  -4.3822  -4.2485  -4.2261   3.4034   6.3858   6.9403   7.0858
     8.0107   8.3551   8.9857   9.1044   9.3764  10.4386

          k = 0.0000 0.2823 0.0000 (  6871 PWs)   bands (ev):

   -45.1674 -21.8472 -21.8059 -21.7702  -6.8115  -5.9335  -5.6923  -4.4669
    -4.4085  -4.4067  -4.2609  -4.1320   3.8695   6.6396   7.0303   7.0821
     8.5061   8.5498   8.8360   8.8373   9.2620   9.9015

          k = 0.0000 0.2823 0.1892 (  6868 PWs)   bands (ev):

   -45.1671 -21.8631 -21.8051 -21.7695  -6.7068  -5.9071  -5.6317  -4.4493
    -4.4209  -4.4077  -4.2500  -4.1354   3.5698   6.4757   7.1227   7.1387
     8.0858   8.3704   8.5394   8.9396   9.2437  10.1298

          k = 0.0000 0.2823 0.3784 (  6863 PWs)   bands (ev):

   -45.1668 -21.8887 -21.8038 -21.7684  -6.5566  -5.8457  -5.5137  -4.4423
    -4.4135  -4.4078  -4.2714  -4.1148   3.1541   6.1242   6.9591   7.1852
     7.7656   8.0462   8.2505   9.0152   9.6275  10.2729

          k = 0.0000 0.4235 0.0000 (  6850 PWs)   bands (ev):

   -45.1669 -21.8459 -21.8315 -21.7692  -6.5901  -5.8736  -5.6844  -4.4894
    -4.4267  -4.4053  -4.2442  -4.1585   3.5460   6.1663   7.2879   7.3582
     7.9506   8.0792   8.7381   8.8826   9.3154  10.8000

          k = 0.0000 0.4235 0.1892 (  6859 PWs)   bands (ev):

   -45.1667 -21.8617 -21.8306 -21.7685  -6.5330  -5.8277  -5.6164  -4.4646
    -4.4273  -4.4193  -4.2128  -4.1448   3.3196   6.1402   7.1295   7.4608
     7.4982   7.9629   8.6658   8.8951   9.2396  10.5692

          k = 0.0000 0.4235 0.3784 (  6871 PWs)   bands (ev):

   -45.1663 -21.8871 -21.8290 -21.7673  -6.4818  -5.7386  -5.4504  -4.4417
    -4.4281  -4.4173  -4.2609  -4.0436   2.9888   5.9483   6.6053   7.4077
     7.5094   7.9261   7.9380   8.9075   9.8475  10.1302

          k = 0.1429 0.0000 0.0000 (  6879 PWs)   bands (ev):

   -45.1679 -21.8485 -21.7886 -21.7589  -7.0529  -5.9854  -5.7327  -4.4303
    -4.4136  -4.3853  -4.2591  -4.1298   4.4589   6.7710   6.8117   7.1720
     8.6543   8.7159   8.9658   9.1536   9.1776   9.5479

          k = 0.1429 0.0000 0.1892 (  6868 PWs)   bands (ev):

   -45.1677 -21.8646 -21.7879 -21.7583  -6.9181  -5.9525  -5.6821  -4.4332
    -4.4261  -4.3846  -4.2552  -4.1605   3.9806   6.6847   6.8226   7.4548
     8.2780   8.4964   8.8946   9.0956   9.2669   9.7384

          k = 0.1429 0.0000 0.3784 (  6872 PWs)   bands (ev):

   -45.1673 -21.8905 -21.7868 -21.7572  -6.6897  -5.8952  -5.5993  -4.4463
    -4.4360  -4.3834  -4.2576  -4.2071   3.4127   6.4196   6.8859   7.0764
     8.0352   8.2837   8.9687   9.1441   9.3640  10.4341

          k = 0.1429 0.1412 0.0000 (  6867 PWs)   bands (ev):

   -45.1677 -21.8479 -21.7880 -21.7732  -6.9499  -5.9609  -5.7226  -4.4359
    -4.4257  -4.3914  -4.2441  -4.1224   4.1788   6.7287   6.9223   7.2397
     8.2835   8.5098   8.9990   9.0488   9.4041   9.6908

          k = 0.1429 0.1412 0.1892 (  6877 PWs)   bands (ev):

   -45.1674 -21.8639 -21.7873 -21.7725  -6.8211  -5.9368  -5.6719  -4.4405
    -4.4261  -4.3901  -4.2369  -4.1418   3.8317   6.6140   6.7033   7.4743
     8.1456   8.2857   8.8204   9.1554   9.4345   9.7520

          k = 0.1429 0.1412 0.3784 (  6877 PWs)   bands (ev):

   -45.1670 -21.8897 -21.7861 -21.7714  -6.6082  -5.8966  -5.5830  -4.4598
    -4.4006  -4.3856  -4.2361  -4.1788   3.3555   6.4226   6.4639   7.1535
     8.0586   8.0881   8.7407   9.2297   9.4739  10.3102

          k = 0.1429 0.2823 0.0000 (  6878 PWs)   bands (ev):

   -45.1670 -21.8465 -21.8051 -21.7865  -6.7040  -5.9057  -5.7087  -4.4651
    -4.4192  -4.3887  -4.2273  -4.1219   3.6922   6.6077   7.0125   7.1552
     7.9146   8.2885   8.7443   9.1700   9.3761  10.0922

          k = 0.1429 0.2823 0.1892 (  6867 PWs)   bands (ev):

   -45.1668 -21.8624 -21.8043 -21.7858  -6.5990  -5.8944  -5.6541  -4.4495
    -4.4255  -4.3787  -4.2114  -4.1139   3.5182   6.4376   6.6112   7.1945
     7.6988   8.2193   8.8618   9.1295   9.3632  10.0536

          k = 0.1429 0.2823 0.3784 (  6872 PWs)   bands (ev):

   -45.1664 -21.8879 -21.8030 -21.7847  -6.4511  -5.8662  -5.5395  -4.4487
    -4.4069  -4.3458  -4.2168  -4.0901   3.2170   6.0658   6.5101   6.8385
     7.2912   8.0314   8.8995   9.1926   9.6476   9.9747

          k = 0.1429 0.4235 0.0000 (  6864 PWs)   bands (ev):

   -45.1666 -21.8452 -21.8306 -21.7854  -6.4870  -5.8493  -5.7227  -4.4760
    -4.4101  -4.3746  -4.2148  -4.1487   3.3975   6.1808   7.0895   7.4850
     7.5098   8.1042   8.4909   9.1620   9.4208  10.6050

          k = 0.1429 0.4235 0.1892 (  6850 PWs)   bands (ev):

   -45.1663 -21.8609 -21.8297 -21.7847  -6.4240  -5.8243  -5.6658  -4.4541
    -4.4141  -4.3614  -4.1800  -4.1233   3.3024   6.1451   6.5311   6.9828
     7.5560   8.3626   8.5295   9.1418   9.3833  10.2428

          k = 0.1429 0.4235 0.3784 (  6869 PWs)   bands (ev):

   -45.1660 -21.8863 -21.8282 -21.7836  -6.3723  -5.7742  -5.5123  -4.4432
    -4.3851  -4.3370  -4.1992  -4.0229   3.1115   5.9102   6.3419   6.5516
     6.9001   8.1666   8.8835   9.0289   9.4523  10.0317

          k = 0.2857 0.0000 0.0000 (  6849 PWs)   bands (ev):

   -45.1672 -21.8471 -21.8251 -21.7574  -6.7829  -5.9215  -5.6860  -4.4638
    -4.4121  -4.4102  -4.2559  -4.1254   3.8704   6.6082   6.9900   7.0223
     8.5083   8.5312   8.8442   8.8488   9.2582   9.9111

          k = 0.2857 0.0000 0.1892 (  6878 PWs)   bands (ev):

   -45.1670 -21.8629 -21.8244 -21.7567  -6.6766  -5.9001  -5.6264  -4.4456
    -4.4240  -4.4115  -4.2525  -4.1164   3.5832   6.4684   7.0595   7.0929
     8.0766   8.3326   8.5145   8.9193   9.2714  10.1573

          k = 0.2857 0.0000 0.3784 (  6876 PWs)   bands (ev):

   -45.1666 -21.8884 -21.8231 -21.7556  -6.5242  -5.8472  -5.5091  -4.4452
    -4.4116  -4.4100  -4.2762  -4.0839   3.1806   6.1393   6.9302   7.1380
     7.7177   8.0167   8.1807   8.9802   9.6872  10.2356

          k = 0.2857 0.1412 0.0000 (  6864 PWs)   bands (ev):

   -45.1669 -21.8465 -21.8244 -21.7715  -6.6846  -5.8969  -5.7042  -4.4641
    -4.4199  -4.3896  -4.2247  -4.1180   3.6906   6.5707   6.9801   7.1343
     7.9278   8.2895   8.7548   9.1323   9.3770  10.1079

          k = 0.2857 0.1412 0.1892 (  6861 PWs)   bands (ev):

   -45.1667 -21.8622 -21.8237 -21.7708  -6.5786  -5.8890  -5.6503  -4.4484
    -4.4261  -4.3795  -4.2150  -4.1003   3.5258   6.4271   6.5745   7.1805
     7.6990   8.1874   8.8223   9.1145   9.3732  10.0797

          k = 0.2857 0.1412 0.3784 (  6861 PWs)   bands (ev):

   -45.1663 -21.8877 -21.8225 -21.7697  -6.4297  -5.8659  -5.5365  -4.4476
    -4.4075  -4.3470  -4.2256  -4.0644   3.2358   6.0789   6.4780   6.8289
     7.2534   8.0003   8.8574   9.1435   9.6994   9.9498

          k = 0.2857 0.2823 0.0000 (  6855 PWs)   bands (ev):

   -45.1663 -21.8451 -21.8227 -21.8032  -6.4575  -5.8429  -5.7430  -4.4551
    -4.4152  -4.3458  -4.1670  -4.1157   3.3220   6.5732   6.6917   7.3513
     7.5090   7.8062   8.5786   9.1378   9.6705  10.1761

          k = 0.2857 0.2823 0.1892 (  6862 PWs)   bands (ev):

   -45.1661 -21.8607 -21.8221 -21.8024  -6.3552  -5.8620  -5.7030  -4.4294
    -4.4157  -4.3187  -4.1417  -4.0776   3.3560   6.2576   6.2998   6.7440
     7.4153   7.8060   9.0591   9.2578   9.6951   9.8081

          k = 0.2857 0.2823 0.3784 (  6863 PWs)   bands (ev):

   -45.1657 -21.8860 -21.8210 -21.8012  -6.2282  -5.8922  -5.5877  -4.4125
    -4.3881  -4.2608  -4.1082  -4.0206   3.3426   5.7935   5.9315   6.4247
     7.0777   7.2828   8.9817   9.5962   9.6485   9.8637

          k = 0.2857 0.4235 0.0000 (  6889 PWs)   bands (ev):

   -45.1658 -21.8438 -21.8285 -21.8214  -6.2709  -5.7973  -5.7733  -4.4475
    -4.3938  -4.2876  -4.1419  -4.1310   3.0618   6.1994   6.6721   7.1895
     7.6629   7.8748   8.1134   9.1486   9.8372  10.0504

          k = 0.2857 0.4235 0.1892 (  6860 PWs)   bands (ev):

   -45.1656 -21.8593 -21.8277 -21.8209  -6.1802  -5.8198  -5.7548  -4.4188
    -4.3883  -4.2402  -4.1040  -4.0772   3.1964   6.0969   6.1899   6.3705
     7.1517   7.9219   8.8874   9.3032   9.5027   9.8776

          k = 0.2857 0.4235 0.3784 (  6849 PWs)   bands (ev):

   -45.1652 -21.8845 -21.8264 -21.8198  -6.1209  -5.8483  -5.6276  -4.3899
    -4.3590  -4.1761  -4.0461  -3.9740   3.4049   5.5559   5.6755   6.1202
     6.7340   7.2534   8.2381   9.7407   9.8264  10.0438

          k = 0.4286 0.0000 0.0000 (  6855 PWs)   bands (ev):

   -45.1666 -21.8551 -21.8450 -21.7561  -6.5452  -5.8510  -5.6775  -4.4859
    -4.4325  -4.4083  -4.2278  -4.1565   3.5429   6.0857   7.2548   7.2685
     7.9766   8.0510   8.7390   8.8823   9.3118  10.8413

          k = 0.4286 0.0000 0.1892 (  6835 PWs)   bands (ev):

   -45.1664 -21.8613 -21.8536 -21.7554  -6.4893  -5.8091  -5.6110  -4.4607
    -4.4331  -4.4221  -4.2123  -4.1184   3.3359   6.0681   7.1144   7.3677
     7.4791   7.9368   8.6478   8.8728   9.2474  10.5889

          k = 0.4286 0.0000 0.3784 (  6874 PWs)   bands (ev):

   -45.1660 -21.8865 -21.8522 -21.7543  -6.4440  -5.7246  -5.4443  -4.4444
    -4.4339  -4.4134  -4.2604  -4.0036   3.0291   5.9264   6.5564   7.3578
     7.4756   7.8612   7.8914   8.8633   9.8070  10.1390

          k = 0.4286 0.1412 0.0000 (  6850 PWs)   bands (ev):

   -45.1663 -21.8543 -21.8444 -21.7702  -6.4530  -5.8291  -5.7171  -4.4744
    -4.4107  -4.3761  -4.2026  -4.1487   3.3921   6.0966   7.0541   7.4535
     7.5227   8.1117   8.4877   9.1214   9.4092  10.6497

          k = 0.4286 0.1412 0.1892 (  6856 PWs)   bands (ev):

   -45.1661 -21.8607 -21.8528 -21.7695  -6.3913  -5.8068  -5.6617  -4.4525
    -4.4138  -4.3635  -4.1841  -4.0997   3.3129   6.0711   6.4927   7.0005
     7.5576   8.3060   8.4757   9.1231   9.3816  10.2614

          k = 0.4286 0.1412 0.3784 (  6859 PWs)   bands (ev):

   -45.1657 -21.8858 -21.8515 -21.7683  -6.3459  -5.7582  -5.5082  -4.4420
    -4.3839  -4.3388  -4.2078  -3.9847   3.1455   5.8967   6.3004   6.5015
     6.8933   8.1430   8.7759   8.9863   9.4147  10.0631

          k = 0.4286 0.2823 0.0000 (  6862 PWs)   bands (ev):

   -45.1658 -21.8525 -21.8429 -21.8017  -6.2598  -5.7902  -5.7645  -4.4478
    -4.3931  -4.2802  -4.1529  -4.1214   3.0573   6.1097   6.7349   7.1839
     7.6341   7.8770   8.1204   9.1430   9.7416  10.1354

          k = 0.4286 0.2823 0.1892 (  6842 PWs)   bands (ev):

   -45.1655 -21.8591 -21.8511 -21.8010  -6.1710  -5.8078  -5.7516  -4.4199
    -4.3857  -4.2354  -4.1194  -4.0580   3.1977   6.0327   6.1697   6.4079
     7.1648   7.9217   8.8222   9.3025   9.5084   9.8689

          k = 0.4286 0.2823 0.3784 (  6853 PWs)   bands (ev):

   -45.1652 -21.8842 -21.8500 -21.7998  -6.1204  -5.8288  -5.6266  -4.3918
    -4.3541  -4.1743  -4.0681  -3.9418   3.4211   5.5352   5.6998   6.0794
     6.6958   7.2825   8.1907   9.7014   9.7873  10.0697

          k = 0.4286 0.4235 0.0000 (  6867 PWs)   bands (ev):

   -45.1653 -21.8510 -21.8416 -21.8268  -6.1495  -5.7611  -5.7432  -4.4324
    -4.3470  -4.2145  -4.1637  -4.0613   2.7977   6.0005   6.4150   7.3625
     7.4643   7.8489   8.0360   8.8784   9.4399  10.2521

          k = 0.4286 0.4235 0.1892 (  6853 PWs)   bands (ev):

   -45.1650 -21.8578 -21.8498 -21.8261  -6.0137  -5.8105  -5.7899  -4.4015
    -4.3409  -4.1330  -4.0744  -4.0282   3.0467   5.9512   6.1699   6.2193
     6.6058   7.8891   8.4930   9.2149   9.2391  10.2402

          k = 0.4286 0.4235 0.3784 (  6861 PWs)   bands (ev):

   -45.1647 -21.8828 -21.8487 -21.8249  -5.9319  -5.8815  -5.7097  -4.3521
    -4.3347  -4.0330  -3.9521  -3.9207   3.6097   5.3460   5.4578   5.8804
     6.5182   6.8217   7.1582  10.0390  10.0718  10.2259

     highest occupied level (ev):    10.8413

!    total energy              =    -380.57750248 Ry
     estimated scf accuracy    <          7.0E-09 Ry

     The total energy is the sum of the following terms:
     one-electron contribution =     -79.71461810 Ry
     hartree contribution      =      69.93611463 Ry
     xc contribution           =    -102.67784398 Ry
     ewald contribution        =    -268.12115503 Ry

     convergence has been achieved in  15 iterations

     negative rho (up, down):  1.581E-02 0.000E+00

     Forces acting on atoms (cartesian axes, Ry/au):

     atom    1 type  1   force =     0.00000000    0.00000000   -0.00006974
     atom    2 type  2   force =     0.00000000    0.00000000    0.00023611
     atom    3 type  3   force =     0.00000000    0.00000000   -0.00013514
     atom    4 type  3   force =     0.00000000    0.00000000   -0.00127883
     atom    5 type  3   force =     0.00000000    0.00000000    0.00124761

     Total force =     0.001809     Total SCF correction =     0.000450
     SCF correction compared to forces is large: reduce conv_thr to get better values


     Computing stress (Cartesian axis) and pressure


     negative rho (up, down):  1.581E-02 0.000E+00
          total   stress  (Ry/bohr**3)                   (kbar)     P=        1.87
   0.00009264   0.00000000   0.00000000           13.63        0.00        0.00
   0.00000000  -0.00006125   0.00000000            0.00       -9.01        0.00
   0.00000000   0.00000000   0.00000665            0.00        0.00        0.98


     BFGS Geometry Optimization
     Energy error            =      0.0E+00 Ry
     Gradient error          =      1.3E-03 Ry/Bohr

     number of scf cycles    =   1
     number of bfgs steps    =   0

     energy             new  =    -380.5775024817 Ry

     new trust radius        =       0.0012788332 bohr
     new conv_thr            =       0.0000000100 Ry


ATOMIC_POSITIONS (crystal)
Pb            0.0000000000        0.0000000000        1.0051812994
Ti            0.5000000000        0.5000000000        0.5395432289
O             0.5000000000        0.5000000000        0.0994610791
O             0.5000000000        0.0000000000        0.6113843436
O             0.0000000000        0.5000000000        0.6117143370



     Writing config-only to output data dir ./PTO2.save/
     NEW-OLD atomic charge density approx. for the potential

     Check: negative core charge=   -0.000003

     negative rho (up, down):  1.581E-02 0.000E+00

     total cpu time spent up to now is      966.3 secs

     Self-consistent Calculation

     iteration #  1     ecut=   100.00 Ry     beta= 0.70
     CG style diagonalization
     ethr =  1.00E-06,  avg # of iterations =  2.4

     Threshold (ethr) on eigenvalues was too large:
     Diagonalizing with lowered threshold

     CG style diagonalization
     c_bands:  1 eigenvalues not converged
     c_bands:  1 eigenvalues not converged
     c_bands:  2 eigenvalues not converged
     c_bands:  2 eigenvalues not converged
     c_bands:  1 eigenvalues not converged
     c_bands:  1 eigenvalues not converged
     c_bands:  1 eigenvalues not converged
     c_bands:  1 eigenvalues not converged
     c_bands:  1 eigenvalues not converged
     c_bands:  1 eigenvalues not converged
     c_bands:  1 eigenvalues not converged
     c_bands:  1 eigenvalues not converged
     c_bands:  2 eigenvalues not converged
     c_bands:  2 eigenvalues not converged
     c_bands:  2 eigenvalues not converged
     c_bands:  4 eigenvalues not converged
     c_bands:  1 eigenvalues not converged
     c_bands:  1 eigenvalues not converged
     c_bands:  2 eigenvalues not converged
     c_bands:  1 eigenvalues not converged
     c_bands:  1 eigenvalues not converged
     c_bands:  1 eigenvalues not converged
     c_bands:  3 eigenvalues not converged
     c_bands:  1 eigenvalues not converged
     c_bands:  3 eigenvalues not converged
     c_bands:  3 eigenvalues not converged
     c_bands:  2 eigenvalues not converged
     ethr =  7.53E-10,  avg # of iterations =  8.1

     negative rho (up, down):  1.581E-02 0.000E+00

     total cpu time spent up to now is     1110.8 secs

     total energy              =    -380.57750520 Ry
     estimated scf accuracy    <       0.00000039 Ry

     iteration #  2     ecut=   100.00 Ry     beta= 0.70
     CG style diagonalization
     ethr =  8.78E-10,  avg # of iterations =  4.6

     negative rho (up, down):  1.581E-02 0.000E+00

     total cpu time spent up to now is     1170.1 secs

     total energy              =    -380.57750516 Ry
     estimated scf accuracy    <       0.00000073 Ry

     iteration #  3     ecut=   100.00 Ry     beta= 0.70
     CG style diagonalization
     ethr =  8.78E-10,  avg # of iterations =  4.3

     negative rho (up, down):  1.581E-02 0.000E+00

     total cpu time spent up to now is     1225.2 secs

     total energy              =    -380.57750533 Ry
     estimated scf accuracy    <       0.00000012 Ry

     iteration #  4     ecut=   100.00 Ry     beta= 0.70
     CG style diagonalization
     ethr =  2.62E-10,  avg # of iterations =  3.6

     negative rho (up, down):  1.581E-02 0.000E+00

     total cpu time spent up to now is     1271.1 secs

     End of self-consistent calculation

          k = 0.0000 0.0000 0.0000 (  6861 PWs)   bands (ev):

   -45.1682 -21.8488 -21.7721 -21.7598  -7.1659  -6.0133  -5.7567  -4.4149
    -4.4112  -4.3735  -4.2573  -4.1406   4.8416   6.6884   6.7823   7.1089
     8.7020   8.7221   8.9500   9.2886   9.4313   9.4519

          k = 0.0000 0.0000 0.1892 (  6858 PWs)   bands (ev):

   -45.1680 -21.8651 -21.7715 -21.7591  -7.0241  -5.9711  -5.7079  -4.4271
    -4.4235  -4.3724  -4.2497  -4.1924   4.1928   6.7342   6.8159   7.4189
     8.5059   8.5422   8.8924   9.1750   9.5252   9.5370

          k = 0.0000 0.0000 0.3784 (  6868 PWs)   bands (ev):

   -45.1676 -21.8912 -21.7704 -21.7581  -6.7775  -5.8968  -5.6347  -4.4468
    -4.4434  -4.3708  -4.2869  -4.2338   3.5269   6.7524   6.7913   6.8473
     8.2902   8.3621   8.8021   9.6214   9.6255  10.3281

          k = 0.0000 0.1412 0.0000 (  6869 PWs)   bands (ev):

   -45.1680 -21.8482 -21.7741 -21.7715  -7.0617  -5.9893  -5.7342  -4.4337
    -4.4100  -4.3841  -4.2594  -4.1329   4.4537   6.7603   6.8635   7.1797
     8.6295   8.7425   8.9565   9.1446   9.1866   9.5496

          k = 0.0000 0.1412 0.1892 (  6879 PWs)   bands (ev):

   -45.1677 -21.8644 -21.7734 -21.7709  -6.9276  -5.9547  -5.6831  -4.4364
    -4.4227  -4.3834  -4.2516  -4.1692   3.9734   6.6351   6.9029   7.4681
     8.2820   8.5339   8.8887   9.0677   9.2710   9.7329

          k = 0.0000 0.1412 0.3784 (  6887 PWs)   bands (ev):

   -45.1674 -21.8904 -21.7722 -21.7698  -6.7015  -5.8930  -5.5998  -4.4431
    -4.4376  -4.3822  -4.2485  -4.2260   3.4034   6.3864   6.9397   7.0862
     8.0107   8.3555   8.9848   9.1047   9.3766  10.4382

          k = 0.0000 0.2823 0.0000 (  6871 PWs)   bands (ev):

   -45.1674 -21.8469 -21.8061 -21.7702  -6.8117  -5.9334  -5.6920  -4.4670
    -4.4086  -4.4067  -4.2607  -4.1319   3.8689   6.6396   7.0297   7.0818
     8.5046   8.5495   8.8369   8.8373   9.2620   9.9016

          k = 0.0000 0.2823 0.1892 (  6868 PWs)   bands (ev):

   -45.1671 -21.8628 -21.8053 -21.7695  -6.7071  -5.9069  -5.6314  -4.4494
    -4.4209  -4.4077  -4.2499  -4.1352   3.5692   6.4758   7.1224   7.1383
     8.0847   8.3699   8.5392   8.9401   9.2443  10.1296

          k = 0.0000 0.2823 0.3784 (  6863 PWs)   bands (ev):

   -45.1668 -21.8885 -21.8039 -21.7684  -6.5570  -5.8452  -5.5134  -4.4423
    -4.4137  -4.4078  -4.2714  -4.1145   3.1535   6.1249   6.9584   7.1844
     7.7659   8.0450   8.2504   9.0159   9.6283  10.2723

          k = 0.0000 0.4235 0.0000 (  6850 PWs)   bands (ev):

   -45.1669 -21.8456 -21.8317 -21.7691  -6.5906  -5.8731  -5.6841  -4.4895
    -4.4267  -4.4053  -4.2437  -4.1585   3.5454   6.1656   7.2865   7.3581
     7.9491   8.0784   8.7391   8.8829   9.3154  10.8004

          k = 0.0000 0.4235 0.1892 (  6859 PWs)   bands (ev):

   -45.1667 -21.8614 -21.8307 -21.7684  -6.5336  -5.8271  -5.6160  -4.4647
    -4.4273  -4.4193  -4.2128  -4.1444   3.3188   6.1397   7.1287   7.4605
     7.4970   7.9620   8.6657   8.8958   9.2400  10.5695

          k = 0.0000 0.4235 0.3784 (  6871 PWs)   bands (ev):

   -45.1663 -21.8868 -21.8292 -21.7673  -6.4824  -5.7378  -5.4499  -4.4417
    -4.4281  -4.4175  -4.2610  -4.0431   2.9878   5.9487   6.6037   7.4073
     7.5084   7.9258   7.9376   8.9087   9.8477  10.1306

          k = 0.1429 0.0000 0.0000 (  6879 PWs)   bands (ev):

   -45.1679 -21.8482 -21.7886 -21.7591  -7.0530  -5.9857  -5.7324  -4.4303
    -4.4136  -4.3853  -4.2591  -4.1299   4.4591   6.7710   6.8116   7.1718
     8.6546   8.7173   8.9655   9.1544   9.1784   9.5486

          k = 0.1429 0.0000 0.1892 (  6868 PWs)   bands (ev):

   -45.1677 -21.8643 -21.7879 -21.7584  -6.9182  -5.9528  -5.6818  -4.4331
    -4.4262  -4.3846  -4.2552  -4.1606   3.9809   6.6845   6.8230   7.4546
     8.2781   8.4975   8.8954   9.0957   9.2670   9.7387

          k = 0.1429 0.0000 0.3784 (  6872 PWs)   bands (ev):

   -45.1673 -21.8903 -21.7867 -21.7573  -6.6899  -5.8956  -5.5989  -4.4463
    -4.4359  -4.3834  -4.2576  -4.2073   3.4131   6.4196   6.8871   7.0760
     8.0356   8.2839   8.9691   9.1442   9.3635  10.4343

          k = 0.1429 0.1412 0.0000 (  6867 PWs)   bands (ev):

   -45.1677 -21.8476 -21.7879 -21.7733  -6.9500  -5.9611  -5.7223  -4.4359
    -4.4257  -4.3914  -4.2441  -4.1225   4.1787   6.7287   6.9222   7.2398
     8.2842   8.5099   8.9997   9.0487   9.4038   9.6915

          k = 0.1429 0.1412 0.1892 (  6877 PWs)   bands (ev):

   -45.1674 -21.8636 -21.7872 -21.7726  -6.8212  -5.9370  -5.6716  -4.4405
    -4.4261  -4.3901  -4.2368  -4.1418   3.8318   6.6142   6.7032   7.4744
     8.1457   8.2861   8.8210   9.1555   9.4344   9.7521

          k = 0.1429 0.1412 0.3784 (  6877 PWs)   bands (ev):

   -45.1670 -21.8895 -21.7861 -21.7715  -6.6085  -5.8968  -5.5826  -4.4598
    -4.4006  -4.3856  -4.2360  -4.1789   3.3556   6.4231   6.4639   7.1533
     8.0584   8.0885   8.7409   9.2299   9.4738  10.3101

          k = 0.1429 0.2823 0.0000 (  6878 PWs)   bands (ev):

   -45.1670 -21.8462 -21.8052 -21.7865  -6.7041  -5.9056  -5.7084  -4.4652
    -4.4192  -4.3887  -4.2272  -4.1219   3.6917   6.6076   7.0123   7.1549
     7.9137   8.2895   8.7433   9.1700   9.3764  10.0926

          k = 0.1429 0.2823 0.1892 (  6867 PWs)   bands (ev):

   -45.1668 -21.8621 -21.8044 -21.7858  -6.5993  -5.8943  -5.6538  -4.4496
    -4.4255  -4.3787  -4.2114  -4.1138   3.5178   6.4377   6.6112   7.1940
     7.6977   8.2200   8.8618   9.1292   9.3634  10.0538

          k = 0.1429 0.2823 0.3784 (  6872 PWs)   bands (ev):

   -45.1664 -21.8876 -21.8031 -21.7847  -6.4516  -5.8658  -5.5392  -4.4487
    -4.4070  -4.3459  -4.2169  -4.0899   3.2165   6.0663   6.5100   6.8380
     7.2900   8.0315   8.9001   9.1921   9.6483   9.9745

          k = 0.1429 0.4235 0.0000 (  6864 PWs)   bands (ev):

   -45.1666 -21.8449 -21.8307 -21.7853  -6.4875  -5.8488  -5.7225  -4.4762
    -4.4101  -4.3745  -4.2144  -4.1488   3.3969   6.1800   7.0892   7.4844
     7.5085   8.1038   8.4916   9.1623   9.4208  10.6054

          k = 0.1429 0.4235 0.1892 (  6850 PWs)   bands (ev):

   -45.1663 -21.8607 -21.8299 -21.7847  -6.4246  -5.8237  -5.6655  -4.4543
    -4.4141  -4.3614  -4.1800  -4.1230   3.3017   6.1446   6.5309   6.9818
     7.5553   8.3631   8.5292   9.1416   9.3837  10.2433

          k = 0.1429 0.4235 0.3784 (  6869 PWs)   bands (ev):

   -45.1660 -21.8860 -21.8284 -21.7835  -6.3730  -5.7735  -5.5118  -4.4433
    -4.3851  -4.3370  -4.1995  -4.0226   3.1105   5.9106   6.3417   6.5503
     6.8995   8.1668   8.8830   9.0292   9.4528  10.0322

          k = 0.2857 0.0000 0.0000 (  6849 PWs)   bands (ev):

   -45.1672 -21.8468 -21.8251 -21.7575  -6.7828  -5.9220  -5.6858  -4.4638
    -4.4121  -4.4102  -4.2560  -4.1257   3.8709   6.6080   6.9900   7.0229
     8.5085   8.5328   8.8463   8.8478   9.2592   9.9116

          k = 0.2857 0.0000 0.1892 (  6878 PWs)   bands (ev):

   -45.1670 -21.8626 -21.8244 -21.7568  -6.6766  -5.9007  -5.6261  -4.4455
    -4.4241  -4.4115  -4.2526  -4.1167   3.5838   6.4683   7.0598   7.0932
     8.0776   8.3337   8.5151   8.9196   9.2713  10.1578

          k = 0.2857 0.0000 0.3784 (  6876 PWs)   bands (ev):

   -45.1666 -21.8881 -21.8231 -21.7557  -6.5243  -5.8481  -5.5086  -4.4453
    -4.4116  -4.4098  -4.2762  -4.0843   3.1814   6.1393   6.9307   7.1391
     7.7175   8.0175   8.1812   8.9795   9.6873  10.2360

          k = 0.2857 0.1412 0.0000 (  6864 PWs)   bands (ev):

   -45.1669 -21.8462 -21.8243 -21.7717  -6.6845  -5.8973  -5.7040  -4.4641
    -4.4200  -4.3897  -4.2248  -4.1182   3.6908   6.5704   6.9805   7.1345
     7.9286   8.2901   8.7555   9.1327   9.3769  10.1084

          k = 0.2857 0.1412 0.1892 (  6861 PWs)   bands (ev):

   -45.1667 -21.8619 -21.8237 -21.7710  -6.5786  -5.8895  -5.6500  -4.4483
    -4.4262  -4.3795  -4.2149  -4.1005   3.5263   6.4269   6.5746   7.1810
     7.7004   8.1869   8.8228   9.1152   9.3731  10.0799

          k = 0.2857 0.1412 0.3784 (  6861 PWs)   bands (ev):

   -45.1663 -21.8874 -21.8224 -21.7698  -6.4297  -5.8666  -5.5360  -4.4476
    -4.4075  -4.3469  -4.2255  -4.0647   3.2364   6.0789   6.4782   6.8293
     7.2543   8.0002   8.8577   9.1436   9.6995   9.9498

          k = 0.2857 0.2823 0.0000 (  6855 PWs)   bands (ev):

   -45.1663 -21.8448 -21.8227 -21.8033  -6.4575  -5.8431  -5.7429  -4.4551
    -4.4152  -4.3458  -4.1669  -4.1159   3.3219   6.5729   6.6917   7.3512
     7.5093   7.8070   8.5781   9.1381   9.6703  10.1765

          k = 0.2857 0.2823 0.1892 (  6862 PWs)   bands (ev):

   -45.1661 -21.8604 -21.8221 -21.8026  -6.3553  -5.8622  -5.7027  -4.4294
    -4.4157  -4.3187  -4.1416  -4.0778   3.3559   6.2575   6.2999   6.7440
     7.4154   7.8061   9.0594   9.2578   9.6951   9.8082

          k = 0.2857 0.2823 0.3784 (  6863 PWs)   bands (ev):

   -45.1657 -21.8857 -21.8209 -21.8014  -6.2284  -5.8924  -5.5873  -4.4125
    -4.3882  -4.2608  -4.1081  -4.0207   3.3426   5.7937   5.9314   6.4249
     7.0778   7.2824   8.9821   9.5965   9.6481   9.8639

          k = 0.2857 0.4235 0.0000 (  6889 PWs)   bands (ev):

   -45.1658 -21.8435 -21.8287 -21.8214  -6.2711  -5.7970  -5.7732  -4.4475
    -4.3939  -4.2873  -4.1422  -4.1307   3.0615   6.1985   6.6717   7.1899
     7.6622   7.8759   8.1127   9.1491   9.8368  10.0508

          k = 0.2857 0.4235 0.1892 (  6860 PWs)   bands (ev):

   -45.1656 -21.8590 -21.8279 -21.8208  -6.1807  -5.8193  -5.7546  -4.4188
    -4.3883  -4.2401  -4.1043  -4.0769   3.1959   6.0967   6.1896   6.3699
     7.1517   7.9224   8.8868   9.3034   9.5032   9.8774

          k = 0.2857 0.4235 0.3784 (  6849 PWs)   bands (ev):

   -45.1652 -21.8842 -21.8266 -21.8197  -6.1216  -5.8477  -5.6272  -4.3900
    -4.3590  -4.1761  -4.0464  -3.9737   3.4042   5.5560   5.6758   6.1197
     6.7327   7.2545   8.2381   9.7408   9.8263  10.0443

          k = 0.4286 0.0000 0.0000 (  6855 PWs)   bands (ev):

   -45.1666 -21.8551 -21.8447 -21.7562  -6.5449  -5.8519  -5.6773  -4.4859
    -4.4325  -4.4083  -4.2282  -4.1566   3.5436   6.0860   7.2546   7.2701
     7.9776   8.0516   8.7380   8.8843   9.3129  10.8415

          k = 0.4286 0.0000 0.1892 (  6835 PWs)   bands (ev):

   -45.1664 -21.8611 -21.8535 -21.7555  -6.4891  -5.8100  -5.6107  -4.4606
    -4.4331  -4.4222  -4.2123  -4.1189   3.3368   6.0684   7.1152   7.3676
     7.4803   7.9380   8.6483   8.8734   9.2472  10.5891

          k = 0.4286 0.0000 0.3784 (  6874 PWs)   bands (ev):

   -45.1660 -21.8862 -21.8522 -21.7544  -6.4439  -5.7258  -5.4438  -4.4444
    -4.4339  -4.4132  -4.2603  -4.0041   3.0302   5.9263   6.5579   7.3578
     7.4768   7.8618   7.8914   8.8626   9.8073  10.1391

          k = 0.4286 0.1412 0.0000 (  6850 PWs)   bands (ev):

   -45.1663 -21.8543 -21.8441 -21.7703  -6.4526  -5.8300  -5.7169  -4.4744
    -4.4107  -4.3761  -4.2029  -4.1488   3.3926   6.0969   7.0546   7.4539
     7.5237   8.1119   8.4891   9.1210   9.4098  10.6497

          k = 0.4286 0.1412 0.1892 (  6856 PWs)   bands (ev):

   -45.1661 -21.8604 -21.8528 -21.7696  -6.3910  -5.8077  -5.6615  -4.4525
    -4.4139  -4.3635  -4.1840  -4.1002   3.3136   6.0713   6.4928   7.0016
     7.5586   8.3060   8.4759   9.1241   9.3813  10.2614

          k = 0.4286 0.1412 0.3784 (  6859 PWs)   bands (ev):

   -45.1657 -21.8855 -21.8515 -21.7685  -6.3457  -5.7592  -5.5078  -4.4420
    -4.3839  -4.3388  -4.2076  -3.9852   3.1466   5.8966   6.3002   6.5027
     6.8943   8.1425   8.7762   8.9870   9.4144  10.0632

          k = 0.4286 0.2823 0.0000 (  6862 PWs)   bands (ev):

   -45.1658 -21.8524 -21.8426 -21.8018  -6.2594  -5.7902  -5.7650  -4.4477
    -4.3931  -4.2804  -4.1526  -4.1217   3.0574   6.1101   6.7348   7.1842
     7.6346   7.8778   8.1203   9.1429   9.7420  10.1350

          k = 0.4286 0.2823 0.1892 (  6842 PWs)   bands (ev):

   -45.1655 -21.8589 -21.8511 -21.8011  -6.1706  -5.8084  -5.7516  -4.4199
    -4.3857  -4.2354  -4.1191  -4.0584   3.1979   6.0329   6.1700   6.4084
     7.1647   7.9215   8.8229   9.3028   9.5087   9.8684

          k = 0.4286 0.2823 0.3784 (  6853 PWs)   bands (ev):

   -45.1652 -21.8839 -21.8499 -21.8000  -6.1200  -5.8297  -5.6262  -4.3918
    -4.3542  -4.1742  -4.0678  -3.9422   3.4217   5.5349   5.6999   6.0799
     6.6969   7.2811   8.1911   9.7021   9.7870  10.0699

          k = 0.4286 0.4235 0.0000 (  6867 PWs)   bands (ev):

   -45.1653 -21.8510 -21.8413 -21.8270  -6.1492  -5.7604  -5.7443  -4.4324
    -4.3470  -4.2143  -4.1639  -4.0613   2.7975   6.0005   6.4144   7.3631
     7.4650   7.8490   8.0354   8.8786   9.4400  10.2518

          k = 0.4286 0.4235 0.1892 (  6853 PWs)   bands (ev):

   -45.1650 -21.8575 -21.8497 -21.8263  -6.0134  -5.8099  -5.7907  -4.4016
    -4.3410  -4.1328  -4.0745  -4.0282   3.0465   5.9512   6.1699   6.2195
     6.6055   7.8893   8.4930   9.2152   9.2394  10.2400

          k = 0.4286 0.4235 0.3784 (  6861 PWs)   bands (ev):

   -45.1647 -21.8825 -21.8487 -21.8251  -5.9317  -5.8820  -5.7094  -4.3521
    -4.3347  -4.0329  -3.9518  -3.9210   3.6095   5.3461   5.4579   5.8803
     6.5180   6.8216   7.1584  10.0395  10.0720  10.2257

     highest occupied level (ev):    10.8415

!    total energy              =    -380.57750534 Ry
     estimated scf accuracy    <          9.9E-09 Ry

     The total energy is the sum of the following terms:
     one-electron contribution =     -79.71332953 Ry
     hartree contribution      =      69.93495171 Ry
     xc contribution           =    -102.67767790 Ry
     ewald contribution        =    -268.12144962 Ry

     convergence has been achieved in   4 iterations

     negative rho (up, down):  1.581E-02 0.000E+00

     Forces acting on atoms (cartesian axes, Ry/au):

     atom    1 type  1   force =     0.00000000    0.00000000    0.00025577
     atom    2 type  2   force =     0.00000000    0.00000000    0.00002349
     atom    3 type  3   force =     0.00000000    0.00000000   -0.00010382
     atom    4 type  3   force =     0.00000000    0.00000000   -0.00123989
     atom    5 type  3   force =     0.00000000    0.00000000    0.00106445

     Total force =     0.001657     Total SCF correction =     0.000211
     SCF correction compared to forces is large: reduce conv_thr to get better values


     Computing stress (Cartesian axis) and pressure


     negative rho (up, down):  1.581E-02 0.000E+00
          total   stress  (Ry/bohr**3)                   (kbar)     P=        1.52
   0.00008992   0.00000000   0.00000000           13.23        0.00        0.00
   0.00000000  -0.00006272   0.00000000            0.00       -9.23        0.00
   0.00000000   0.00000000   0.00000390            0.00        0.00        0.57


     BFGS Geometry Optimization
     Energy error            =      0.0E+00 Ry
     Gradient error          =      1.2E-03 Ry/Bohr

     number of scf cycles    =   1
     number of bfgs steps    =   0

     energy             new  =    -380.5775053416 Ry

     new trust radius        =       0.0012398881 bohr
     new conv_thr            =       0.0000000100 Ry


ATOMIC_POSITIONS (crystal)
Pb            0.0000000000        0.0000000000        1.0052147064
Ti            0.5000000000        0.5000000000        0.5395462974
O             0.5000000000        0.5000000000        0.0994475180
O             0.5000000000        0.0000000000        0.6112223945
O             0.0000000000        0.5000000000        0.6118533715



     Writing config-only to output data dir ./PTO2.save/
     NEW-OLD atomic charge density approx. for the potential

     Check: negative core charge=   -0.000003

     negative rho (up, down):  1.581E-02 0.000E+00

     total cpu time spent up to now is     1298.7 secs

     Self-consistent Calculation

     iteration #  1     ecut=   100.00 Ry     beta= 0.70
     CG style diagonalization
     ethr =  1.00E-06,  avg # of iterations =  2.4

     Threshold (ethr) on eigenvalues was too large:
     Diagonalizing with lowered threshold

     CG style diagonalization
     c_bands:  1 eigenvalues not converged
     c_bands:  1 eigenvalues not converged
     c_bands:  1 eigenvalues not converged
     c_bands:  1 eigenvalues not converged
     c_bands:  1 eigenvalues not converged
     c_bands:  1 eigenvalues not converged
     c_bands:  1 eigenvalues not converged
     c_bands:  1 eigenvalues not converged
     c_bands:  2 eigenvalues not converged
     c_bands:  1 eigenvalues not converged
     c_bands:  1 eigenvalues not converged
     c_bands:  1 eigenvalues not converged
     c_bands:  2 eigenvalues not converged
     c_bands:  1 eigenvalues not converged
     c_bands:  2 eigenvalues not converged
     c_bands:  4 eigenvalues not converged
     c_bands:  3 eigenvalues not converged
     c_bands:  5 eigenvalues not converged
     c_bands:  3 eigenvalues not converged
     c_bands:  1 eigenvalues not converged
     c_bands:  2 eigenvalues not converged
     c_bands:  1 eigenvalues not converged
     c_bands:  1 eigenvalues not converged
     c_bands:  3 eigenvalues not converged
     c_bands:  3 eigenvalues not converged
     c_bands:  5 eigenvalues not converged
     c_bands:  3 eigenvalues not converged
     c_bands:  2 eigenvalues not converged
     ethr =  6.62E-10,  avg # of iterations =  8.3

     negative rho (up, down):  1.581E-02 0.000E+00

     total cpu time spent up to now is     1446.1 secs

     total energy              =    -380.57750790 Ry
     estimated scf accuracy    <       0.00000030 Ry

     iteration #  2     ecut=   100.00 Ry     beta= 0.70
     CG style diagonalization
     ethr =  6.80E-10,  avg # of iterations =  4.6

     negative rho (up, down):  1.581E-02 0.000E+00

     total cpu time spent up to now is     1505.0 secs

     total energy              =    -380.57750790 Ry
     estimated scf accuracy    <       0.00000043 Ry

     iteration #  3     ecut=   100.00 Ry     beta= 0.70
     CG style diagonalization
     ethr =  6.80E-10,  avg # of iterations =  4.2

     negative rho (up, down):  1.581E-02 0.000E+00

     total cpu time spent up to now is     1559.5 secs

     total energy              =    -380.57750801 Ry
     estimated scf accuracy    <       0.00000008 Ry

     iteration #  4     ecut=   100.00 Ry     beta= 0.70
     CG style diagonalization
     ethr =  1.81E-10,  avg # of iterations =  3.6

     negative rho (up, down):  1.581E-02 0.000E+00

     total cpu time spent up to now is     1606.3 secs

     End of self-consistent calculation

          k = 0.0000 0.0000 0.0000 (  6861 PWs)   bands (ev):

   -45.1688 -21.8493 -21.7726 -21.7604  -7.1658  -6.0130  -5.7569  -4.4148
    -4.4110  -4.3734  -4.2572  -4.1407   4.8416   6.6887   6.7822   7.1084
     8.7024   8.7216   8.9500   9.2885   9.4309   9.4526

          k = 0.0000 0.0000 0.1892 (  6858 PWs)   bands (ev):

   -45.1686 -21.8656 -21.7719 -21.7597  -7.0240  -5.9708  -5.7082  -4.4270
    -4.4234  -4.3723  -4.2496  -4.1925   4.1927   6.7347   6.8156   7.4184
     8.5061   8.5418   8.8925   9.1750   9.5252   9.5372

          k = 0.0000 0.0000 0.3784 (  6868 PWs)   bands (ev):

   -45.1682 -21.8917 -21.7709 -21.7587  -6.7773  -5.8965  -5.6351  -4.4466
    -4.4433  -4.3707  -4.2870  -4.2337   3.5269   6.7520   6.7922   6.8465
     8.2898   8.3622   8.8022   9.6218   9.6254  10.3281

          k = 0.0000 0.1412 0.0000 (  6869 PWs)   bands (ev):

   -45.1686 -21.8487 -21.7747 -21.7720  -7.0616  -5.9890  -5.7344  -4.4336
    -4.4099  -4.3840  -4.2592  -4.1329   4.4535   6.7604   6.8634   7.1797
     8.6296   8.7421   8.9570   9.1440   9.1861   9.5493

          k = 0.0000 0.1412 0.1892 (  6879 PWs)   bands (ev):

   -45.1683 -21.8649 -21.7740 -21.7713  -6.9276  -5.9543  -5.6833  -4.4364
    -4.4226  -4.3833  -4.2515  -4.1692   3.9732   6.6354   6.9026   7.4679
     8.2821   8.5334   8.8881   9.0679   9.2710   9.7326

          k = 0.0000 0.1412 0.3784 (  6887 PWs)   bands (ev):

   -45.1679 -21.8908 -21.7729 -21.7703  -6.7013  -5.8925  -5.6002  -4.4429
    -4.4376  -4.3821  -4.2484  -4.2260   3.4031   6.3866   6.9389   7.0863
     8.0104   8.3555   8.9844   9.1048   9.3770  10.4379

          k = 0.0000 0.2823 0.0000 (  6871 PWs)   bands (ev):

   -45.1679 -21.8474 -21.8067 -21.7707  -6.8117  -5.9328  -5.6922  -4.4669
    -4.4084  -4.4066  -4.2605  -4.1319   3.8685   6.6398   7.0290   7.0818
     8.5032   8.5492   8.8364   8.8379   9.2614   9.9012

          k = 0.0000 0.2823 0.1892 (  6868 PWs)   bands (ev):

   -45.1677 -21.8633 -21.8059 -21.7700  -6.7071  -5.9063  -5.6316  -4.4494
    -4.4208  -4.4076  -4.2498  -4.1351   3.5686   6.4760   7.1221   7.1380
     8.0838   8.3692   8.5387   8.9401   9.2446  10.1292

          k = 0.0000 0.2823 0.3784 (  6863 PWs)   bands (ev):

   -45.1673 -21.8890 -21.8045 -21.7689  -6.5570  -5.8443  -5.5137  -4.4422
    -4.4138  -4.4077  -4.2714  -4.1143   3.1528   6.1251   6.9576   7.1836
     7.7661   8.0443   8.2501   9.0165   9.6287  10.2717

          k = 0.0000 0.4235 0.0000 (  6850 PWs)   bands (ev):

   -45.1675 -21.8461 -21.8323 -21.7696  -6.5909  -5.8722  -5.6843  -4.4895
    -4.4266  -4.4052  -4.2434  -4.1585   3.5448   6.1651   7.2851   7.3582
     7.9479   8.0776   8.7401   8.8822   9.3148  10.8003

          k = 0.0000 0.4235 0.1892 (  6859 PWs)   bands (ev):

   -45.1672 -21.8619 -21.8314 -21.7689  -6.5338  -5.8261  -5.6162  -4.4647
    -4.4272  -4.4191  -4.2128  -4.1441   3.3180   6.1393   7.1280   7.4605
     7.4960   7.9610   8.6653   8.8958   9.2404  10.5694

          k = 0.0000 0.4235 0.3784 (  6871 PWs)   bands (ev):

   -45.1669 -21.8873 -21.8298 -21.7678  -6.4825  -5.7367  -5.4503  -4.4416
    -4.4280  -4.4176  -4.2611  -4.0428   2.9867   5.9489   6.6021   7.4075
     7.5073   7.9256   7.9374   8.9094   9.8477  10.1305

          k = 0.1429 0.0000 0.0000 (  6879 PWs)   bands (ev):

   -45.1685 -21.8487 -21.7890 -21.7597  -7.0529  -5.9855  -5.7327  -4.4301
    -4.4135  -4.3852  -4.2590  -4.1300   4.4594   6.7713   6.8114   7.1713
     8.6542   8.7175   8.9652   9.1553   9.1789   9.5489

          k = 0.1429 0.0000 0.1892 (  6868 PWs)   bands (ev):

   -45.1683 -21.8648 -21.7883 -21.7590  -6.9181  -5.9526  -5.6820  -4.4330
    -4.4260  -4.3845  -4.2551  -4.1608   3.9811   6.6842   6.8235   7.4541
     8.2777   8.4979   8.8961   9.0955   9.2672   9.7390

          k = 0.1429 0.0000 0.3784 (  6872 PWs)   bands (ev):

   -45.1679 -21.8907 -21.7872 -21.7580  -6.6897  -5.8955  -5.5991  -4.4462
    -4.4357  -4.3833  -4.2575  -4.2074   3.4132   6.4192   6.8880   7.0754
     8.0357   8.2836   8.9699   9.1441   9.3633  10.4344

          k = 0.1429 0.1412 0.0000 (  6867 PWs)   bands (ev):

   -45.1682 -21.8481 -21.7884 -21.7740  -6.9499  -5.9608  -5.7225  -4.4358
    -4.4256  -4.3913  -4.2440  -4.1226   4.1788   6.7287   6.9221   7.2397
     8.2841   8.5101   8.9997   9.0486   9.4040   9.6914

          k = 0.1429 0.1412 0.1892 (  6877 PWs)   bands (ev):

   -45.1680 -21.8641 -21.7877 -21.7733  -6.8211  -5.9367  -5.6718  -4.4404
    -4.4260  -4.3900  -4.2367  -4.1419   3.8318   6.6143   6.7031   7.4742
     8.1454   8.2863   8.8209   9.1556   9.4345   9.7520

          k = 0.1429 0.1412 0.3784 (  6877 PWs)   bands (ev):

   -45.1676 -21.8900 -21.7865 -21.7721  -6.6083  -5.8965  -5.5829  -4.4597
    -4.4005  -4.3855  -4.2359  -4.1790   3.3556   6.4233   6.4635   7.1533
     8.0581   8.0888   8.7409   9.2299   9.4739  10.3099

          k = 0.1429 0.2823 0.0000 (  6878 PWs)   bands (ev):

   -45.1676 -21.8467 -21.8058 -21.7869  -6.7042  -5.9051  -5.7086  -4.4651
    -4.4190  -4.3885  -4.2270  -4.1220   3.6915   6.6077   7.0119   7.1546
     7.9130   8.2897   8.7425   9.1698   9.3766  10.0923

          k = 0.1429 0.2823 0.1892 (  6867 PWs)   bands (ev):

   -45.1674 -21.8626 -21.8051 -21.7863  -6.5993  -5.8937  -5.6539  -4.4496
    -4.4254  -4.3786  -4.2113  -4.1138   3.5174   6.4379   6.6112   7.1935
     7.6965   8.2204   8.8616   9.1288   9.3636  10.0537

          k = 0.1429 0.2823 0.3784 (  6872 PWs)   bands (ev):

   -45.1670 -21.8881 -21.8037 -21.7851  -6.4516  -5.8651  -5.5395  -4.4487
    -4.4068  -4.3458  -4.2169  -4.0897   3.2160   6.0665   6.5100   6.8375
     7.2892   8.0315   8.9002   9.1921   9.6485   9.9742

          k = 0.1429 0.4235 0.0000 (  6864 PWs)   bands (ev):

   -45.1671 -21.8454 -21.8314 -21.7858  -6.4878  -5.8479  -5.7226  -4.4761
    -4.4100  -4.3744  -4.2141  -4.1489   3.3965   6.1794   7.0889   7.4841
     7.5073   8.1033   8.4912   9.1627   9.4205  10.6054

          k = 0.1429 0.4235 0.1892 (  6850 PWs)   bands (ev):

   -45.1669 -21.8612 -21.8305 -21.7851  -6.4249  -5.8228  -5.6656  -4.4542
    -4.4139  -4.3613  -4.1800  -4.1227   3.3011   6.1443   6.5309   6.9808
     7.5544   8.3633   8.5289   9.1411   9.3841  10.2433

          k = 0.1429 0.4235 0.3784 (  6869 PWs)   bands (ev):

   -45.1665 -21.8865 -21.8290 -21.7840  -6.3731  -5.7724  -5.5122  -4.4432
    -4.3850  -4.3369  -4.1997  -4.0222   3.1095   5.9108   6.3418   6.5491
     6.8985   8.1671   8.8828   9.0289   9.4528  10.0324

          k = 0.2857 0.0000 0.0000 (  6849 PWs)   bands (ev):

   -45.1678 -21.8473 -21.8255 -21.7581  -6.7827  -5.9220  -5.6860  -4.4636
    -4.4120  -4.4101  -4.2561  -4.1259   3.8714   6.6078   6.9902   7.0233
     8.5087   8.5342   8.8471   8.8474   9.2596   9.9116

          k = 0.2857 0.0000 0.1892 (  6878 PWs)   bands (ev):

   -45.1675 -21.8631 -21.8248 -21.7574  -6.6764  -5.9008  -5.6263  -4.4453
    -4.4239  -4.4114  -4.2526  -4.1170   3.5843   6.4681   7.0602   7.0932
     8.0784   8.3344   8.5154   8.9196   9.2711  10.1579

          k = 0.2857 0.0000 0.3784 (  6876 PWs)   bands (ev):

   -45.1672 -21.8886 -21.8235 -21.7563  -6.5239  -5.8484  -5.5089  -4.4452
    -4.4115  -4.4095  -4.2761  -4.0846   3.1820   6.1390   6.9310   7.1401
     7.7172   8.0185   8.1815   8.9789   9.6869  10.2362

          k = 0.2857 0.1412 0.0000 (  6864 PWs)   bands (ev):

   -45.1675 -21.8467 -21.8248 -21.7723  -6.6843  -5.8972  -5.7042  -4.4639
    -4.4199  -4.3896  -4.2248  -4.1184   3.6913   6.5702   6.9808   7.1347
     7.9293   8.2899   8.7562   9.1329   9.3768  10.1083

          k = 0.2857 0.1412 0.1892 (  6861 PWs)   bands (ev):

   -45.1673 -21.8624 -21.8241 -21.7716  -6.5783  -5.8895  -5.6503  -4.4482
    -4.4261  -4.3794  -4.2149  -4.1008   3.5267   6.4267   6.5747   7.1814
     7.7015   8.1863   8.8230   9.1158   9.3730  10.0797

          k = 0.2857 0.1412 0.3784 (  6861 PWs)   bands (ev):

   -45.1669 -21.8879 -21.8229 -21.7704  -6.4293  -5.8668  -5.5363  -4.4474
    -4.4074  -4.3467  -4.2254  -4.0650   3.2369   6.0786   6.4783   6.8295
     7.2552   8.0001   8.8574   9.1441   9.6991   9.9498

          k = 0.2857 0.2823 0.0000 (  6855 PWs)   bands (ev):

   -45.1669 -21.8453 -21.8231 -21.8039  -6.4575  -5.8427  -5.7430  -4.4550
    -4.4151  -4.3458  -4.1668  -4.1160   3.3220   6.5728   6.6917   7.3512
     7.5093   7.8068   8.5781   9.1379   9.6705  10.1762

          k = 0.2857 0.2823 0.1892 (  6862 PWs)   bands (ev):

   -45.1667 -21.8609 -21.8225 -21.8032  -6.3552  -5.8619  -5.7029  -4.4293
    -4.4156  -4.3186  -4.1415  -4.0779   3.3560   6.2573   6.3000   6.7440
     7.4153   7.8058   9.0595   9.2579   9.6953   9.8079

          k = 0.2857 0.2823 0.3784 (  6863 PWs)   bands (ev):

   -45.1663 -21.8862 -21.8214 -21.8020  -6.2282  -5.8921  -5.5876  -4.4123
    -4.3881  -4.2607  -4.1080  -4.0209   3.3427   5.7935   5.9316   6.4247
     7.0778   7.2821   8.9819   9.5965   9.6482   9.8639

          k = 0.2857 0.4235 0.0000 (  6889 PWs)   bands (ev):

   -45.1664 -21.8440 -21.8293 -21.8218  -6.2714  -5.7964  -5.7731  -4.4474
    -4.3938  -4.2871  -4.1425  -4.1305   3.0615   6.1979   6.6715   7.1899
     7.6617   7.8758   8.1124   9.1491   9.8367  10.0511

          k = 0.2857 0.4235 0.1892 (  6860 PWs)   bands (ev):

   -45.1662 -21.8595 -21.8285 -21.8213  -6.1811  -5.8185  -5.7547  -4.4188
    -4.3881  -4.2400  -4.1045  -4.0766   3.1958   6.0966   6.1894   6.3694
     7.1517   7.9224   8.8862   9.3034   9.5032   9.8777

          k = 0.2857 0.4235 0.3784 (  6849 PWs)   bands (ev):

   -45.1658 -21.8847 -21.8272 -21.8202  -6.1219  -5.8467  -5.6275  -4.3899
    -4.3588  -4.1760  -4.0466  -3.9734   3.4037   5.5564   5.6758   6.1192
     6.7314   7.2555   8.2375   9.7404   9.8266  10.0444

          k = 0.4286 0.0000 0.0000 (  6855 PWs)   bands (ev):

   -45.1672 -21.8555 -21.8452 -21.7568  -6.5444  -5.8523  -5.6774  -4.4857
    -4.4324  -4.4082  -4.2286  -4.1567   3.5442   6.0865   7.2546   7.2714
     7.9787   8.0522   8.7371   8.8851   9.3134  10.8412

          k = 0.4286 0.0000 0.1892 (  6835 PWs)   bands (ev):

   -45.1670 -21.8616 -21.8540 -21.7561  -6.4886  -5.8105  -5.6109  -4.4604
    -4.4330  -4.4220  -4.2123  -4.1194   3.3375   6.0687   7.1158   7.3678
     7.4813   7.9390   8.6484   8.8734   9.2469  10.5887

          k = 0.4286 0.0000 0.3784 (  6874 PWs)   bands (ev):

   -45.1666 -21.8867 -21.8526 -21.7550  -6.4434  -5.7264  -5.4441  -4.4443
    -4.4338  -4.4130  -4.2601  -4.0045   3.0312   5.9261   6.5591   7.3583
     7.4778   7.8624   7.8914   8.8617   9.8073  10.1386

          k = 0.4286 0.1412 0.0000 (  6850 PWs)   bands (ev):

   -45.1669 -21.8547 -21.8446 -21.7709  -6.4522  -5.8303  -5.7170  -4.4742
    -4.4106  -4.3760  -4.2033  -4.1489   3.3932   6.0974   7.0549   7.4545
     7.5247   8.1121   8.4894   9.1209   9.4101  10.6493

          k = 0.4286 0.1412 0.1892 (  6856 PWs)   bands (ev):

   -45.1667 -21.8609 -21.8532 -21.7702  -6.3904  -5.8082  -5.6617  -4.4523
    -4.4138  -4.3634  -4.1839  -4.1006   3.3143   6.0716   6.4930   7.0025
     7.5592   8.3059   8.4759   9.1247   9.3812  10.2609

          k = 0.4286 0.1412 0.3784 (  6859 PWs)   bands (ev):

   -45.1663 -21.8860 -21.8519 -21.7691  -6.3451  -5.7598  -5.5081  -4.4418
    -4.3838  -4.3386  -4.2074  -3.9857   3.1475   5.8964   6.3003   6.5038
     6.8948   8.1421   8.7768   8.9871   9.4138  10.0629

          k = 0.4286 0.2823 0.0000 (  6862 PWs)   bands (ev):

   -45.1663 -21.8529 -21.8431 -21.8024  -6.2591  -5.7899  -5.7654  -4.4476
    -4.3929  -4.2806  -4.1523  -4.1220   3.0578   6.1107   6.7349   7.1842
     7.6351   7.8775   8.1204   9.1424   9.7424  10.1345

          k = 0.4286 0.2823 0.1892 (  6842 PWs)   bands (ev):

   -45.1661 -21.8594 -21.8515 -21.8017  -6.1701  -5.8086  -5.7518  -4.4197
    -4.3856  -4.2354  -4.1189  -4.0589   3.1985   6.0331   6.1702   6.4088
     7.1645   7.9209   8.8234   9.3029   9.5084   9.8683

          k = 0.4286 0.2823 0.3784 (  6853 PWs)   bands (ev):

   -45.1657 -21.8844 -21.8504 -21.8006  -6.1193  -5.8302  -5.6265  -4.3916
    -4.3542  -4.1741  -4.0676  -3.9426   3.4225   5.5347   5.6998   6.0803
     6.6977   7.2797   8.1911   9.7024   9.7871  10.0697

          k = 0.4286 0.4235 0.0000 (  6867 PWs)   bands (ev):

   -45.1659 -21.8514 -21.8418 -21.8276  -6.1494  -5.7593  -5.7448  -4.4323
    -4.3469  -4.2142  -4.1642  -4.0612   2.7979   6.0006   6.4142   7.3630
     7.4648   7.8493   8.0352   8.8782   9.4398  10.2520

          k = 0.4286 0.4235 0.1892 (  6853 PWs)   bands (ev):

   -45.1656 -21.8580 -21.8501 -21.8269  -6.0136  -5.8090  -5.7912  -4.4015
    -4.3409  -4.1327  -4.0746  -4.0283   3.0468   5.9513   6.1698   6.2194
     6.6053   7.8889   8.4929   9.2152   9.2392  10.2402

          k = 0.4286 0.4235 0.3784 (  6861 PWs)   bands (ev):

   -45.1653 -21.8830 -21.8491 -21.8257  -5.9311  -5.8821  -5.7096  -4.3519
    -4.3347  -4.0329  -3.9516  -3.9213   3.6100   5.3461   5.4577   5.8803
     6.5180   6.8211   7.1580  10.0395  10.0718  10.2259

     highest occupied level (ev):    10.8412

!    total energy              =    -380.57750802 Ry
     estimated scf accuracy    <          4.9E-09 Ry

     The total energy is the sum of the following terms:
     one-electron contribution =     -79.71027078 Ry
     hartree contribution      =      69.93405497 Ry
     xc contribution           =    -102.67773639 Ry
     ewald contribution        =    -268.12355581 Ry

     convergence has been achieved in   4 iterations

     negative rho (up, down):  1.581E-02 0.000E+00

     Forces acting on atoms (cartesian axes, Ry/au):

     atom    1 type  1   force =     0.00000000    0.00000000    0.00007903
     atom    2 type  2   force =     0.00000000    0.00000000    0.00005751
     atom    3 type  3   force =     0.00000000    0.00000000   -0.00003398
     atom    4 type  3   force =     0.00000000    0.00000000   -0.00109042
     atom    5 type  3   force =     0.00000000    0.00000000    0.00098786

     Total force =     0.001475     Total SCF correction =     0.000082


     Computing stress (Cartesian axis) and pressure


     negative rho (up, down):  1.581E-02 0.000E+00
          total   stress  (Ry/bohr**3)                   (kbar)     P=        1.85
   0.00009174   0.00000000   0.00000000           13.50        0.00        0.00
   0.00000000  -0.00005969   0.00000000            0.00       -8.78        0.00
   0.00000000   0.00000000   0.00000573            0.00        0.00        0.84


     BFGS Geometry Optimization
     Energy error            =      0.0E+00 Ry
     Gradient error          =      1.1E-03 Ry/Bohr

     number of scf cycles    =   1
     number of bfgs steps    =   0

     energy             new  =    -380.5775080164 Ry

     new trust radius        =       0.0010904213 bohr
     new conv_thr            =       0.0000000100 Ry


ATOMIC_POSITIONS (crystal)
Pb            0.0000000000        0.0000000000        1.0052250286
Ti            0.5000000000        0.5000000000        0.5395538097
O             0.5000000000        0.5000000000        0.0994430800
O             0.5000000000        0.0000000000        0.6110799681
O             0.0000000000        0.5000000000        0.6119824015



     Writing config-only to output data dir ./PTO2.save/
     NEW-OLD atomic charge density approx. for the potential

     Check: negative core charge=   -0.000003

     negative rho (up, down):  1.581E-02 0.000E+00

     total cpu time spent up to now is     1633.8 secs

     Self-consistent Calculation

     iteration #  1     ecut=   100.00 Ry     beta= 0.70
     CG style diagonalization
     ethr =  1.00E-06,  avg # of iterations =  2.3

     Threshold (ethr) on eigenvalues was too large:
     Diagonalizing with lowered threshold

     CG style diagonalization
     c_bands:  1 eigenvalues not converged
     c_bands:  1 eigenvalues not converged
     c_bands:  1 eigenvalues not converged
     c_bands:  1 eigenvalues not converged
     c_bands:  1 eigenvalues not converged
     c_bands:  1 eigenvalues not converged
     c_bands:  1 eigenvalues not converged
     c_bands:  1 eigenvalues not converged
     c_bands:  2 eigenvalues not converged
     c_bands:  1 eigenvalues not converged
     c_bands:  1 eigenvalues not converged
     c_bands:  1 eigenvalues not converged
     c_bands:  1 eigenvalues not converged
     c_bands:  2 eigenvalues not converged
     c_bands:  1 eigenvalues not converged
     c_bands:  2 eigenvalues not converged
     c_bands:  2 eigenvalues not converged
     c_bands:  3 eigenvalues not converged
     c_bands:  5 eigenvalues not converged
     c_bands:  2 eigenvalues not converged
     c_bands:  3 eigenvalues not converged
     c_bands:  1 eigenvalues not converged
     c_bands:  1 eigenvalues not converged
     c_bands:  2 eigenvalues not converged
     c_bands:  1 eigenvalues not converged
     c_bands:  1 eigenvalues not converged
     c_bands:  4 eigenvalues not converged
     c_bands:  3 eigenvalues not converged
     c_bands:  5 eigenvalues not converged
     c_bands:  1 eigenvalues not converged
     c_bands:  3 eigenvalues not converged
     ethr =  4.34E-10,  avg # of iterations =  8.5

     negative rho (up, down):  1.581E-02 0.000E+00

     total cpu time spent up to now is     1782.4 secs

     total energy              =    -380.57750979 Ry
     estimated scf accuracy    <       0.00000021 Ry

     iteration #  2     ecut=   100.00 Ry     beta= 0.70
     CG style diagonalization
     ethr =  4.85E-10,  avg # of iterations =  4.4

     negative rho (up, down):  1.581E-02 0.000E+00

     total cpu time spent up to now is     1839.0 secs

     total energy              =    -380.57750980 Ry
     estimated scf accuracy    <       0.00000019 Ry

     iteration #  3     ecut=   100.00 Ry     beta= 0.70
     CG style diagonalization
     ethr =  4.21E-10,  avg # of iterations =  4.1

     negative rho (up, down):  1.581E-02 0.000E+00

     total cpu time spent up to now is     1892.8 secs

     total energy              =    -380.57750985 Ry
     estimated scf accuracy    <       0.00000010 Ry

     iteration #  4     ecut=   100.00 Ry     beta= 0.70
     CG style diagonalization
     ethr =  2.28E-10,  avg # of iterations =  3.6

     negative rho (up, down):  1.581E-02 0.000E+00

     total cpu time spent up to now is     1938.4 secs

     End of self-consistent calculation

          k = 0.0000 0.0000 0.0000 (  6861 PWs)   bands (ev):

   -45.1685 -21.8490 -21.7722 -21.7602  -7.1656  -6.0129  -5.7567  -4.4151
    -4.4113  -4.3737  -4.2574  -4.1409   4.8415   6.6890   6.7822   7.1083
     8.7033   8.7216   8.9502   9.2889   9.4307   9.4534

          k = 0.0000 0.0000 0.1892 (  6858 PWs)   bands (ev):

   -45.1683 -21.8652 -21.7716 -21.7595  -7.0237  -5.9706  -5.7079  -4.4273
    -4.4237  -4.3726  -4.2497  -4.1927   4.1927   6.7353   6.8155   7.4185
     8.5067   8.5419   8.8926   9.1752   9.5254   9.5375

          k = 0.0000 0.0000 0.3784 (  6868 PWs)   bands (ev):

   -45.1679 -21.8913 -21.7705 -21.7585  -6.7771  -5.8963  -5.6348  -4.4469
    -4.4435  -4.3709  -4.2873  -4.2339   3.5268   6.7522   6.7933   6.8461
     8.2898   8.3626   8.8024   9.6223   9.6254  10.3282

          k = 0.0000 0.1412 0.0000 (  6869 PWs)   bands (ev):

   -45.1683 -21.8484 -21.7745 -21.7716  -7.0614  -5.9887  -5.7342  -4.4339
    -4.4102  -4.3843  -4.2594  -4.1331   4.4533   6.7607   6.8634   7.1799
     8.6301   8.7422   8.9576   9.1435   9.1860   9.5493

          k = 0.0000 0.1412 0.1892 (  6879 PWs)   bands (ev):

   -45.1680 -21.8645 -21.7738 -21.7710  -6.9274  -5.9540  -5.6831  -4.4367
    -4.4228  -4.3836  -4.2516  -4.1694   3.9729   6.6358   6.9025   7.4682
     8.2826   8.5334   8.8878   9.0683   9.2712   9.7325

          k = 0.0000 0.1412 0.3784 (  6887 PWs)   bands (ev):

   -45.1676 -21.8905 -21.7726 -21.7699  -6.7012  -5.8921  -5.6000  -4.4432
    -4.4380  -4.3824  -4.2487  -4.2262   3.4029   6.3871   6.9385   7.0868
     8.0104   8.3558   8.9841   9.1052   9.3775  10.4378

          k = 0.0000 0.2823 0.0000 (  6871 PWs)   bands (ev):

   -45.1676 -21.8470 -21.8065 -21.7703  -6.8116  -5.9324  -5.6919  -4.4672
    -4.4087  -4.4069  -4.2605  -4.1320   3.8680   6.6401   7.0286   7.0818
     8.5021   8.5491   8.8360   8.8389   9.2613   9.9012

          k = 0.0000 0.2823 0.1892 (  6868 PWs)   bands (ev):

   -45.1674 -21.8630 -21.8057 -21.7696  -6.7070  -5.9057  -5.6314  -4.4497
    -4.4211  -4.4079  -4.2499  -4.1352   3.5681   6.4763   7.1220   7.1379
     8.0832   8.3689   8.5386   8.9405   9.2452  10.1290

          k = 0.0000 0.2823 0.3784 (  6863 PWs)   bands (ev):

   -45.1670 -21.8886 -21.8043 -21.7685  -6.5570  -5.8436  -5.5135  -4.4425
    -4.4143  -4.4080  -4.2716  -4.1143   3.1522   6.1257   6.9572   7.1831
     7.7666   8.0436   8.2501   9.0173   9.6293  10.2713

          k = 0.0000 0.4235 0.0000 (  6850 PWs)   bands (ev):

   -45.1672 -21.8458 -21.8321 -21.7692  -6.5910  -5.8714  -5.6839  -4.4898
    -4.4269  -4.4055  -4.2432  -4.1587   3.5442   6.1648   7.2840   7.3584
     7.9470   8.0772   8.7412   8.8820   9.3147  10.8005

          k = 0.0000 0.4235 0.1892 (  6859 PWs)   bands (ev):

   -45.1669 -21.8615 -21.8312 -21.7685  -6.5339  -5.8252  -5.6159  -4.4651
    -4.4275  -4.4194  -4.2130  -4.1440   3.3172   6.1392   7.1276   7.4605
     7.4952   7.9604   8.6654   8.8963   9.2409  10.5695

          k = 0.0000 0.4235 0.3784 (  6871 PWs)   bands (ev):

   -45.1666 -21.8870 -21.8296 -21.7674  -6.4827  -5.7356  -5.4499  -4.4419
    -4.4283  -4.4180  -4.2615  -4.0427   2.9857   5.9493   6.6011   7.4076
     7.5065   7.9257   7.9374   8.9104   9.8478  10.1307

          k = 0.1429 0.0000 0.0000 (  6879 PWs)   bands (ev):

   -45.1682 -21.8483 -21.7887 -21.7595  -7.0527  -5.9854  -5.7324  -4.4303
    -4.4138  -4.3855  -4.2593  -4.1303   4.4595   6.7716   6.8115   7.1712
     8.6543   8.7182   8.9651   9.1563   9.1797   9.5495

          k = 0.1429 0.0000 0.1892 (  6868 PWs)   bands (ev):

   -45.1680 -21.8645 -21.7880 -21.7588  -6.9179  -5.9525  -5.6817  -4.4332
    -4.4263  -4.3847  -4.2553  -4.1611   3.9812   6.6842   6.8240   7.4541
     8.2778   8.4986   8.8969   9.0957   9.2676   9.7394

          k = 0.1429 0.0000 0.3784 (  6872 PWs)   bands (ev):

   -45.1676 -21.8904 -21.7868 -21.7577  -6.6895  -5.8954  -5.5988  -4.4464
    -4.4359  -4.3836  -4.2578  -4.2078   3.4134   6.4192   6.8891   7.0752
     8.0360   8.2838   8.9707   9.1442   9.3633  10.4347

          k = 0.1429 0.1412 0.0000 (  6867 PWs)   bands (ev):

   -45.1679 -21.8477 -21.7880 -21.7738  -6.9497  -5.9606  -5.7223  -4.4361
    -4.4259  -4.3916  -4.2441  -4.1229   4.1788   6.7289   6.9222   7.2398
     8.2843   8.5104   9.0002   9.0487   9.4041   9.6917

          k = 0.1429 0.1412 0.1892 (  6877 PWs)   bands (ev):

   -45.1677 -21.8638 -21.7873 -21.7730  -6.8209  -5.9365  -5.6716  -4.4407
    -4.4263  -4.3902  -4.2369  -4.1422   3.8317   6.6146   6.7032   7.4744
     8.1454   8.2868   8.8213   9.1558   9.4347   9.7521

          k = 0.1429 0.1412 0.3784 (  6877 PWs)   bands (ev):

   -45.1673 -21.8896 -21.7862 -21.7719  -6.6081  -5.8963  -5.5826  -4.4599
    -4.4008  -4.3857  -4.2361  -4.1793   3.3555   6.4238   6.4636   7.1534
     8.0581   8.0893   8.7411   9.2302   9.4742  10.3100

          k = 0.1429 0.2823 0.0000 (  6878 PWs)   bands (ev):

   -45.1673 -21.8464 -21.8056 -21.7866  -6.7041  -5.9047  -5.7083  -4.4654
    -4.4193  -4.3888  -4.2271  -4.1222   3.6912   6.6080   7.0118   7.1545
     7.9125   8.2903   8.7420   9.1699   9.3770  10.0925

          k = 0.1429 0.2823 0.1892 (  6867 PWs)   bands (ev):

   -45.1671 -21.8622 -21.8049 -21.7859  -6.5992  -5.8933  -5.6537  -4.4499
    -4.4256  -4.3789  -4.2114  -4.1139   3.5170   6.4382   6.6114   7.1932
     7.6958   8.2211   8.8616   9.1287   9.3640  10.0538

          k = 0.1429 0.2823 0.3784 (  6872 PWs)   bands (ev):

   -45.1667 -21.8878 -21.8035 -21.7848  -6.4516  -5.8645  -5.5393  -4.4490
    -4.4071  -4.3462  -4.2172  -4.0898   3.2155   6.0670   6.5102   6.8373
     7.2886   8.0318   8.9006   9.1921   9.6491   9.9741

          k = 0.1429 0.4235 0.0000 (  6864 PWs)   bands (ev):

   -45.1668 -21.8451 -21.8312 -21.7854  -6.4879  -5.8471  -5.7224  -4.4765
    -4.4103  -4.3746  -4.2140  -4.1492   3.3960   6.1792   7.0887   7.4840
     7.5064   8.1032   8.4913   9.1632   9.4206  10.6056

          k = 0.1429 0.4235 0.1892 (  6850 PWs)   bands (ev):

   -45.1666 -21.8608 -21.8303 -21.7848  -6.4250  -5.8219  -5.6653  -4.4546
    -4.4142  -4.3615  -4.1803  -4.1227   3.3004   6.1442   6.5309   6.9801
     7.5540   8.3638   8.5288   9.1409   9.3846  10.2436

          k = 0.1429 0.4235 0.3784 (  6869 PWs)   bands (ev):

   -45.1662 -21.8862 -21.8288 -21.7836  -6.3733  -5.7714  -5.5119  -4.4436
    -4.3853  -4.3372  -4.2001  -4.0221   3.1087   5.9113   6.3420   6.5483
     6.8981   8.1676   8.8826   9.0290   9.4531  10.0329

          k = 0.2857 0.0000 0.0000 (  6849 PWs)   bands (ev):

   -45.1675 -21.8470 -21.8251 -21.7579  -6.7823  -5.9220  -5.6858  -4.4638
    -4.4123  -4.4103  -4.2565  -4.1263   3.8718   6.6079   6.9904   7.0239
     8.5091   8.5356   8.8466   8.8489   9.2605   9.9118

          k = 0.2857 0.0000 0.1892 (  6878 PWs)   bands (ev):

   -45.1672 -21.8627 -21.8245 -21.7572  -6.6760  -5.9009  -5.6260  -4.4455
    -4.4242  -4.4117  -4.2528  -4.1175   3.5848   6.4682   7.0607   7.0936
     8.0794   8.3353   8.5160   8.9200   9.2711  10.1583

          k = 0.2857 0.0000 0.3784 (  6876 PWs)   bands (ev):

   -45.1669 -21.8883 -21.8232 -21.7561  -6.5235  -5.8487  -5.5085  -4.4454
    -4.4117  -4.4096  -4.2763  -4.0852   3.1825   6.1390   6.9317   7.1412
     7.7172   8.0195   8.1821   8.9786   9.6869  10.2366

          k = 0.2857 0.1412 0.0000 (  6864 PWs)   bands (ev):

   -45.1672 -21.8464 -21.8244 -21.7721  -6.6840  -5.8972  -5.7040  -4.4641
    -4.4201  -4.3899  -4.2251  -4.1187   3.6915   6.5703   6.9812   7.1350
     7.9302   8.2901   8.7571   9.1334   9.3769  10.1085

          k = 0.2857 0.1412 0.1892 (  6861 PWs)   bands (ev):

   -45.1670 -21.8621 -21.8238 -21.7714  -6.5780  -5.8896  -5.6500  -4.4484
    -4.4264  -4.3797  -4.2151  -4.1013   3.5270   6.4268   6.5749   7.1820
     7.7027   8.1860   8.8235   9.1165   9.3732  10.0797

          k = 0.2857 0.1412 0.3784 (  6861 PWs)   bands (ev):

   -45.1666 -21.8875 -21.8225 -21.7702  -6.4289  -5.8670  -5.5359  -4.4477
    -4.4077  -4.3469  -4.2255  -4.0655   3.2373   6.0787   6.4786   6.8300
     7.2563   8.0002   8.8576   9.1445   9.6991   9.9499

          k = 0.2857 0.2823 0.0000 (  6855 PWs)   bands (ev):

   -45.1666 -21.8450 -21.8228 -21.8037  -6.4572  -5.8425  -5.7427  -4.4553
    -4.4154  -4.3460  -4.1669  -4.1164   3.3220   6.5729   6.6920   7.3513
     7.5095   7.8072   8.5781   9.1383   9.6707  10.1764

          k = 0.2857 0.2823 0.1892 (  6862 PWs)   bands (ev):

   -45.1664 -21.8605 -21.8222 -21.8030  -6.3550  -5.8617  -5.7027  -4.4295
    -4.4159  -4.3188  -4.1417  -4.0782   3.3560   6.2574   6.3003   6.7443
     7.4154   7.8060   9.0598   9.2581   9.6956   9.8079

          k = 0.2857 0.2823 0.3784 (  6863 PWs)   bands (ev):

   -45.1660 -21.8858 -21.8210 -21.8018  -6.2280  -5.8919  -5.5874  -4.4126
    -4.3884  -4.2609  -4.1081  -4.0212   3.3426   5.7937   5.9318   6.4250
     7.0782   7.2821   8.9821   9.5969   9.6484   9.8642

          k = 0.2857 0.4235 0.0000 (  6889 PWs)   bands (ev):

   -45.1661 -21.8436 -21.8291 -21.8214  -6.2715  -5.7959  -5.7728  -4.4478
    -4.3941  -4.2872  -4.1430  -4.1305   3.0613   6.1976   6.6715   7.1902
     7.6614   7.8763   8.1122   9.1496   9.8366  10.0515

          k = 0.2857 0.4235 0.1892 (  6860 PWs)   bands (ev):

   -45.1659 -21.8591 -21.8283 -21.8209  -6.1812  -5.8178  -5.7545  -4.4191
    -4.3884  -4.2401  -4.1050  -4.0766   3.1956   6.0966   6.1893   6.3691
     7.1519   7.9229   8.8859   9.3037   9.5035   9.8780

          k = 0.2857 0.4235 0.3784 (  6849 PWs)   bands (ev):

   -45.1655 -21.8843 -21.8270 -21.8198  -6.1223  -5.8459  -5.6273  -4.3903
    -4.3590  -4.1762  -4.0471  -3.9733   3.4032   5.5568   5.6760   6.1191
     6.7306   7.2567   8.2373   9.7404   9.8269  10.0448

          k = 0.4286 0.0000 0.0000 (  6855 PWs)   bands (ev):

   -45.1669 -21.8551 -21.8449 -21.7566  -6.5439  -5.8527  -5.6772  -4.4859
    -4.4327  -4.4085  -4.2293  -4.1570   3.5447   6.0871   7.2547   7.2727
     7.9799   8.0530   8.7366   8.8864   9.3144  10.8412

          k = 0.4286 0.0000 0.1892 (  6835 PWs)   bands (ev):

   -45.1667 -21.8612 -21.8536 -21.7559  -6.4880  -5.8110  -5.6107  -4.4605
    -4.4332  -4.4223  -4.2125  -4.1201   3.3382   6.0692   7.1166   7.3681
     7.4825   7.9402   8.6489   8.8737   9.2469  10.5888

          k = 0.4286 0.0000 0.3784 (  6874 PWs)   bands (ev):

   -45.1663 -21.8864 -21.8523 -21.7548  -6.4429  -5.7270  -5.4438  -4.4446
    -4.4341  -4.4131  -4.2603  -4.0052   3.0320   5.9262   6.5605   7.3586
     7.4789   7.8632   7.8916   8.8612   9.8075  10.1386

          k = 0.4286 0.1412 0.0000 (  6850 PWs)   bands (ev):

   -45.1666 -21.8543 -21.8442 -21.7707  -6.4516  -5.8307  -5.7167  -4.4744
    -4.4109  -4.3763  -4.2038  -4.1492   3.3936   6.0980   7.0554   7.4551
     7.5258   8.1126   8.4901   9.1209   9.4107  10.6493

          k = 0.4286 0.1412 0.1892 (  6856 PWs)   bands (ev):

   -45.1664 -21.8605 -21.8529 -21.7700  -6.3898  -5.8086  -5.6615  -4.4525
    -4.4140  -4.3636  -4.1841  -4.1013   3.3149   6.0721   6.4933   7.0035
     7.5602   8.3060   8.4762   9.1255   9.3812  10.2608

          k = 0.4286 0.1412 0.3784 (  6859 PWs)   bands (ev):

   -45.1660 -21.8857 -21.8516 -21.7689  -6.3445  -5.7604  -5.5078  -4.4421
    -4.3841  -4.3388  -4.2075  -3.9863   3.1483   5.8965   6.3005   6.5050
     6.8957   8.1419   8.7774   8.9876   9.4135  10.0629

          k = 0.4286 0.2823 0.0000 (  6862 PWs)   bands (ev):

   -45.1660 -21.8525 -21.8428 -21.8022  -6.2586  -5.7896  -5.7656  -4.4478
    -4.3932  -4.2810  -4.1523  -4.1225   3.0581   6.1114   6.7352   7.1843
     7.6358   7.8778   8.1207   9.1425   9.7429  10.1342

          k = 0.4286 0.2823 0.1892 (  6842 PWs)   bands (ev):

   -45.1658 -21.8590 -21.8511 -21.8015  -6.1695  -5.8088  -5.7517  -4.4199
    -4.3859  -4.2357  -4.1188  -4.0594   3.1988   6.0335   6.1706   6.4095
     7.1645   7.9209   8.8240   9.3032   9.5085   9.8683

          k = 0.4286 0.2823 0.3784 (  6853 PWs)   bands (ev):

   -45.1654 -21.8841 -21.8500 -21.8004  -6.1186  -5.8307  -5.6263  -4.3918
    -4.3545  -4.1743  -4.0675  -3.9431   3.4230   5.5347   5.6999   6.0810
     6.6989   7.2788   8.1913   9.7030   9.7872  10.0699

          k = 0.4286 0.4235 0.0000 (  6867 PWs)   bands (ev):

   -45.1656 -21.8510 -21.8414 -21.8274  -6.1492  -5.7584  -5.7453  -4.4326
    -4.3472  -4.2144  -4.1646  -4.0614   2.7979   6.0009   6.4141   7.3632
     7.4651   7.8497   8.0350   8.8785   9.4399  10.2522

          k = 0.4286 0.4235 0.1892 (  6853 PWs)   bands (ev):

   -45.1653 -21.8576 -21.8498 -21.8267  -6.0134  -5.8083  -5.7916  -4.4017
    -4.3411  -4.1328  -4.0750  -4.0285   3.0469   5.9516   6.1699   6.2196
     6.6053   7.8892   8.4928   9.2155   9.2395  10.2404

          k = 0.4286 0.4235 0.3784 (  6861 PWs)   bands (ev):

   -45.1650 -21.8827 -21.8487 -21.8255  -5.9306  -5.8822  -5.7094  -4.3522
    -4.3350  -4.0330  -3.9515  -3.9218   3.6101   5.3463   5.4578   5.8806
     6.5182   6.8212   7.1578  10.0400  10.0721  10.2261

     highest occupied level (ev):    10.8412

!    total energy              =    -380.57750986 Ry
     estimated scf accuracy    <          3.8E-09 Ry

     The total energy is the sum of the following terms:
     one-electron contribution =     -79.70780558 Ry
     hartree contribution      =      69.93219567 Ry
     xc contribution           =    -102.67752697 Ry
     ewald contribution        =    -268.12437298 Ry

     convergence has been achieved in   4 iterations

     negative rho (up, down):  1.581E-02 0.000E+00

     Forces acting on atoms (cartesian axes, Ry/au):

     atom    1 type  1   force =     0.00000000    0.00000000    0.00008615
     atom    2 type  2   force =     0.00000000    0.00000000    0.00003576
     atom    3 type  3   force =     0.00000000    0.00000000   -0.00000663
     atom    4 type  3   force =     0.00000000    0.00000000   -0.00099494
     atom    5 type  3   force =     0.00000000    0.00000000    0.00087966

     Total force =     0.001331     Total SCF correction =     0.000031


     Computing stress (Cartesian axis) and pressure


     negative rho (up, down):  1.581E-02 0.000E+00
          total   stress  (Ry/bohr**3)                   (kbar)     P=        1.50
   0.00008886   0.00000000   0.00000000           13.07        0.00        0.00
   0.00000000  -0.00006155   0.00000000            0.00       -9.05        0.00
   0.00000000   0.00000000   0.00000326            0.00        0.00        0.48

     Energy error            =      8.7E-05 Ry
     Gradient error          =      9.9E-04 Ry/Bohr

     bfgs converged in   2 scf cycles and   1 bfgs steps
     (criteria: energy <  1.0E-04 Ry, force <  1.0E-03 Ry/Bohr)

     End of BFGS Geometry Optimization

     Final energy             =    -380.5775098643 Ry

     File ./PTO2.bfgs deleted, as requested
Begin final coordinates

ATOMIC_POSITIONS (crystal)
Pb            0.0000000000        0.0000000000        1.0052250286
Ti            0.5000000000        0.5000000000        0.5395538097
O             0.5000000000        0.5000000000        0.0994430800
O             0.5000000000        0.0000000000        0.6110799681
O             0.0000000000        0.5000000000        0.6119824015
End final coordinates



     Writing all to output data dir ./PTO2.save/
 
     init_run     :     17.15s CPU     18.08s WALL (       1 calls)
     electrons    :   1777.66s CPU   1834.09s WALL (       4 calls)
     update_pot   :      2.67s CPU      2.68s WALL (       3 calls)
     forces       :     14.07s CPU     14.46s WALL (       4 calls)
     stress       :     87.81s CPU     88.77s WALL (       4 calls)

     Called by init_run:
     wfcinit      :     12.15s CPU     12.61s WALL (       1 calls)
     potinit      :      0.17s CPU      0.23s WALL (       1 calls)
     hinit0       :      3.94s CPU      4.08s WALL (       1 calls)

     Called by electrons:
     c_bands      :   1616.21s CPU   1666.68s WALL (      30 calls)
     sum_band     :    140.26s CPU    144.19s WALL (      30 calls)
     v_of_rho     :      0.87s CPU      0.91s WALL (      31 calls)
     newd         :     22.94s CPU     25.05s WALL (      31 calls)
     mix_rho      :      0.36s CPU      0.40s WALL (      30 calls)

     Called by c_bands:
     init_us_2    :     41.25s CPU     41.47s WALL (    3312 calls)
     init_us_2:cp :     41.13s CPU     41.40s WALL (    3312 calls)
     ccgdiagg     :   1442.55s CPU   1487.84s WALL (    1440 calls)
     wfcrot       :    163.20s CPU    166.09s WALL (    1152 calls)

     Called by *cgdiagg:
     h_psi        :   1075.94s CPU   1103.33s WALL (  123872 calls)
     s_psi        :    273.32s CPU    286.99s WALL (  246592 calls)

     Called by h_psi:
     h_psi:calbec :    141.13s CPU    145.77s WALL (  123872 calls)
     vloc_psi     :    783.42s CPU    800.92s WALL (  123872 calls)
     add_vuspsi   :    139.91s CPU    146.56s WALL (  123872 calls)
     hs_1psi      :   1073.21s CPU   1102.39s WALL (  122720 calls)
     s_1psi       :    275.98s CPU    285.59s WALL (  122720 calls)

     General routines
     calbec       :    277.85s CPU    292.03s WALL (  248992 calls)
     fft          :      0.36s CPU      0.39s WALL (     162 calls)
     ffts         :      0.07s CPU      0.07s WALL (      30 calls)
     fftw         :    717.19s CPU    730.77s WALL (  328672 calls)
 
     Parallel routines
 
     PWSCF        :  31m43.29s CPU  32m46.17s WALL

 
   This run was terminated on:   8:40:29  11Apr2022            

=------------------------------------------------------------------------------=
   JOB DONE.
=------------------------------------------------------------------------------=
