
     Program PWSCF v.7.0 starts on 11Apr2022 at  8: 7:53 

     This program is part of the open-source Quantum ESPRESSO suite
     for quantum simulation of materials; please cite
         "P. Giannozzi et al., J. Phys.:Condens. Matter 21 395502 (2009);
         "P. Giannozzi et al., J. Phys.:Condens. Matter 29 465901 (2017);
         "P. Giannozzi et al., J. Chem. Phys. 152 154105 (2020);
          URL http://www.quantum-espresso.org", 
     in publications or presentations arising from this work. More details at
     http://www.quantum-espresso.org/quote

     Parallel version (MPI), running on     1 processors

     MPI processes distributed on     1 nodes
     89754 MiB available memory on the printing compute node when the environment starts
 
     Waiting for input...
     Reading input from standard input
Warning: card &CELL ignored
Warning: card  CELL_DYNAMICS = 'BFGS', ignored
Warning: card  PRESS=0.1D0, ignored
Warning: card / ignored

     Current dimensions of program PWSCF are:
     Max number of different atomic species (ntypx) = 10
     Max number of k-points (npk) =  40000
     Max angular momentum in pseudopotentials (lmaxx) =  4
     Message from routine setup:
     using ibrav=0 with symmetry is DISCOURAGED, use correct ibrav instead

     Subspace diagonalization in iterative solution of the eigenvalue problem:
     a serial algorithm will be used

 
     G-vector sticks info
     --------------------
     sticks:   dense  smooth     PW     G-vecs:    dense   smooth      PW
     Sum        1677    1677    481                54869    54869    8219
 
     Using Slab Decomposition
 


     bravais-lattice index     =            0
     lattice parameter (alat)  =       7.2428  a.u.
     unit-cell volume          =     406.4603 (a.u.)^3
     number of atoms/cell      =            5
     number of atomic types    =            3
     number of electrons       =        44.00
     number of Kohn-Sham states=           22
     kinetic-energy cutoff     =     100.0000  Ry
     charge density cutoff     =     400.0000  Ry
     scf convergence threshold =      1.0E-08
     mixing beta               =       0.7000
     number of iterations used =            8  plain     mixing
     energy convergence thresh.=      1.0E-04
     force convergence thresh. =      1.0E-03
     Exchange-correlation= SLA  PZ   NOGX NOGC
                           (   1   1   0   0   0   0   0)
     nstep                     =           50


     celldm(1)=   7.242753  celldm(2)=   0.000000  celldm(3)=   0.000000
     celldm(4)=   0.000000  celldm(5)=   0.000000  celldm(6)=   0.000000

     crystal axes: (cart. coord. in units of alat)
               a(1) = (   1.000000   0.000000   0.000000 )  
               a(2) = (   0.000000   1.006027   0.000000 )  
               a(3) = (   0.000000   0.000000   1.063402 )  

     reciprocal axes: (cart. coord. in units 2 pi/alat)
               b(1) = (  1.000000  0.000000  0.000000 )  
               b(2) = (  0.000000  0.994009  0.000000 )  
               b(3) = (  0.000000  0.000000  0.940378 )  


     PseudoPot. # 1 for Pb read from file:
     ./Pb_LDA.UPF
     MD5 check sum: 062a37469794d955244864f8fe2e5624
     Pseudo is Ultrasoft + core correction, Zval = 14.0
     Generated by new atomic code, or converted to UPF format
     Using radial grid of  899 points,  6 beta functions with: 
                l(1) =   0
                l(2) =   0
                l(3) =   1
                l(4) =   1
                l(5) =   2
                l(6) =   2
     Q(r) pseudized with  6 coefficients,  rinner =    1.000   1.000   1.000
                                                       1.000   1.000

     PseudoPot. # 2 for Ti read from file:
     ./Ti_LDA.UPF
     MD5 check sum: 0d9f225c038fe889ca2a701dcc8d72cb
     Pseudo is Ultrasoft + core correction, Zval = 12.0
     Generated by new atomic code, or converted to UPF format
     Using radial grid of  851 points,  6 beta functions with: 
                l(1) =   0
                l(2) =   0
                l(3) =   1
                l(4) =   1
                l(5) =   2
                l(6) =   2
     Q(r) pseudized with  6 coefficients,  rinner =    1.000   1.000   1.000
                                                       1.000   1.000

     PseudoPot. # 3 for O  read from file:
     ./O_LDA.UPF
     MD5 check sum: 194b818514d2a7dbb603bb78519a4f40
     Pseudo is Ultrasoft + core correction, Zval =  6.0
     Generated by new atomic code, or converted to UPF format
     Using radial grid of  737 points,  5 beta functions with: 
                l(1) =   0
                l(2) =   0
                l(3) =   1
                l(4) =   1
                l(5) =   2
     Q(r) pseudized with  8 coefficients,  rinner =    0.900   0.900   0.900
                                                       0.900   0.900

     atomic species   valence    mass     pseudopotential
        Pb            14.00   207.20000     Pb( 1.00)
        Ti            12.00    47.88000     Ti( 1.00)
        O              6.00    16.00000     O ( 1.00)

      4 Sym. Ops. (no inversion) found



   Cartesian axes

     site n.     atom                  positions (alat units)
         1           Pb  tau(   1) = (   0.0000000   0.0000000   1.0689213  )
         2           Ti  tau(   2) = (   0.5000000   0.5030135   0.5737184  )
         3           O   tau(   3) = (   0.5000000   0.5030135   0.1057859  )
         4           O   tau(   4) = (   0.5000000   0.0000000   0.6503248  )
         5           O   tau(   5) = (   0.0000000   0.5030135   0.6503248  )

     number of k points=    48
                       cart. coord. in units 2pi/alat
        k(    1) = (   0.0000000   0.0000000   0.0000000), wk =   0.0081633
        k(    2) = (   0.0000000   0.0000000   0.1880757), wk =   0.0163265
        k(    3) = (   0.0000000   0.0000000   0.3761513), wk =   0.0163265
        k(    4) = (   0.0000000   0.1420013   0.0000000), wk =   0.0163265
        k(    5) = (   0.0000000   0.1420013   0.1880757), wk =   0.0326531
        k(    6) = (   0.0000000   0.1420013   0.3761513), wk =   0.0326531
        k(    7) = (   0.0000000   0.2840026   0.0000000), wk =   0.0163265
        k(    8) = (   0.0000000   0.2840026   0.1880757), wk =   0.0326531
        k(    9) = (   0.0000000   0.2840026   0.3761513), wk =   0.0326531
        k(   10) = (   0.0000000   0.4260039   0.0000000), wk =   0.0163265
        k(   11) = (   0.0000000   0.4260039   0.1880757), wk =   0.0326531
        k(   12) = (   0.0000000   0.4260039   0.3761513), wk =   0.0326531
        k(   13) = (   0.1428571   0.0000000   0.0000000), wk =   0.0163265
        k(   14) = (   0.1428571   0.0000000   0.1880757), wk =   0.0326531
        k(   15) = (   0.1428571   0.0000000   0.3761513), wk =   0.0326531
        k(   16) = (   0.1428571   0.1420013   0.0000000), wk =   0.0326531
        k(   17) = (   0.1428571   0.1420013   0.1880757), wk =   0.0653061
        k(   18) = (   0.1428571   0.1420013   0.3761513), wk =   0.0653061
        k(   19) = (   0.1428571   0.2840026   0.0000000), wk =   0.0326531
        k(   20) = (   0.1428571   0.2840026   0.1880757), wk =   0.0653061
        k(   21) = (   0.1428571   0.2840026   0.3761513), wk =   0.0653061
        k(   22) = (   0.1428571   0.4260039   0.0000000), wk =   0.0326531
        k(   23) = (   0.1428571   0.4260039   0.1880757), wk =   0.0653061
        k(   24) = (   0.1428571   0.4260039   0.3761513), wk =   0.0653061
        k(   25) = (   0.2857143   0.0000000   0.0000000), wk =   0.0163265
        k(   26) = (   0.2857143   0.0000000   0.1880757), wk =   0.0326531
        k(   27) = (   0.2857143   0.0000000   0.3761513), wk =   0.0326531
        k(   28) = (   0.2857143   0.1420013   0.0000000), wk =   0.0326531
        k(   29) = (   0.2857143   0.1420013   0.1880757), wk =   0.0653061
        k(   30) = (   0.2857143   0.1420013   0.3761513), wk =   0.0653061
        k(   31) = (   0.2857143   0.2840026   0.0000000), wk =   0.0326531
        k(   32) = (   0.2857143   0.2840026   0.1880757), wk =   0.0653061
        k(   33) = (   0.2857143   0.2840026   0.3761513), wk =   0.0653061
        k(   34) = (   0.2857143   0.4260039   0.0000000), wk =   0.0326531
        k(   35) = (   0.2857143   0.4260039   0.1880757), wk =   0.0653061
        k(   36) = (   0.2857143   0.4260039   0.3761513), wk =   0.0653061
        k(   37) = (   0.4285714   0.0000000   0.0000000), wk =   0.0163265
        k(   38) = (   0.4285714   0.0000000   0.1880757), wk =   0.0326531
        k(   39) = (   0.4285714   0.0000000   0.3761513), wk =   0.0326531
        k(   40) = (   0.4285714   0.1420013   0.0000000), wk =   0.0326531
        k(   41) = (   0.4285714   0.1420013   0.1880757), wk =   0.0653061
        k(   42) = (   0.4285714   0.1420013   0.3761513), wk =   0.0653061
        k(   43) = (   0.4285714   0.2840026   0.0000000), wk =   0.0326531
        k(   44) = (   0.4285714   0.2840026   0.1880757), wk =   0.0653061
        k(   45) = (   0.4285714   0.2840026   0.3761513), wk =   0.0653061
        k(   46) = (   0.4285714   0.4260039   0.0000000), wk =   0.0326531
        k(   47) = (   0.4285714   0.4260039   0.1880757), wk =   0.0653061
        k(   48) = (   0.4285714   0.4260039   0.3761513), wk =   0.0653061

     Dense  grid:    54869 G-vectors     FFT dimensions: (  48,  48,  50)

     Estimated max dynamical RAM per process >     327.93 MB

     Check: negative core charge=   -0.000003

     Initial potential from superposition of free atoms

     starting charge      42.9982, renormalised to      44.0000

     negative rho (up, down):  1.703E-02 0.000E+00
     Starting wfcs are   31 randomized atomic wfcs

     total cpu time spent up to now is       19.2 secs

     Self-consistent Calculation

     iteration #  1     ecut=   100.00 Ry     beta= 0.70
     CG style diagonalization
     ethr =  1.00E-02,  avg # of iterations =  2.1

     negative rho (up, down):  1.430E-02 0.000E+00

     total cpu time spent up to now is       52.9 secs

     total energy              =    -380.05930551 Ry
     estimated scf accuracy    <       1.02825096 Ry

     iteration #  2     ecut=   100.00 Ry     beta= 0.70
     CG style diagonalization
     ethr =  2.34E-03,  avg # of iterations =  4.9

     negative rho (up, down):  1.502E-02 0.000E+00

     total cpu time spent up to now is      115.0 secs

     total energy              =    -379.77057473 Ry
     estimated scf accuracy    <       3.86125651 Ry

     iteration #  3     ecut=   100.00 Ry     beta= 0.70
     CG style diagonalization
     ethr =  2.34E-03,  avg # of iterations =  4.5

     negative rho (up, down):  1.561E-02 0.000E+00

     total cpu time spent up to now is      171.7 secs

     total energy              =    -380.54706816 Ry
     estimated scf accuracy    <       0.25198208 Ry

     iteration #  4     ecut=   100.00 Ry     beta= 0.70
     CG style diagonalization
     ethr =  5.73E-04,  avg # of iterations =  3.4

     negative rho (up, down):  1.565E-02 0.000E+00

     total cpu time spent up to now is      215.3 secs

     total energy              =    -380.56056096 Ry
     estimated scf accuracy    <       0.05255710 Ry

     iteration #  5     ecut=   100.00 Ry     beta= 0.70
     CG style diagonalization
     ethr =  1.19E-04,  avg # of iterations =  3.8

     negative rho (up, down):  1.564E-02 0.000E+00

     total cpu time spent up to now is      263.5 secs

     total energy              =    -380.57559727 Ry
     estimated scf accuracy    <       0.00490694 Ry

     iteration #  6     ecut=   100.00 Ry     beta= 0.70
     CG style diagonalization
     ethr =  1.12E-05,  avg # of iterations =  4.1

     negative rho (up, down):  1.564E-02 0.000E+00

     total cpu time spent up to now is      315.7 secs

     total energy              =    -380.57740339 Ry
     estimated scf accuracy    <       0.00768070 Ry

     iteration #  7     ecut=   100.00 Ry     beta= 0.70
     CG style diagonalization
     ethr =  1.12E-05,  avg # of iterations =  3.2

     negative rho (up, down):  1.564E-02 0.000E+00

     total cpu time spent up to now is      357.0 secs

     total energy              =    -380.57686558 Ry
     estimated scf accuracy    <       0.00285212 Ry

     iteration #  8     ecut=   100.00 Ry     beta= 0.70
     CG style diagonalization
     ethr =  6.48E-06,  avg # of iterations =  3.6

     negative rho (up, down):  1.567E-02 0.000E+00

     total cpu time spent up to now is      403.4 secs

     total energy              =    -380.57742480 Ry
     estimated scf accuracy    <       0.00001065 Ry

     iteration #  9     ecut=   100.00 Ry     beta= 0.70
     CG style diagonalization
     c_bands:  1 eigenvalues not converged
     c_bands:  1 eigenvalues not converged
     c_bands:  1 eigenvalues not converged
     ethr =  2.42E-08,  avg # of iterations =  8.0

     negative rho (up, down):  1.570E-02 0.000E+00

     total cpu time spent up to now is      502.6 secs

     total energy              =    -380.57748398 Ry
     estimated scf accuracy    <       0.00001524 Ry

     iteration # 10     ecut=   100.00 Ry     beta= 0.70
     CG style diagonalization
     ethr =  2.42E-08,  avg # of iterations =  3.6

     negative rho (up, down):  1.574E-02 0.000E+00

     total cpu time spent up to now is      547.0 secs

     total energy              =    -380.57748434 Ry
     estimated scf accuracy    <       0.00000658 Ry

     iteration # 11     ecut=   100.00 Ry     beta= 0.70
     CG style diagonalization
     ethr =  1.50E-08,  avg # of iterations =  3.3

     negative rho (up, down):  1.578E-02 0.000E+00

     total cpu time spent up to now is      588.9 secs

     total energy              =    -380.57748314 Ry
     estimated scf accuracy    <       0.00000465 Ry

     iteration # 12     ecut=   100.00 Ry     beta= 0.70
     CG style diagonalization
     ethr =  1.06E-08,  avg # of iterations =  4.2

     negative rho (up, down):  1.578E-02 0.000E+00

     total cpu time spent up to now is      641.4 secs

     total energy              =    -380.57748462 Ry
     estimated scf accuracy    <       0.00000055 Ry

     iteration # 13     ecut=   100.00 Ry     beta= 0.70
     CG style diagonalization
     ethr =  1.24E-09,  avg # of iterations =  6.9

     negative rho (up, down):  1.578E-02 0.000E+00

     total cpu time spent up to now is      727.5 secs

     total energy              =    -380.57748557 Ry
     estimated scf accuracy    <       0.00000003 Ry

     iteration # 14     ecut=   100.00 Ry     beta= 0.70
     CG style diagonalization
     c_bands:  1 eigenvalues not converged
     c_bands:  1 eigenvalues not converged
     c_bands:  1 eigenvalues not converged
     c_bands:  1 eigenvalues not converged
     ethr =  5.90E-11,  avg # of iterations = 10.3

     negative rho (up, down):  1.579E-02 0.000E+00

     total cpu time spent up to now is      855.8 secs

     total energy              =    -380.57748581 Ry
     estimated scf accuracy    <       0.00000001 Ry

     iteration # 15     ecut=   100.00 Ry     beta= 0.70
     CG style diagonalization
     ethr =  2.43E-11,  avg # of iterations =  5.1

     negative rho (up, down):  1.579E-02 0.000E+00

     total cpu time spent up to now is      919.8 secs

     End of self-consistent calculation

          k = 0.0000 0.0000 0.0000 (  6909 PWs)   bands (ev):

   -45.1740 -21.8443 -21.7781 -21.7715  -7.1736  -6.0204  -5.7510  -4.4120
    -4.4102  -4.3687  -4.2444  -4.1527   4.8235   6.7263   6.7738   7.0814
     8.7095   8.7202   8.9277   9.2853   9.4470   9.4558

          k = 0.0000 0.0000 0.1881 (  6893 PWs)   bands (ev):

   -45.1738 -21.8595 -21.7775 -21.7709  -7.0372  -5.9800  -5.7062  -4.4236
    -4.4218  -4.3677  -4.2388  -4.2030   4.1812   6.7677   6.8094   7.4184
     8.5251   8.5440   8.8742   9.1655   9.5351   9.5405

          k = 0.0000 0.0000 0.3762 (  6872 PWs)   bands (ev):

   -45.1735 -21.8837 -21.7766 -21.7699  -6.7995  -5.9092  -5.6406  -4.4422
    -4.4405  -4.3662  -4.2918  -4.2294   3.5238   6.7985   6.8177   6.8471
     8.3243   8.3605   8.7908   9.6263   9.6285  10.2926

          k = 0.0000 0.1420 0.0000 (  6885 PWs)   bands (ev):

   -45.1737 -21.8437 -21.7868 -21.7775  -7.0658  -5.9951  -5.7266  -4.4310
    -4.4090  -4.3799  -4.2478  -4.1423   4.4459   6.7576   6.8544   7.1554
     8.6414   8.7438   8.9561   9.1518   9.1823   9.5462

          k = 0.0000 0.1420 0.1881 (  6879 PWs)   bands (ev):

   -45.1735 -21.8588 -21.7862 -21.7769  -6.9371  -5.9624  -5.6794  -4.4338
    -4.4209  -4.3793  -4.2428  -4.1758   3.9663   6.6486   6.8960   7.4528
     8.2983   8.5387   8.8946   9.0677   9.2727   9.7251

          k = 0.0000 0.1420 0.3762 (  6889 PWs)   bands (ev):

   -45.1732 -21.8829 -21.7851 -21.7759  -6.7189  -5.9047  -5.6039  -4.4401
    -4.4356  -4.3782  -4.2477  -4.2241   3.4016   6.4198   6.9401   7.1034
     8.0324   8.3549   8.9838   9.1151   9.3740  10.4074

          k = 0.0000 0.2840 0.0000 (  6865 PWs)   bands (ev):

   -45.1731 -21.8425 -21.8208 -21.7760  -6.8083  -5.9355  -5.6798  -4.4641
    -4.4067  -4.4045  -4.2516  -4.1363   3.8658   6.6143   6.9891   7.0694
     8.5077   8.5540   8.8303   8.8399   9.2555   9.9185

          k = 0.0000 0.2840 0.1881 (  6867 PWs)   bands (ev):

   -45.1728 -21.8572 -21.8202 -21.7754  -6.7091  -5.9109  -5.6226  -4.4474
    -4.4190  -4.4050  -4.2441  -4.1361   3.5664   6.4628   7.0960   7.1286
     8.0961   8.3761   8.5389   8.9384   9.2371  10.1418

          k = 0.0000 0.2840 0.3762 (  6880 PWs)   bands (ev):

   -45.1725 -21.8809 -21.8190 -21.7744  -6.5657  -5.8537  -5.5127  -4.4392
    -4.4137  -4.4051  -4.2685  -4.1112   3.1540   6.1440   6.9518   7.1859
     7.7769   8.0437   8.2466   9.0107   9.6522  10.2467

          k = 0.0000 0.4260 0.0000 (  6836 PWs)   bands (ev):

   -45.1725 -21.8488 -21.8405 -21.7749  -6.5825  -5.8690  -5.6688  -4.4864
    -4.4250  -4.4040  -4.2369  -4.1589   3.5428   6.1229   7.2505   7.3358
     7.9306   8.0853   8.7292   8.8930   9.3056  10.8370

          k = 0.0000 0.4260 0.1881 (  6853 PWs)   bands (ev):

   -45.1723 -21.8557 -21.8474 -21.7742  -6.5319  -5.8251  -5.6027  -4.4628
    -4.4256  -4.4172  -4.2101  -4.1405   3.3179   6.1005   7.1155   7.4398
     7.4924   7.9706   8.6628   8.9029   9.2129  10.6071

          k = 0.0000 0.4260 0.3762 (  6868 PWs)   bands (ev):

   -45.1720 -21.8791 -21.8461 -21.7732  -6.4872  -5.7399  -5.4450  -4.4385
    -4.4265  -4.4181  -4.2580  -4.0382   2.9906   5.9429   6.5980   7.4062
     7.5165   7.9181   7.9286   8.9128   9.8260  10.1547

          k = 0.1429 0.0000 0.0000 (  6863 PWs)   bands (ev):

   -45.1737 -21.8437 -21.7945 -21.7708  -7.0613  -5.9933  -5.7257  -4.4293
    -4.4107  -4.3805  -4.2477  -4.1407   4.4486   6.7827   6.8075   7.1519
     8.6549   8.7310   8.9610   9.1547   9.1785   9.5451

          k = 0.1429 0.0000 0.1881 (  6867 PWs)   bands (ev):

   -45.1735 -21.8587 -21.7939 -21.7702  -6.9322  -5.9614  -5.6788  -4.4322
    -4.4226  -4.3799  -4.2451  -4.1709   3.9700   6.6739   6.8551   7.4460
     8.2962   8.5197   8.8983   9.0824   9.2700   9.7276

          k = 0.1429 0.0000 0.3762 (  6878 PWs)   bands (ev):

   -45.1731 -21.8828 -21.7928 -21.7692  -6.7129  -5.9058  -5.6035  -4.4417
    -4.4348  -4.3788  -4.2529  -4.2139   3.4063   6.4374   6.9123   7.0986
     8.0443   8.3189   8.9751   9.1357   9.3675  10.4055

          k = 0.1429 0.1420 0.0000 (  6876 PWs)   bands (ev):

   -45.1734 -21.8431 -21.7938 -21.7860  -6.9545  -5.9675  -5.7144  -4.4331
    -4.4244  -4.3877  -4.2329  -4.1311   4.1750   6.7365   6.8926   7.2223
     8.2768   8.5145   9.0173   9.0366   9.4145   9.6925

          k = 0.1429 0.1420 0.1881 (  6871 PWs)   bands (ev):

   -45.1732 -21.8580 -21.7932 -21.7854  -6.8313  -5.9446  -5.6672  -4.4384
    -4.4239  -4.3863  -4.2272  -4.1495   3.8251   6.6251   6.6953   7.4628
     8.1497   8.2982   8.8359   9.1456   9.4437   9.7468

          k = 0.1429 0.1420 0.3762 (  6875 PWs)   bands (ev):

   -45.1728 -21.8820 -21.7922 -21.7844  -6.6268  -5.9065  -5.5858  -4.4571
    -4.3985  -4.3829  -4.2290  -4.1844   3.3507   6.4404   6.4878   7.1548
     8.0660   8.1090   8.7567   9.2255   9.4825  10.2870

          k = 0.1429 0.2840 0.0000 (  6861 PWs)   bands (ev):

   -45.1727 -21.8418 -21.8200 -21.7923  -6.7004  -5.9085  -5.6979  -4.4622
    -4.4173  -4.3856  -4.2170  -4.1261   3.6933   6.5845   6.9901   7.1223
     7.9105   8.2888   8.7336   9.1682   9.3770  10.1170

          k = 0.1429 0.2840 0.1881 (  6874 PWs)   bands (ev):

   -45.1725 -21.8564 -21.8194 -21.7917  -6.6013  -5.8985  -5.6460  -4.4475
    -4.4230  -4.3757  -4.2043  -4.1157   3.5168   6.4261   6.5950   7.1881
     7.6976   8.2151   8.8533   9.1271   9.3655  10.0722

          k = 0.1429 0.2840 0.3762 (  6873 PWs)   bands (ev):

   -45.1722 -21.8801 -21.8182 -21.7906  -6.4606  -5.8727  -5.5392  -4.4458
    -4.4049  -4.3451  -4.2135  -4.0880   3.2155   6.0801   6.5112   6.8498
     7.2794   8.0292   8.9186   9.1837   9.6723   9.9538

          k = 0.1429 0.4260 0.0000 (  6860 PWs)   bands (ev):

   -45.1722 -21.8479 -21.8398 -21.7910  -6.4784  -5.8459  -5.7111  -4.4729
    -4.4080  -4.3706  -4.2060  -4.1495   3.4001   6.1368   7.0678   7.4473
     7.5006   8.0905   8.4986   9.1583   9.4098  10.6330

          k = 0.1429 0.4260 0.1881 (  6864 PWs)   bands (ev):

   -45.1720 -21.8550 -21.8465 -21.7904  -6.4228  -5.8220  -5.6553  -4.4522
    -4.4111  -4.3569  -4.1779  -4.1189   3.3037   6.1054   6.5144   6.9822
     7.5615   8.3512   8.5072   9.1421   9.3696  10.2720

          k = 0.1429 0.4260 0.3762 (  6862 PWs)   bands (ev):

   -45.1717 -21.8783 -21.8453 -21.7894  -6.3779  -5.7740  -5.5096  -4.4407
    -4.3835  -4.3330  -4.1998  -4.0174   3.1131   5.9088   6.3274   6.5349
     6.9266   8.1628   8.8604   9.0427   9.4545  10.0356

          k = 0.2857 0.0000 0.0000 (  6853 PWs)   bands (ev):

   -45.1730 -21.8428 -21.8305 -21.7692  -6.7933  -5.9296  -5.6767  -4.4625
    -4.4084  -4.4064  -4.2491  -4.1332   3.8669   6.5978   6.9856   7.0226
     8.5207   8.5338   8.8371   8.8421   9.2538   9.9229

          k = 0.2857 0.0000 0.1881 (  6872 PWs)   bands (ev):

   -45.1728 -21.8571 -21.8303 -21.7686  -6.6933  -5.9075  -5.6200  -4.4454
    -4.4205  -4.4069  -4.2457  -4.1264   3.5735   6.4587   7.0816   7.0882
     8.0918   8.3575   8.5266   8.9275   9.2507  10.1557

          k = 0.2857 0.0000 0.3762 (  6878 PWs)   bands (ev):

   -45.1724 -21.8808 -21.8292 -21.7676  -6.5487  -5.8547  -5.5104  -4.4407
    -4.4117  -4.4071  -4.2711  -4.0958   3.1674   6.1512   6.9380   7.1612
     7.7530   8.0297   8.2120   8.9927   9.6793  10.2305

          k = 0.2857 0.1420 0.0000 (  6867 PWs)   bands (ev):

   -45.1727 -21.8422 -21.8298 -21.7844  -6.6902  -5.9043  -5.6957  -4.4616
    -4.4177  -4.3860  -4.2157  -4.1242   3.6930   6.5651   6.9769   7.1093
     7.9176   8.2890   8.7385   9.1495   9.3772  10.1244

          k = 0.2857 0.1420 0.1881 (  6866 PWs)   bands (ev):

   -45.1725 -21.8564 -21.8295 -21.7837  -6.5906  -5.8959  -5.6442  -4.4468
    -4.4233  -4.3761  -4.2064  -4.1086   3.5210   6.4205   6.5765   7.1813
     7.6976   8.1993   8.8333   9.1206   9.3694  10.0850

          k = 0.2857 0.1420 0.3762 (  6873 PWs)   bands (ev):

   -45.1721 -21.8800 -21.8284 -21.7827  -6.4492  -5.8728  -5.5377  -4.4451
    -4.4052  -4.3457  -4.2182  -4.0750   3.2251   6.0862   6.4953   6.8452
     7.2608   8.0137   8.8974   9.1589   9.6955   9.9438

          k = 0.2857 0.2840 0.0000 (  6865 PWs)   bands (ev):

   -45.1720 -21.8408 -21.8280 -21.8181  -6.4524  -5.8478  -5.7367  -4.4515
    -4.4127  -4.3424  -4.1544  -4.1190   3.3320   6.5590   6.6744   7.3163
     7.4903   7.8052   8.5566   9.1337   9.6853  10.1887

          k = 0.2857 0.2840 0.1881 (  6866 PWs)   bands (ev):

   -45.1718 -21.8548 -21.8278 -21.8175  -6.3572  -5.8668  -5.6975  -4.4268
    -4.4127  -4.3152  -4.1310  -4.0821   3.3598   6.2564   6.2793   6.7393
     7.4084   7.8021   9.0477   9.2422   9.7104   9.8213

          k = 0.2857 0.2840 0.3762 (  6865 PWs)   bands (ev):

   -45.1715 -21.8782 -21.8268 -21.8165  -6.2375  -5.8966  -5.5890  -4.4091
    -4.3870  -4.2580  -4.1009  -4.0266   3.3378   5.7985   5.9283   6.4469
     7.0851   7.2689   9.0084   9.5987   9.6523   9.8662

          k = 0.2857 0.4260 0.0000 (  6880 PWs)   bands (ev):

   -45.1715 -21.8458 -21.8388 -21.8266  -6.2579  -5.7976  -5.7702  -4.4435
    -4.3904  -4.2821  -4.1434  -4.1165   3.0752   6.1565   6.6670   7.1679
     7.6241   7.8788   8.0882   9.1382   9.8279  10.0605

          k = 0.2857 0.4260 0.1881 (  6853 PWs)   bands (ev):

   -45.1713 -21.8534 -21.8446 -21.8264  -6.1773  -5.8187  -5.7505  -4.4163
    -4.3841  -4.2337  -4.1051  -4.0678   3.2051   6.0662   6.1712   6.3694
     7.1465   7.9298   8.8375   9.2919   9.5109   9.8851

          k = 0.2857 0.4260 0.3762 (  6849 PWs)   bands (ev):

   -45.1709 -21.8766 -21.8435 -21.8255  -6.1270  -5.8453  -5.6292  -4.3876
    -4.3560  -4.1679  -4.0513  -3.9682   3.4057   5.5460   5.6869   6.1050
     6.7380   7.2619   8.2380   9.7372   9.8271  10.0429

          k = 0.4286 0.0000 0.0000 (  6851 PWs)   bands (ev):

   -45.1724 -21.8609 -21.8403 -21.7680  -6.5589  -5.8580  -5.6654  -4.4845
    -4.4279  -4.4055  -4.2286  -4.1581   3.5423   6.0819   7.2407   7.2828
     7.9438   8.0721   8.7305   8.8919   9.3041  10.8564

          k = 0.4286 0.0000 0.1881 (  6850 PWs)   bands (ev):

   -45.1722 -21.8603 -21.8547 -21.7673  -6.5090  -5.8159  -5.5999  -4.4607
    -4.4286  -4.4186  -4.2100  -4.1274   3.3268   6.0636   7.1087   7.3915
     7.4830   7.9586   8.6543   8.8912   9.2164  10.6166

          k = 0.4286 0.0000 0.3762 (  6874 PWs)   bands (ev):

   -45.1718 -21.8788 -21.8582 -21.7663  -6.4671  -5.7332  -5.4419  -4.4398
    -4.4295  -4.4159  -4.2578  -4.0185   3.0112   5.9294   6.5759   7.3822
     7.4966   7.8819   7.9118   8.8903   9.8009  10.1629

          k = 0.4286 0.1420 0.0000 (  6854 PWs)   bands (ev):

   -45.1721 -21.8600 -21.8397 -21.7830  -6.4604  -5.8360  -5.7083  -4.4720
    -4.4082  -4.3712  -4.1999  -4.1497   3.3982   6.0940   7.0504   7.4307
     7.5084   8.0940   8.4965   9.1381   9.4042  10.6540

          k = 0.4286 0.1420 0.1881 (  6862 PWs)   bands (ev):

   -45.1719 -21.8595 -21.8540 -21.7824  -6.4055  -5.8134  -5.6532  -4.4512
    -4.4110  -4.3579  -4.1803  -4.1070   3.3096   6.0675   6.4950   6.9919
     7.5624   8.3200   8.4831   9.1332   9.3677  10.2806

          k = 0.4286 0.1420 0.3762 (  6856 PWs)   bands (ev):

   -45.1715 -21.8781 -21.8575 -21.7814  -6.3637  -5.7662  -5.5075  -4.4399
    -4.3828  -4.3339  -4.2040  -3.9987   3.1305   5.8998   6.3071   6.5113
     6.9237   8.1510   8.8059   9.0222   9.4329  10.0526

          k = 0.4286 0.2840 0.0000 (  6858 PWs)   bands (ev):

   -45.1714 -21.8581 -21.8383 -21.8166  -6.2520  -5.7934  -5.7665  -4.4436
    -4.3900  -4.2781  -4.1482  -4.1127   3.0732   6.1106   6.6998   7.1653
     7.6090   7.8791   8.0924   9.1355   9.7784  10.1039

          k = 0.4286 0.2840 0.1881 (  6844 PWs)   bands (ev):

   -45.1712 -21.8576 -21.8524 -21.8161  -6.1722  -5.8125  -5.7491  -4.4168
    -4.3828  -4.2309  -4.1127  -4.0587   3.2061   6.0323   6.1616   6.3895
     7.1532   7.9294   8.8050   9.2924   9.5130   9.8798

          k = 0.4286 0.2840 0.3762 (  6851 PWs)   bands (ev):

   -45.1709 -21.8764 -21.8558 -21.8151  -6.1261  -5.8358  -5.6286  -4.3886
    -4.3535  -4.1668  -4.0621  -3.9525   3.4140   5.5356   5.6991   6.0829
     6.7213   7.2757   8.2135   9.7186   9.8081  10.0541

          k = 0.4286 0.4260 0.0000 (  6867 PWs)   bands (ev):

   -45.1709 -21.8565 -21.8441 -21.8363  -6.1318  -5.7610  -5.7509  -4.4278
    -4.3424  -4.2111  -4.1637  -4.0424   2.8180   5.9884   6.3781   7.3492
     7.4607   7.8246   8.0027   8.8686   9.3979  10.2649

          k = 0.4286 0.4260 0.1881 (  6860 PWs)   bands (ev):

   -45.1707 -21.8561 -21.8510 -21.8430  -6.0052  -5.8087  -5.7954  -4.3982
    -4.3363  -4.1291  -4.0764  -4.0131   3.0612   5.9404   6.1542   6.2138
     6.5843   7.9013   8.4580   9.1919   9.2181  10.2562

          k = 0.4286 0.4260 0.3762 (  6856 PWs)   bands (ev):

   -45.1704 -21.8749 -21.8544 -21.8420  -5.9310  -5.8845  -5.7133  -4.3505
    -4.3304  -4.0224  -3.9447  -3.9304   3.6089   5.3478   5.4649   5.8746
     6.4876   6.8535   7.1592  10.0351  10.0565  10.2432

     highest occupied level (ev):    10.8564

!    total energy              =    -380.57748582 Ry
     estimated scf accuracy    <          3.1E-09 Ry

     The total energy is the sum of the following terms:
     one-electron contribution =     -79.78245419 Ry
     hartree contribution      =      69.96877673 Ry
     xc contribution           =    -102.67797941 Ry
     ewald contribution        =    -268.08582895 Ry

     convergence has been achieved in  15 iterations

     negative rho (up, down):  1.579E-02 0.000E+00

     Forces acting on atoms (cartesian axes, Ry/au):

     atom    1 type  1   force =     0.00000000    0.00000000    0.00035523
     atom    2 type  2   force =     0.00000000    0.00000000   -0.00679046
     atom    3 type  3   force =     0.00000000    0.00000000    0.00580007
     atom    4 type  3   force =     0.00000000    0.00000000   -0.00033834
     atom    5 type  3   force =     0.00000000    0.00000000    0.00097350

     Total force =     0.008997     Total SCF correction =     0.000275


     Computing stress (Cartesian axis) and pressure


     negative rho (up, down):  1.579E-02 0.000E+00
          total   stress  (Ry/bohr**3)                   (kbar)     P=        1.98
   0.00009346   0.00000000   0.00000000           13.75        0.00        0.00
   0.00000000   0.00001459   0.00000000            0.00        2.15        0.00
   0.00000000   0.00000000  -0.00006768            0.00        0.00       -9.96

     Energy error            =      9.0E-05 Ry
     Gradient error          =      6.8E-03 Ry/Bohr

     number of scf cycles    =   3
     number of bfgs steps    =   2

     energy             old  =    -380.5775759179 Ry
     energy             new  =    -380.5774858162 Ry

     CASE: energy            _new > energy            _old


 %%%%%%%%%%%%%%%%%%%%%%%%%%%%%%%%%%%%%%%%%%%%%%%%%%%%%%%%%%%%%%%%%%%%%%%%%%%%%%
     Error in routine bfgs (1):
     dE0s is positive which should never happen
 %%%%%%%%%%%%%%%%%%%%%%%%%%%%%%%%%%%%%%%%%%%%%%%%%%%%%%%%%%%%%%%%%%%%%%%%%%%%%%

     stopping ...
