
     Program PWSCF v.7.0 starts on 11Apr2022 at  9:31: 9 

     This program is part of the open-source Quantum ESPRESSO suite
     for quantum simulation of materials; please cite
         "P. Giannozzi et al., J. Phys.:Condens. Matter 21 395502 (2009);
         "P. Giannozzi et al., J. Phys.:Condens. Matter 29 465901 (2017);
         "P. Giannozzi et al., J. Chem. Phys. 152 154105 (2020);
          URL http://www.quantum-espresso.org", 
     in publications or presentations arising from this work. More details at
     http://www.quantum-espresso.org/quote

     Parallel version (MPI), running on     1 processors

     MPI processes distributed on     1 nodes
     90602 MiB available memory on the printing compute node when the environment starts
 
     Waiting for input...
     Reading input from standard input
Warning: card &CELL ignored
Warning: card  CELL_DYNAMICS = 'BFGS', ignored
Warning: card  PRESS=0.1D0, ignored
Warning: card / ignored

     Current dimensions of program PWSCF are:
     Max number of different atomic species (ntypx) = 10
     Max number of k-points (npk) =  40000
     Max angular momentum in pseudopotentials (lmaxx) =  4
     Message from routine setup:
     using ibrav=0 with symmetry is DISCOURAGED, use correct ibrav instead

     Subspace diagonalization in iterative solution of the eigenvalue problem:
     a serial algorithm will be used

 
     G-vector sticks info
     --------------------
     sticks:   dense  smooth     PW     G-vecs:    dense   smooth      PW
     Sum        1697    1697    481                55137    55137    8237
 
     Using Slab Decomposition
 


     bravais-lattice index     =            0
     lattice parameter (alat)  =       7.3155  a.u.
     unit-cell volume          =     408.0955 (a.u.)^3
     number of atoms/cell      =            5
     number of atomic types    =            3
     number of electrons       =        44.00
     number of Kohn-Sham states=           22
     kinetic-energy cutoff     =     100.0000  Ry
     charge density cutoff     =     400.0000  Ry
     scf convergence threshold =      1.0E-08
     mixing beta               =       0.7000
     number of iterations used =            8  plain     mixing
     energy convergence thresh.=      1.0E-04
     force convergence thresh. =      1.0E-03
     Exchange-correlation= SLA  PZ   NOGX NOGC
                           (   1   1   0   0   0   0   0)
     nstep                     =           50


     celldm(1)=   7.315508  celldm(2)=   0.000000  celldm(3)=   0.000000
     celldm(4)=   0.000000  celldm(5)=   0.000000  celldm(6)=   0.000000

     crystal axes: (cart. coord. in units of alat)
               a(1) = (   1.000000   0.000000   0.000000 )  
               a(2) = (   0.000000   0.996022   0.000000 )  
               a(3) = (   0.000000   0.000000   1.046549 )  

     reciprocal axes: (cart. coord. in units 2 pi/alat)
               b(1) = (  1.000000  0.000000  0.000000 )  
               b(2) = (  0.000000  1.003994  0.000000 )  
               b(3) = (  0.000000  0.000000  0.955522 )  


     PseudoPot. # 1 for Pb read from file:
     ./Pb_LDA.UPF
     MD5 check sum: 062a37469794d955244864f8fe2e5624
     Pseudo is Ultrasoft + core correction, Zval = 14.0
     Generated by new atomic code, or converted to UPF format
     Using radial grid of  899 points,  6 beta functions with: 
                l(1) =   0
                l(2) =   0
                l(3) =   1
                l(4) =   1
                l(5) =   2
                l(6) =   2
     Q(r) pseudized with  6 coefficients,  rinner =    1.000   1.000   1.000
                                                       1.000   1.000

     PseudoPot. # 2 for Ti read from file:
     ./Ti_LDA.UPF
     MD5 check sum: 0d9f225c038fe889ca2a701dcc8d72cb
     Pseudo is Ultrasoft + core correction, Zval = 12.0
     Generated by new atomic code, or converted to UPF format
     Using radial grid of  851 points,  6 beta functions with: 
                l(1) =   0
                l(2) =   0
                l(3) =   1
                l(4) =   1
                l(5) =   2
                l(6) =   2
     Q(r) pseudized with  6 coefficients,  rinner =    1.000   1.000   1.000
                                                       1.000   1.000

     PseudoPot. # 3 for O  read from file:
     ./O_LDA.UPF
     MD5 check sum: 194b818514d2a7dbb603bb78519a4f40
     Pseudo is Ultrasoft + core correction, Zval =  6.0
     Generated by new atomic code, or converted to UPF format
     Using radial grid of  737 points,  5 beta functions with: 
                l(1) =   0
                l(2) =   0
                l(3) =   1
                l(4) =   1
                l(5) =   2
     Q(r) pseudized with  8 coefficients,  rinner =    0.900   0.900   0.900
                                                       0.900   0.900

     atomic species   valence    mass     pseudopotential
        Pb            14.00   207.20000     Pb( 1.00)
        Ti            12.00    47.88000     Ti( 1.00)
        O              6.00    16.00000     O ( 1.00)

      4 Sym. Ops. (no inversion) found



   Cartesian axes

     site n.     atom                  positions (alat units)
         1           Pb  tau(   1) = (   0.0000000   0.0000000   1.0519809  )
         2           Ti  tau(   2) = (   0.5000000   0.4980110   0.5646261  )
         3           O   tau(   3) = (   0.5000000   0.4980110   0.1041094  )
         4           O   tau(   4) = (   0.5000000   0.0000000   0.6400184  )
         5           O   tau(   5) = (   0.0000000   0.4980110   0.6400184  )

     number of k points=    48
                       cart. coord. in units 2pi/alat
        k(    1) = (   0.0000000   0.0000000   0.0000000), wk =   0.0081633
        k(    2) = (   0.0000000   0.0000000   0.1911043), wk =   0.0163265
        k(    3) = (   0.0000000   0.0000000   0.3822086), wk =   0.0163265
        k(    4) = (   0.0000000   0.1434277   0.0000000), wk =   0.0163265
        k(    5) = (   0.0000000   0.1434277   0.1911043), wk =   0.0326531
        k(    6) = (   0.0000000   0.1434277   0.3822086), wk =   0.0326531
        k(    7) = (   0.0000000   0.2868554   0.0000000), wk =   0.0163265
        k(    8) = (   0.0000000   0.2868554   0.1911043), wk =   0.0326531
        k(    9) = (   0.0000000   0.2868554   0.3822086), wk =   0.0326531
        k(   10) = (   0.0000000   0.4302831   0.0000000), wk =   0.0163265
        k(   11) = (   0.0000000   0.4302831   0.1911043), wk =   0.0326531
        k(   12) = (   0.0000000   0.4302831   0.3822086), wk =   0.0326531
        k(   13) = (   0.1428571   0.0000000   0.0000000), wk =   0.0163265
        k(   14) = (   0.1428571   0.0000000   0.1911043), wk =   0.0326531
        k(   15) = (   0.1428571   0.0000000   0.3822086), wk =   0.0326531
        k(   16) = (   0.1428571   0.1434277   0.0000000), wk =   0.0326531
        k(   17) = (   0.1428571   0.1434277   0.1911043), wk =   0.0653061
        k(   18) = (   0.1428571   0.1434277   0.3822086), wk =   0.0653061
        k(   19) = (   0.1428571   0.2868554   0.0000000), wk =   0.0326531
        k(   20) = (   0.1428571   0.2868554   0.1911043), wk =   0.0653061
        k(   21) = (   0.1428571   0.2868554   0.3822086), wk =   0.0653061
        k(   22) = (   0.1428571   0.4302831   0.0000000), wk =   0.0326531
        k(   23) = (   0.1428571   0.4302831   0.1911043), wk =   0.0653061
        k(   24) = (   0.1428571   0.4302831   0.3822086), wk =   0.0653061
        k(   25) = (   0.2857143   0.0000000   0.0000000), wk =   0.0163265
        k(   26) = (   0.2857143   0.0000000   0.1911043), wk =   0.0326531
        k(   27) = (   0.2857143   0.0000000   0.3822086), wk =   0.0326531
        k(   28) = (   0.2857143   0.1434277   0.0000000), wk =   0.0326531
        k(   29) = (   0.2857143   0.1434277   0.1911043), wk =   0.0653061
        k(   30) = (   0.2857143   0.1434277   0.3822086), wk =   0.0653061
        k(   31) = (   0.2857143   0.2868554   0.0000000), wk =   0.0326531
        k(   32) = (   0.2857143   0.2868554   0.1911043), wk =   0.0653061
        k(   33) = (   0.2857143   0.2868554   0.3822086), wk =   0.0653061
        k(   34) = (   0.2857143   0.4302831   0.0000000), wk =   0.0326531
        k(   35) = (   0.2857143   0.4302831   0.1911043), wk =   0.0653061
        k(   36) = (   0.2857143   0.4302831   0.3822086), wk =   0.0653061
        k(   37) = (   0.4285714   0.0000000   0.0000000), wk =   0.0163265
        k(   38) = (   0.4285714   0.0000000   0.1911043), wk =   0.0326531
        k(   39) = (   0.4285714   0.0000000   0.3822086), wk =   0.0326531
        k(   40) = (   0.4285714   0.1434277   0.0000000), wk =   0.0326531
        k(   41) = (   0.4285714   0.1434277   0.1911043), wk =   0.0653061
        k(   42) = (   0.4285714   0.1434277   0.3822086), wk =   0.0653061
        k(   43) = (   0.4285714   0.2868554   0.0000000), wk =   0.0326531
        k(   44) = (   0.4285714   0.2868554   0.1911043), wk =   0.0653061
        k(   45) = (   0.4285714   0.2868554   0.3822086), wk =   0.0653061
        k(   46) = (   0.4285714   0.4302831   0.0000000), wk =   0.0326531
        k(   47) = (   0.4285714   0.4302831   0.1911043), wk =   0.0653061
        k(   48) = (   0.4285714   0.4302831   0.3822086), wk =   0.0653061

     Dense  grid:    55137 G-vectors     FFT dimensions: (  48,  48,  50)

     Estimated max dynamical RAM per process >     329.36 MB

     Check: negative core charge=   -0.000003

     Initial potential from superposition of free atoms

     starting charge      42.9982, renormalised to      44.0000

     negative rho (up, down):  1.707E-02 0.000E+00
     Starting wfcs are   31 randomized atomic wfcs

     total cpu time spent up to now is       18.9 secs

     Self-consistent Calculation

     iteration #  1     ecut=   100.00 Ry     beta= 0.70
     CG style diagonalization
     ethr =  1.00E-02,  avg # of iterations =  2.1

     negative rho (up, down):  1.434E-02 0.000E+00

     total cpu time spent up to now is       51.8 secs

     total energy              =    -380.06055169 Ry
     estimated scf accuracy    <       1.02650173 Ry

     iteration #  2     ecut=   100.00 Ry     beta= 0.70
     CG style diagonalization
     ethr =  2.33E-03,  avg # of iterations =  4.9

     negative rho (up, down):  1.504E-02 0.000E+00

     total cpu time spent up to now is      113.2 secs

     total energy              =    -379.75428922 Ry
     estimated scf accuracy    <       3.95917543 Ry

     iteration #  3     ecut=   100.00 Ry     beta= 0.70
     CG style diagonalization
     ethr =  2.33E-03,  avg # of iterations =  4.5

     negative rho (up, down):  1.564E-02 0.000E+00

     total cpu time spent up to now is      169.7 secs

     total energy              =    -380.54724867 Ry
     estimated scf accuracy    <       0.25568914 Ry

     iteration #  4     ecut=   100.00 Ry     beta= 0.70
     CG style diagonalization
     ethr =  5.81E-04,  avg # of iterations =  3.4

     negative rho (up, down):  1.567E-02 0.000E+00

     total cpu time spent up to now is      213.4 secs

     total energy              =    -380.56042872 Ry
     estimated scf accuracy    <       0.05408816 Ry

     iteration #  5     ecut=   100.00 Ry     beta= 0.70
     CG style diagonalization
     ethr =  1.23E-04,  avg # of iterations =  3.8

     negative rho (up, down):  1.567E-02 0.000E+00

     total cpu time spent up to now is      261.0 secs

     total energy              =    -380.57581128 Ry
     estimated scf accuracy    <       0.00475044 Ry

     iteration #  6     ecut=   100.00 Ry     beta= 0.70
     CG style diagonalization
     ethr =  1.08E-05,  avg # of iterations =  4.1

     negative rho (up, down):  1.566E-02 0.000E+00

     total cpu time spent up to now is      312.8 secs

     total energy              =    -380.57759117 Ry
     estimated scf accuracy    <       0.00745634 Ry

     iteration #  7     ecut=   100.00 Ry     beta= 0.70
     CG style diagonalization
     ethr =  1.08E-05,  avg # of iterations =  3.2

     negative rho (up, down):  1.567E-02 0.000E+00

     total cpu time spent up to now is      353.4 secs

     total energy              =    -380.57703837 Ry
     estimated scf accuracy    <       0.00284293 Ry

     iteration #  8     ecut=   100.00 Ry     beta= 0.70
     CG style diagonalization
     ethr =  6.46E-06,  avg # of iterations =  3.6

     negative rho (up, down):  1.569E-02 0.000E+00

     total cpu time spent up to now is      398.6 secs

     total energy              =    -380.57758833 Ry
     estimated scf accuracy    <       0.00000829 Ry

     iteration #  9     ecut=   100.00 Ry     beta= 0.70
     CG style diagonalization
     c_bands:  1 eigenvalues not converged
     c_bands:  1 eigenvalues not converged
     c_bands:  1 eigenvalues not converged
     c_bands:  1 eigenvalues not converged
     c_bands:  1 eigenvalues not converged
     ethr =  1.89E-08,  avg # of iterations =  8.4

     negative rho (up, down):  1.573E-02 0.000E+00

     total cpu time spent up to now is      503.0 secs

     total energy              =    -380.57764820 Ry
     estimated scf accuracy    <       0.00000919 Ry

     iteration # 10     ecut=   100.00 Ry     beta= 0.70
     CG style diagonalization
     ethr =  1.89E-08,  avg # of iterations =  3.3

     negative rho (up, down):  1.578E-02 0.000E+00

     total cpu time spent up to now is      544.5 secs

     total energy              =    -380.57764722 Ry
     estimated scf accuracy    <       0.00000547 Ry

     iteration # 11     ecut=   100.00 Ry     beta= 0.70
     CG style diagonalization
     ethr =  1.24E-08,  avg # of iterations =  3.6

     negative rho (up, down):  1.581E-02 0.000E+00

     total cpu time spent up to now is      589.9 secs

     total energy              =    -380.57764733 Ry
     estimated scf accuracy    <       0.00000162 Ry

     iteration # 12     ecut=   100.00 Ry     beta= 0.70
     CG style diagonalization
     ethr =  3.67E-09,  avg # of iterations =  5.2

     negative rho (up, down):  1.581E-02 0.000E+00

     total cpu time spent up to now is      654.0 secs

     total energy              =    -380.57764836 Ry
     estimated scf accuracy    <       0.00000040 Ry

     iteration # 13     ecut=   100.00 Ry     beta= 0.70
     CG style diagonalization
     ethr =  9.13E-10,  avg # of iterations =  6.1

     negative rho (up, down):  1.581E-02 0.000E+00

     total cpu time spent up to now is      729.4 secs

     total energy              =    -380.57764884 Ry
     estimated scf accuracy    <       0.00000003 Ry

     iteration # 14     ecut=   100.00 Ry     beta= 0.70
     CG style diagonalization
     c_bands:  1 eigenvalues not converged
     ethr =  7.30E-11,  avg # of iterations =  9.0

     negative rho (up, down):  1.582E-02 0.000E+00

     total cpu time spent up to now is      840.7 secs

     End of self-consistent calculation

          k = 0.0000 0.0000 0.0000 (  6905 PWs)   bands (ev):

   -45.2462 -21.9252 -21.8420 -21.8380  -7.2047  -6.0603  -5.8109  -4.4853
    -4.4841  -4.4463  -4.3307  -4.2111   4.7733   6.6651   6.6962   7.0610
     8.6514   8.6583   8.9016   9.2246   9.3766   9.3831

          k = 0.0000 0.0000 0.1911 (  6894 PWs)   bands (ev):

   -45.2460 -21.9414 -21.8413 -21.8373  -7.0626  -6.0180  -5.7624  -4.4976
    -4.4963  -4.4453  -4.3220  -4.2636   4.1328   6.7076   6.7348   7.3581
     8.4595   8.4716   8.8426   9.1131   9.4667   9.4707

          k = 0.0000 0.0000 0.3822 (  6888 PWs)   bands (ev):

   -45.2456 -21.9674 -21.8403 -21.8363  -6.8153  -5.9437  -5.6897  -4.5172
    -4.5160  -4.4436  -4.3549  -4.3089   3.4716   6.6872   6.7575   6.7765
     8.2536   8.2771   8.7510   9.5600   9.5617  10.2605

          k = 0.0000 0.1434 0.0000 (  6903 PWs)   bands (ev):

   -45.2459 -21.9246 -21.8572 -21.8373  -7.0961  -6.0346  -5.7878  -4.5027
    -4.4841  -4.4574  -4.3327  -4.2017   4.3930   6.7456   6.7475   7.1246
     8.5863   8.6679   8.9089   9.0908   9.1207   9.4863

          k = 0.0000 0.1434 0.1911 (  6911 PWs)   bands (ev):

   -45.2457 -21.9407 -21.8565 -21.8367  -6.9612  -6.0011  -5.7374  -4.5054
    -4.4967  -4.4567  -4.3271  -4.2345   3.9203   6.6166   6.7958   7.4032
     8.2183   8.4513   8.8324   9.0318   9.2071   9.6743

          k = 0.0000 0.1434 0.3822 (  6905 PWs)   bands (ev):

   -45.2453 -21.9665 -21.8554 -21.8356  -6.7329  -5.9423  -5.6550  -4.5168
    -4.5073  -4.4556  -4.3276  -4.2846   3.3564   6.3524   6.8517   7.0213
     7.9683   8.2479   8.9138   9.0745   9.3064  10.3677

          k = 0.0000 0.2869 0.0000 (  6895 PWs)   bands (ev):

   -45.2453 -21.9232 -21.8913 -21.8359  -6.8357  -5.9752  -5.7441  -4.5357
    -4.4828  -4.4809  -4.3307  -4.1995   3.8106   6.5693   6.9677   6.9839
     8.4627   8.4672   8.7842   8.7926   9.1972   9.8370

          k = 0.0000 0.2869 0.1911 (  6887 PWs)   bands (ev):

   -45.2450 -21.9390 -21.8906 -21.8352  -6.7294  -5.9524  -5.6847  -4.5176
    -4.4947  -4.4822  -4.3249  -4.1945   3.5239   6.4221   7.0329   7.0543
     8.0204   8.2886   8.4640   8.8643   9.2084  10.0772

          k = 0.0000 0.2869 0.3822 (  6913 PWs)   bands (ev):

   -45.2447 -21.9645 -21.8892 -21.8341  -6.5770  -5.8969  -5.5678  -4.5159
    -4.4822  -4.4816  -4.3480  -4.1661   3.1219   6.0812   6.8870   7.1006
     7.6745   7.9714   8.1478   8.9284   9.6060  10.1776

          k = 0.0000 0.4303 0.0000 (  6866 PWs)   bands (ev):

   -45.2447 -21.9222 -21.9183 -21.8347  -6.6054  -5.9110  -5.7365  -4.5577
    -4.5020  -4.4792  -4.3053  -4.2303   3.4862   6.0684   7.2344   7.2407
     7.9179   7.9979   8.6867   8.8232   9.2524  10.7456

          k = 0.0000 0.4303 0.1911 (  6874 PWs)   bands (ev):

   -45.2445 -21.9375 -21.9178 -21.8340  -6.5480  -5.8680  -5.6706  -4.5326
    -4.5025  -4.4930  -4.2855  -4.1996   3.2770   6.0477   7.0711   7.3494
     7.4330   7.8861   8.5952   8.8174   9.1947  10.4997

          k = 0.0000 0.4303 0.3822 (  6895 PWs)   bands (ev):

   -45.2441 -21.9627 -21.9162 -21.8329  -6.4998  -5.7823  -5.5051  -4.5151
    -4.5033  -4.4853  -4.3336  -4.0896   2.9673   5.8852   6.5212   7.3220
     7.4334   7.8336   7.8471   8.8118   9.7570  10.0618

          k = 0.1429 0.0000 0.0000 (  6899 PWs)   bands (ev):

   -45.2459 -21.9246 -21.8526 -21.8413  -7.0989  -6.0358  -5.7884  -4.5039
    -4.4829  -4.4571  -4.3328  -4.2028   4.3914   6.7284   6.7781   7.1272
     8.5780   8.6764   8.9056   9.0879   9.1238   9.4869

          k = 0.1429 0.0000 0.1911 (  6905 PWs)   bands (ev):

   -45.2457 -21.9407 -21.8519 -21.8407  -6.9643  -6.0018  -5.7378  -4.5065
    -4.4955  -4.4563  -4.3260  -4.2374   3.9179   6.6002   6.8224   7.4075
     8.2193   8.4636   8.8309   9.0225   9.2084   9.6726

          k = 0.1429 0.0000 0.3822 (  6916 PWs)   bands (ev):

   -45.2453 -21.9665 -21.8507 -21.8396  -6.7367  -5.9416  -5.6552  -4.5157
    -4.5078  -4.4552  -4.3247  -4.2908   3.3533   6.3414   6.8696   7.0244
     7.9602   8.2714   8.9195   9.0614   9.3104  10.3692

          k = 0.1429 0.1434 0.0000 (  6895 PWs)   bands (ev):

   -45.2456 -21.9240 -21.8566 -21.8519  -6.9917  -6.0094  -5.7775  -4.5073
    -4.4972  -4.4636  -4.3178  -4.1938   4.1168   6.6803   6.8724   7.1873
     8.2329   8.4528   8.9343   8.9926   9.3429   9.6266

          k = 0.1429 0.1434 0.1911 (  6902 PWs)   bands (ev):

   -45.2454 -21.9400 -21.8559 -21.8512  -6.8625  -5.9853  -5.7272  -4.5116
    -4.4977  -4.4622  -4.3103  -4.2134   3.7746   6.5712   6.6460   7.4185
     8.0953   8.2184   8.7598   9.1007   9.3741   9.6864

          k = 0.1429 0.1434 0.3822 (  6898 PWs)   bands (ev):

   -45.2450 -21.9657 -21.8548 -21.8500  -6.6491  -5.9451  -5.6389  -4.5307
    -4.4724  -4.4572  -4.3094  -4.2505   3.3031   6.3827   6.3971   7.1005
     8.0036   8.0229   8.6779   9.1737   9.4137  10.2407

          k = 0.1429 0.2869 0.0000 (  6877 PWs)   bands (ev):

   -45.2450 -21.9226 -21.8906 -21.8503  -6.7361  -5.9500  -5.7615  -4.5355
    -4.4912  -4.4613  -4.2992  -4.1916   3.6327   6.5351   6.9417   7.0954
     7.8717   8.2350   8.6963   9.0847   9.3148  10.0291

          k = 0.1429 0.2869 0.1911 (  6894 PWs)   bands (ev):

   -45.2448 -21.9383 -21.8898 -21.8496  -6.6299  -5.9411  -5.7080  -4.5198
    -4.4975  -4.4512  -4.2873  -4.1772   3.4683   6.3847   6.5402   7.1300
     7.6457   8.1378   8.7769   9.0615   9.3130   9.9982

          k = 0.1429 0.2869 0.3822 (  6893 PWs)   bands (ev):

   -45.2444 -21.9638 -21.8885 -21.8485  -6.4806  -5.9165  -5.5946  -4.5191
    -4.4790  -4.4181  -4.2963  -4.1453   3.1792   6.0255   6.4385   6.7785
     7.2128   7.9501   8.8068   9.1028   9.6180   9.8910

          k = 0.1429 0.4303 0.0000 (  6870 PWs)   bands (ev):

   -45.2445 -21.9215 -21.9175 -21.8491  -6.5116  -5.8885  -5.7749  -4.5459
    -4.4823  -4.4476  -4.2793  -4.2222   3.3372   6.0803   7.0212   7.4233
     7.4634   8.0557   8.4314   9.0781   9.3514  10.5553

          k = 0.1429 0.4303 0.1911 (  6877 PWs)   bands (ev):

   -45.2442 -21.9368 -21.9170 -21.8484  -6.4483  -5.8656  -5.7202  -4.5241
    -4.4857  -4.4350  -4.2558  -4.1805   3.2556   6.0516   6.4630   6.9447
     7.4984   8.2697   8.4358   9.0700   9.3290  10.1761

          k = 0.1429 0.4303 0.3822 (  6886 PWs)   bands (ev):

   -45.2439 -21.9620 -21.9155 -21.8473  -6.3999  -5.8168  -5.5676  -4.5136
    -4.4562  -4.4105  -4.2780  -4.0705   3.0851   5.8539   6.2704   6.4700
     6.8375   8.0904   8.7541   8.9378   9.3554   9.9921

          k = 0.2857 0.0000 0.0000 (  6889 PWs)   bands (ev):

   -45.2453 -21.9232 -21.8851 -21.8400  -6.8451  -5.9792  -5.7462  -4.5367
    -4.4816  -4.4798  -4.3323  -4.2017   3.8103   6.5796   6.9867   6.9980
     8.4590   8.4765   8.7818   8.7884   9.1985   9.8337

          k = 0.2857 0.0000 0.1911 (  6889 PWs)   bands (ev):

   -45.2451 -21.9391 -21.8843 -21.8393  -6.7393  -5.9546  -5.6864  -4.5188
    -4.4937  -4.4809  -4.3241  -4.2008   3.5195   6.4246   7.0589   7.0643
     8.0235   8.3012   8.4722   8.8709   9.1992  10.0681

          k = 0.2857 0.0000 0.3822 (  6915 PWs)   bands (ev):

   -45.2447 -21.9646 -21.8830 -21.8382  -6.5876  -5.8963  -5.5693  -4.5149
    -4.4827  -4.4810  -4.3464  -4.1764   3.1131   6.0763   6.8968   7.1160
     7.6904   7.9813   8.1710   8.9399   9.5857  10.1904

          k = 0.2857 0.1434 0.0000 (  6884 PWs)   bands (ev):

   -45.2450 -21.9226 -21.8844 -21.8551  -6.7424  -5.9529  -5.7630  -4.5358
    -4.4910  -4.4609  -4.3000  -4.1929   3.6333   6.5473   6.9529   7.1019
     7.8674   8.2347   8.6927   9.0973   9.3144  10.0239

          k = 0.2857 0.1434 0.1911 (  6895 PWs)   bands (ev):

   -45.2448 -21.9384 -21.8836 -21.8544  -6.6365  -5.9429  -5.7092  -4.5202
    -4.4973  -4.4509  -4.2861  -4.1817   3.4658   6.3882   6.5525   7.1347
     7.6455   8.1484   8.7900   9.0666   9.3095   9.9896

          k = 0.2857 0.1434 0.3822 (  6895 PWs)   bands (ev):

   -45.2444 -21.9638 -21.8823 -21.8533  -6.4876  -5.9165  -5.5956  -4.5194
    -4.4788  -4.4177  -4.2934  -4.1538   3.1730   6.0212   6.4491   6.7817
     7.2254   7.9603   8.8207   9.1191   9.6004   9.8995

          k = 0.2857 0.2869 0.0000 (  6883 PWs)   bands (ev):

   -45.2444 -21.9211 -21.8889 -21.8826  -6.5065  -5.8942  -5.7983  -4.5265
    -4.4868  -4.4179  -4.2411  -4.1891   3.2662   6.5341   6.6335   7.3073
     7.4621   7.7542   8.5291   9.0734   9.6120  10.0989

          k = 0.2857 0.2869 0.1911 (  6890 PWs)   bands (ev):

   -45.2441 -21.9368 -21.8882 -21.8819  -6.4035  -5.9134  -5.7591  -4.5009
    -4.4874  -4.3909  -4.2154  -4.1513   3.3016   6.2256   6.2475   6.6881
     7.3645   7.7476   9.0027   9.2041   9.6389   9.7295

          k = 0.2857 0.2869 0.3822 (  6900 PWs)   bands (ev):

   -45.2438 -21.9620 -21.8870 -21.8807  -6.2759  -5.9436  -5.6448  -4.4842
    -4.4602  -4.3332  -4.1812  -4.0948   3.2919   5.7524   5.8881   6.3660
     7.0214   7.2305   8.9086   9.5372   9.5883   9.8027

          k = 0.2857 0.4303 0.0000 (  6909 PWs)   bands (ev):

   -45.2438 -21.9200 -21.9157 -21.8812  -6.3156  -5.8447  -5.8228  -4.5193
    -4.4654  -4.3551  -4.2226  -4.1998   3.0048   6.0937   6.6671   7.1405
     7.6005   7.8235   8.0686   9.0828   9.7108  10.0368

          k = 0.2857 0.4303 0.1911 (  6879 PWs)   bands (ev):

   -45.2436 -21.9353 -21.9152 -21.8805  -6.2250  -5.8649  -5.8087  -4.4914
    -4.4588  -4.3101  -4.1881  -4.1386   3.1441   6.0132   6.1334   6.3477
     7.1087   7.8608   8.7913   9.2471   9.4408   9.8089

          k = 0.2857 0.4303 0.3822 (  6883 PWs)   bands (ev):

   -45.2433 -21.9604 -21.9139 -21.8794  -6.1703  -5.8891  -5.6838  -4.4632
    -4.4284  -4.2489  -4.1342  -4.0266   3.3651   5.5036   5.6495   6.0415
     6.6532   7.2179   8.1383   9.6535   9.7401  10.0025

          k = 0.4286 0.0000 0.0000 (  6874 PWs)   bands (ev):

   -45.2448 -21.9220 -21.9112 -21.8389  -6.6201  -5.9183  -5.7388  -4.5588
    -4.5001  -4.4782  -4.3108  -4.2310   3.4873   6.0951   7.2408   7.2746
     7.9095   8.0073   8.6866   8.8232   9.2537  10.7317

          k = 0.4286 0.0000 0.1911 (  6881 PWs)   bands (ev):

   -45.2446 -21.9376 -21.9103 -21.8382  -6.5623  -5.8740  -5.6724  -4.5339
    -4.5007  -4.4920  -4.2856  -4.2084   3.2717   6.0716   7.0761   7.3798
     7.4396   7.8950   8.6012   8.8246   9.1921  10.4931

          k = 0.4286 0.0000 0.3822 (  6907 PWs)   bands (ev):

   -45.2442 -21.9629 -21.9088 -21.8371  -6.5122  -5.7868  -5.5070  -4.5142
    -4.5014  -4.4865  -4.3338  -4.1030   2.9540   5.8922   6.5378   7.3387
     7.4439   7.8586   7.8595   8.8262   9.7704  10.0587

          k = 0.4286 0.1434 0.0000 (  6889 PWs)   bands (ev):

   -45.2445 -21.9213 -21.9104 -21.8540  -6.5228  -5.8951  -5.7768  -4.5464
    -4.4821  -4.4471  -4.2834  -4.2222   3.3391   6.1082   7.0329   7.4347
     7.4581   8.0532   8.4323   9.0917   9.3553  10.5402

          k = 0.4286 0.1434 0.1911 (  6896 PWs)   bands (ev):

   -45.2443 -21.9369 -21.9095 -21.8533  -6.4590  -5.8713  -5.7215  -4.5246
    -4.4858  -4.4344  -4.2543  -4.1884   3.2522   6.0761   6.4756   6.9390
     7.4978   8.2876   8.4544   9.0762   9.3294  10.1698

          k = 0.4286 0.1434 0.3822 (  6888 PWs)   bands (ev):

   -45.2439 -21.9622 -21.9080 -21.8521  -6.4085  -5.8220  -5.5690  -4.5140
    -4.4566  -4.4099  -4.2750  -4.0833   3.0739   5.8583   6.2841   6.4869
     6.8398   8.0981   8.7899   8.9520   9.3673   9.9819

          k = 0.4286 0.2869 0.0000 (  6908 PWs)   bands (ev):

   -45.2439 -21.9198 -21.9084 -21.8876  -6.3193  -5.8469  -5.8257  -4.5192
    -4.4656  -4.3575  -4.2188  -4.2032   3.0063   6.1233   6.6464   7.1423
     7.6099   7.8227   8.0665   9.0847   9.7431  10.0079

          k = 0.4286 0.2869 0.1911 (  6885 PWs)   bands (ev):

   -45.2437 -21.9353 -21.9077 -21.8869  -6.2280  -5.8687  -5.8097  -4.4910
    -4.4596  -4.3117  -4.1829  -4.1451   3.1437   6.0349   6.1401   6.3349
     7.1044   7.8609   8.8129   9.2475   9.4386   9.8118

          k = 0.4286 0.2869 0.3822 (  6874 PWs)   bands (ev):

   -45.2433 -21.9605 -21.9064 -21.8858  -6.1704  -5.8955  -5.6841  -4.4626
    -4.4300  -4.2495  -4.1268  -4.0374   3.3598   5.5105   5.6416   6.0546
     6.6663   7.2080   8.1539   9.6667   9.7531   9.9937

          k = 0.4286 0.4303 0.0000 (  6910 PWs)   bands (ev):

   -45.2434 -21.9186 -21.9142 -21.9069  -6.2046  -5.8105  -5.8017  -4.5043
    -4.4201  -4.2857  -4.2378  -4.1390   2.7460   5.9567   6.3696   7.3152
     7.4150   7.8095   7.9858   8.8153   9.3798  10.1854

          k = 0.4286 0.4303 0.1911 (  6884 PWs)   bands (ev):

   -45.2431 -21.9339 -21.9138 -21.9062  -6.0684  -5.8595  -5.8495  -4.4737
    -4.4142  -4.2046  -4.1484  -4.1060   2.9955   5.9092   6.1244   6.1753
     6.5606   7.8264   8.4337   9.1652   9.1843  10.1769

          k = 0.4286 0.4303 0.3822 (  6883 PWs)   bands (ev):

   -45.2428 -21.9590 -21.9127 -21.9050  -5.9828  -5.9382  -5.7658  -4.4243
    -4.4085  -4.1085  -4.0170  -4.0047   3.5601   5.3076   5.4157   5.8293
     6.4771   6.7596   7.0968   9.9858  10.0082  10.1638

     highest occupied level (ev):    10.7456

!    total energy              =    -380.57764901 Ry
     estimated scf accuracy    <          8.6E-09 Ry

     The total energy is the sum of the following terms:
     one-electron contribution =     -80.21867293 Ry
     hartree contribution      =      70.07698636 Ry
     xc contribution           =    -102.66222374 Ry
     ewald contribution        =    -267.77373869 Ry

     convergence has been achieved in  14 iterations

     negative rho (up, down):  1.582E-02 0.000E+00

     Forces acting on atoms (cartesian axes, Ry/au):

     atom    1 type  1   force =     0.00000000    0.00000000   -0.00085991
     atom    2 type  2   force =     0.00000000    0.00000000    0.00081059
     atom    3 type  3   force =     0.00000000    0.00000000    0.00053108
     atom    4 type  3   force =     0.00000000    0.00000000    0.00016136
     atom    5 type  3   force =     0.00000000    0.00000000   -0.00064311

     Total force =     0.001455     Total SCF correction =     0.000144


     Computing stress (Cartesian axis) and pressure


     negative rho (up, down):  1.582E-02 0.000E+00
          total   stress  (Ry/bohr**3)                   (kbar)     P=       -6.41
  -0.00007481   0.00000000   0.00000000          -11.01        0.00        0.00
   0.00000000  -0.00002483   0.00000000            0.00       -3.65        0.00
   0.00000000   0.00000000  -0.00003098            0.00        0.00       -4.56

     Energy error            =      2.6E-05 Ry
     Gradient error          =      8.6E-04 Ry/Bohr

     bfgs converged in   2 scf cycles and   1 bfgs steps
     (criteria: energy <  1.0E-04 Ry, force <  1.0E-03 Ry/Bohr)

     End of BFGS Geometry Optimization

     Final energy             =    -380.5776490081 Ry

     File ./PTO2.bfgs deleted, as requested
Begin final coordinates

ATOMIC_POSITIONS (crystal)
Pb            0.0000000000        0.0000000000        1.0051904083
Ti            0.5000000000        0.5000000000        0.5395123895
O             0.5000000000        0.5000000000        0.0994787311
O             0.5000000000        0.0000000000        0.6115513795
O             0.0000000000        0.5000000000        0.6115513795
End final coordinates



     Writing all to output data dir ./PTO2.save/
 
     init_run     :     17.18s CPU     17.58s WALL (       1 calls)
     electrons    :    794.61s CPU    821.87s WALL (       1 calls)
     forces       :      3.62s CPU      3.71s WALL (       1 calls)
     stress       :     22.02s CPU     22.26s WALL (       1 calls)

     Called by init_run:
     wfcinit      :     12.19s CPU     12.47s WALL (       1 calls)
     potinit      :      0.18s CPU      0.19s WALL (       1 calls)
     hinit0       :      3.94s CPU      3.95s WALL (       1 calls)

     Called by electrons:
     c_bands      :    718.08s CPU    742.37s WALL (      14 calls)
     sum_band     :     65.55s CPU     67.41s WALL (      14 calls)
     v_of_rho     :      0.41s CPU      0.43s WALL (      15 calls)
     newd         :     11.01s CPU     12.13s WALL (      15 calls)
     mix_rho      :      0.26s CPU      0.27s WALL (      14 calls)

     Called by c_bands:
     init_us_2    :     18.57s CPU     18.67s WALL (    1488 calls)
     init_us_2:cp :     18.52s CPU     18.64s WALL (    1488 calls)
     ccgdiagg     :    621.57s CPU    643.10s WALL (     672 calls)
     wfcrot       :     96.88s CPU     98.59s WALL (     672 calls)

     Called by *cgdiagg:
     h_psi        :    495.71s CPU    508.59s WALL (   55985 calls)
     s_psi        :    112.90s CPU    119.33s WALL (  111298 calls)

     Called by h_psi:
     h_psi:calbec :     58.81s CPU     60.82s WALL (   55985 calls)
     vloc_psi     :    373.29s CPU    381.87s WALL (   55985 calls)
     add_vuspsi   :     58.23s CPU     61.18s WALL (   55985 calls)
     hs_1psi      :    467.74s CPU    481.44s WALL (   55313 calls)
     s_1psi       :    112.90s CPU    117.40s WALL (   55313 calls)

     General routines
     calbec       :    113.55s CPU    120.18s WALL (  112210 calls)
     fft          :      0.15s CPU      0.16s WALL (      68 calls)
     ffts         :      0.03s CPU      0.03s WALL (      14 calls)
     fftw         :    340.63s CPU    347.12s WALL (  155842 calls)
 
     Parallel routines
 
     PWSCF        :  13m58.88s CPU  14m28.43s WALL

 
   This run was terminated on:   9:45:38  11Apr2022            

=------------------------------------------------------------------------------=
   JOB DONE.
=------------------------------------------------------------------------------=
