
     Program PWSCF v.7.0 starts on 11Apr2022 at  9:27:22 

     This program is part of the open-source Quantum ESPRESSO suite
     for quantum simulation of materials; please cite
         "P. Giannozzi et al., J. Phys.:Condens. Matter 21 395502 (2009);
         "P. Giannozzi et al., J. Phys.:Condens. Matter 29 465901 (2017);
         "P. Giannozzi et al., J. Chem. Phys. 152 154105 (2020);
          URL http://www.quantum-espresso.org", 
     in publications or presentations arising from this work. More details at
     http://www.quantum-espresso.org/quote

     Parallel version (MPI), running on     1 processors

     MPI processes distributed on     1 nodes
     89563 MiB available memory on the printing compute node when the environment starts
 
     Waiting for input...
     Reading input from standard input
Warning: card &CELL ignored
Warning: card  CELL_DYNAMICS = 'BFGS', ignored
Warning: card  PRESS=0.1D0, ignored
Warning: card / ignored

     Current dimensions of program PWSCF are:
     Max number of different atomic species (ntypx) = 10
     Max number of k-points (npk) =  40000
     Max angular momentum in pseudopotentials (lmaxx) =  4
     Message from routine setup:
     using ibrav=0 with symmetry is DISCOURAGED, use correct ibrav instead

     Subspace diagonalization in iterative solution of the eigenvalue problem:
     a serial algorithm will be used

 
     G-vector sticks info
     --------------------
     sticks:   dense  smooth     PW     G-vecs:    dense   smooth      PW
     Sum        1689    1689    481                54917    54917    8217
 
     Using Slab Decomposition
 


     bravais-lattice index     =            0
     lattice parameter (alat)  =       7.3010  a.u.
     unit-cell volume          =     406.4695 (a.u.)^3
     number of atoms/cell      =            5
     number of atomic types    =            3
     number of electrons       =        44.00
     number of Kohn-Sham states=           22
     kinetic-energy cutoff     =     100.0000  Ry
     charge density cutoff     =     400.0000  Ry
     scf convergence threshold =      1.0E-08
     mixing beta               =       0.7000
     number of iterations used =            8  plain     mixing
     energy convergence thresh.=      1.0E-04
     force convergence thresh. =      1.0E-03
     Exchange-correlation= SLA  PZ   NOGX NOGC
                           (   1   1   0   0   0   0   0)
     nstep                     =           50


     celldm(1)=   7.300957  celldm(2)=   0.000000  celldm(3)=   0.000000
     celldm(4)=   0.000000  celldm(5)=   0.000000  celldm(6)=   0.000000

     crystal axes: (cart. coord. in units of alat)
               a(1) = (   1.000000   0.000000   0.000000 )  
               a(2) = (   0.000000   0.998007   0.000000 )  
               a(3) = (   0.000000   0.000000   1.046538 )  

     reciprocal axes: (cart. coord. in units 2 pi/alat)
               b(1) = (  1.000000  0.000000  0.000000 )  
               b(2) = (  0.000000  1.001997  0.000000 )  
               b(3) = (  0.000000  0.000000  0.955531 )  


     PseudoPot. # 1 for Pb read from file:
     ./Pb_LDA.UPF
     MD5 check sum: 062a37469794d955244864f8fe2e5624
     Pseudo is Ultrasoft + core correction, Zval = 14.0
     Generated by new atomic code, or converted to UPF format
     Using radial grid of  899 points,  6 beta functions with: 
                l(1) =   0
                l(2) =   0
                l(3) =   1
                l(4) =   1
                l(5) =   2
                l(6) =   2
     Q(r) pseudized with  6 coefficients,  rinner =    1.000   1.000   1.000
                                                       1.000   1.000

     PseudoPot. # 2 for Ti read from file:
     ./Ti_LDA.UPF
     MD5 check sum: 0d9f225c038fe889ca2a701dcc8d72cb
     Pseudo is Ultrasoft + core correction, Zval = 12.0
     Generated by new atomic code, or converted to UPF format
     Using radial grid of  851 points,  6 beta functions with: 
                l(1) =   0
                l(2) =   0
                l(3) =   1
                l(4) =   1
                l(5) =   2
                l(6) =   2
     Q(r) pseudized with  6 coefficients,  rinner =    1.000   1.000   1.000
                                                       1.000   1.000

     PseudoPot. # 3 for O  read from file:
     ./O_LDA.UPF
     MD5 check sum: 194b818514d2a7dbb603bb78519a4f40
     Pseudo is Ultrasoft + core correction, Zval =  6.0
     Generated by new atomic code, or converted to UPF format
     Using radial grid of  737 points,  5 beta functions with: 
                l(1) =   0
                l(2) =   0
                l(3) =   1
                l(4) =   1
                l(5) =   2
     Q(r) pseudized with  8 coefficients,  rinner =    0.900   0.900   0.900
                                                       0.900   0.900

     atomic species   valence    mass     pseudopotential
        Pb            14.00   207.20000     Pb( 1.00)
        Ti            12.00    47.88000     Ti( 1.00)
        O              6.00    16.00000     O ( 1.00)

      4 Sym. Ops. (no inversion) found



   Cartesian axes

     site n.     atom                  positions (alat units)
         1           Pb  tau(   1) = (   0.0000000   0.0000000   1.0519701  )
         2           Ti  tau(   2) = (   0.5000000   0.4990035   0.5646203  )
         3           O   tau(   3) = (   0.5000000   0.4990035   0.1041083  )
         4           O   tau(   4) = (   0.5000000   0.0000000   0.6400118  )
         5           O   tau(   5) = (   0.0000000   0.4990035   0.6400118  )

     number of k points=    48
                       cart. coord. in units 2pi/alat
        k(    1) = (   0.0000000   0.0000000   0.0000000), wk =   0.0081633
        k(    2) = (   0.0000000   0.0000000   0.1911063), wk =   0.0163265
        k(    3) = (   0.0000000   0.0000000   0.3822125), wk =   0.0163265
        k(    4) = (   0.0000000   0.1431424   0.0000000), wk =   0.0163265
        k(    5) = (   0.0000000   0.1431424   0.1911063), wk =   0.0326531
        k(    6) = (   0.0000000   0.1431424   0.3822125), wk =   0.0326531
        k(    7) = (   0.0000000   0.2862849   0.0000000), wk =   0.0163265
        k(    8) = (   0.0000000   0.2862849   0.1911063), wk =   0.0326531
        k(    9) = (   0.0000000   0.2862849   0.3822125), wk =   0.0326531
        k(   10) = (   0.0000000   0.4294273   0.0000000), wk =   0.0163265
        k(   11) = (   0.0000000   0.4294273   0.1911063), wk =   0.0326531
        k(   12) = (   0.0000000   0.4294273   0.3822125), wk =   0.0326531
        k(   13) = (   0.1428571   0.0000000   0.0000000), wk =   0.0163265
        k(   14) = (   0.1428571   0.0000000   0.1911063), wk =   0.0326531
        k(   15) = (   0.1428571   0.0000000   0.3822125), wk =   0.0326531
        k(   16) = (   0.1428571   0.1431424   0.0000000), wk =   0.0326531
        k(   17) = (   0.1428571   0.1431424   0.1911063), wk =   0.0653061
        k(   18) = (   0.1428571   0.1431424   0.3822125), wk =   0.0653061
        k(   19) = (   0.1428571   0.2862849   0.0000000), wk =   0.0326531
        k(   20) = (   0.1428571   0.2862849   0.1911063), wk =   0.0653061
        k(   21) = (   0.1428571   0.2862849   0.3822125), wk =   0.0653061
        k(   22) = (   0.1428571   0.4294273   0.0000000), wk =   0.0326531
        k(   23) = (   0.1428571   0.4294273   0.1911063), wk =   0.0653061
        k(   24) = (   0.1428571   0.4294273   0.3822125), wk =   0.0653061
        k(   25) = (   0.2857143   0.0000000   0.0000000), wk =   0.0163265
        k(   26) = (   0.2857143   0.0000000   0.1911063), wk =   0.0326531
        k(   27) = (   0.2857143   0.0000000   0.3822125), wk =   0.0326531
        k(   28) = (   0.2857143   0.1431424   0.0000000), wk =   0.0326531
        k(   29) = (   0.2857143   0.1431424   0.1911063), wk =   0.0653061
        k(   30) = (   0.2857143   0.1431424   0.3822125), wk =   0.0653061
        k(   31) = (   0.2857143   0.2862849   0.0000000), wk =   0.0326531
        k(   32) = (   0.2857143   0.2862849   0.1911063), wk =   0.0653061
        k(   33) = (   0.2857143   0.2862849   0.3822125), wk =   0.0653061
        k(   34) = (   0.2857143   0.4294273   0.0000000), wk =   0.0326531
        k(   35) = (   0.2857143   0.4294273   0.1911063), wk =   0.0653061
        k(   36) = (   0.2857143   0.4294273   0.3822125), wk =   0.0653061
        k(   37) = (   0.4285714   0.0000000   0.0000000), wk =   0.0163265
        k(   38) = (   0.4285714   0.0000000   0.1911063), wk =   0.0326531
        k(   39) = (   0.4285714   0.0000000   0.3822125), wk =   0.0326531
        k(   40) = (   0.4285714   0.1431424   0.0000000), wk =   0.0326531
        k(   41) = (   0.4285714   0.1431424   0.1911063), wk =   0.0653061
        k(   42) = (   0.4285714   0.1431424   0.3822125), wk =   0.0653061
        k(   43) = (   0.4285714   0.2862849   0.0000000), wk =   0.0326531
        k(   44) = (   0.4285714   0.2862849   0.1911063), wk =   0.0653061
        k(   45) = (   0.4285714   0.2862849   0.3822125), wk =   0.0653061
        k(   46) = (   0.4285714   0.4294273   0.0000000), wk =   0.0326531
        k(   47) = (   0.4285714   0.4294273   0.1911063), wk =   0.0653061
        k(   48) = (   0.4285714   0.4294273   0.3822125), wk =   0.0653061

     Dense  grid:    54917 G-vectors     FFT dimensions: (  48,  48,  50)

     Estimated max dynamical RAM per process >     328.11 MB

     Check: negative core charge=   -0.000003

     Initial potential from superposition of free atoms

     starting charge      42.9982, renormalised to      44.0000

     negative rho (up, down):  1.706E-02 0.000E+00
     Starting wfcs are   31 randomized atomic wfcs

     total cpu time spent up to now is       18.6 secs

     Self-consistent Calculation

     iteration #  1     ecut=   100.00 Ry     beta= 0.70
     CG style diagonalization
     ethr =  1.00E-02,  avg # of iterations =  2.1

     negative rho (up, down):  1.434E-02 0.000E+00

     total cpu time spent up to now is       52.4 secs

     total energy              =    -380.06072167 Ry
     estimated scf accuracy    <       1.02656282 Ry

     iteration #  2     ecut=   100.00 Ry     beta= 0.70
     CG style diagonalization
     ethr =  2.33E-03,  avg # of iterations =  4.9

     negative rho (up, down):  1.504E-02 0.000E+00

     total cpu time spent up to now is      115.3 secs

     total energy              =    -379.76410099 Ry
     estimated scf accuracy    <       3.89803582 Ry

     iteration #  3     ecut=   100.00 Ry     beta= 0.70
     CG style diagonalization
     ethr =  2.33E-03,  avg # of iterations =  4.5

     negative rho (up, down):  1.564E-02 0.000E+00

     total cpu time spent up to now is      173.4 secs

     total energy              =    -380.54746396 Ry
     estimated scf accuracy    <       0.25183330 Ry

     iteration #  4     ecut=   100.00 Ry     beta= 0.70
     CG style diagonalization
     ethr =  5.72E-04,  avg # of iterations =  3.4

     negative rho (up, down):  1.567E-02 0.000E+00

     total cpu time spent up to now is      218.1 secs

     total energy              =    -380.56093528 Ry
     estimated scf accuracy    <       0.05241512 Ry

     iteration #  5     ecut=   100.00 Ry     beta= 0.70
     CG style diagonalization
     ethr =  1.19E-04,  avg # of iterations =  3.8

     negative rho (up, down):  1.567E-02 0.000E+00

     total cpu time spent up to now is      267.6 secs

     total energy              =    -380.57593187 Ry
     estimated scf accuracy    <       0.00486016 Ry

     iteration #  6     ecut=   100.00 Ry     beta= 0.70
     CG style diagonalization
     ethr =  1.10E-05,  avg # of iterations =  4.1

     negative rho (up, down):  1.566E-02 0.000E+00

     total cpu time spent up to now is      320.8 secs

     total energy              =    -380.57755852 Ry
     estimated scf accuracy    <       0.00721191 Ry

     iteration #  7     ecut=   100.00 Ry     beta= 0.70
     CG style diagonalization
     ethr =  1.10E-05,  avg # of iterations =  3.2

     negative rho (up, down):  1.567E-02 0.000E+00

     total cpu time spent up to now is      362.9 secs

     total energy              =    -380.57709306 Ry
     estimated scf accuracy    <       0.00259866 Ry

     iteration #  8     ecut=   100.00 Ry     beta= 0.70
     CG style diagonalization
     ethr =  5.91E-06,  avg # of iterations =  3.7

     negative rho (up, down):  1.570E-02 0.000E+00

     total cpu time spent up to now is      409.9 secs

     total energy              =    -380.57761805 Ry
     estimated scf accuracy    <       0.00000877 Ry

     iteration #  9     ecut=   100.00 Ry     beta= 0.70
     CG style diagonalization
     c_bands:  1 eigenvalues not converged
     c_bands:  1 eigenvalues not converged
     c_bands:  1 eigenvalues not converged
     c_bands:  1 eigenvalues not converged
     c_bands:  1 eigenvalues not converged
     ethr =  1.99E-08,  avg # of iterations =  8.2

     negative rho (up, down):  1.573E-02 0.000E+00

     total cpu time spent up to now is      515.2 secs

     total energy              =    -380.57767439 Ry
     estimated scf accuracy    <       0.00001050 Ry

     iteration # 10     ecut=   100.00 Ry     beta= 0.70
     CG style diagonalization
     ethr =  1.99E-08,  avg # of iterations =  3.4

     negative rho (up, down):  1.577E-02 0.000E+00

     total cpu time spent up to now is      558.6 secs

     total energy              =    -380.57767368 Ry
     estimated scf accuracy    <       0.00000641 Ry

     iteration # 11     ecut=   100.00 Ry     beta= 0.70
     CG style diagonalization
     ethr =  1.46E-08,  avg # of iterations =  3.3

     negative rho (up, down):  1.581E-02 0.000E+00

     total cpu time spent up to now is      600.7 secs

     total energy              =    -380.57767308 Ry
     estimated scf accuracy    <       0.00000300 Ry

     iteration # 12     ecut=   100.00 Ry     beta= 0.70
     CG style diagonalization
     ethr =  6.81E-09,  avg # of iterations =  4.5

     negative rho (up, down):  1.581E-02 0.000E+00

     total cpu time spent up to now is      658.3 secs

     total energy              =    -380.57767431 Ry
     estimated scf accuracy    <       0.00000048 Ry

     iteration # 13     ecut=   100.00 Ry     beta= 0.70
     CG style diagonalization
     ethr =  1.10E-09,  avg # of iterations =  6.5

     negative rho (up, down):  1.581E-02 0.000E+00

     total cpu time spent up to now is      741.2 secs

     total energy              =    -380.57767500 Ry
     estimated scf accuracy    <       0.00000004 Ry

     iteration # 14     ecut=   100.00 Ry     beta= 0.70
     CG style diagonalization
     ethr =  8.17E-11,  avg # of iterations =  9.3

     negative rho (up, down):  1.582E-02 0.000E+00

     total cpu time spent up to now is      859.4 secs

     End of self-consistent calculation

          k = 0.0000 0.0000 0.0000 (  6861 PWs)   bands (ev):

   -45.1670 -21.8516 -21.7642 -21.7622  -7.1627  -6.0102  -5.7595  -4.4146
    -4.4139  -4.3756  -4.2605  -4.1387   4.8471   6.7219   6.7376   7.1187
     8.7075   8.7110   8.9585   9.2877   9.4364   9.4397

          k = 0.0000 0.0000 0.1911 (  6864 PWs)   bands (ev):

   -45.1667 -21.8683 -21.7635 -21.7615  -7.0187  -5.9674  -5.7095  -4.4271
    -4.4265  -4.3745  -4.2512  -4.1920   4.1964   6.7630   6.7767   7.4193
     8.5157   8.5219   8.8991   9.1767   9.5275   9.5295

          k = 0.0000 0.0000 0.3822 (  6864 PWs)   bands (ev):

   -45.1663 -21.8950 -21.7625 -21.7604  -6.7685  -5.8923  -5.6341  -4.4472
    -4.4466  -4.3728  -4.2843  -4.2373   3.5279   6.7367   6.8091   6.8186
     8.3135   8.3253   8.8070   9.6215   9.6223  10.3378

          k = 0.0000 0.1431 0.0000 (  6875 PWs)   bands (ev):

   -45.1667 -21.8510 -21.7796 -21.7615  -7.0541  -5.9843  -5.7365  -4.4329
    -4.4134  -4.3868  -4.2624  -4.1295   4.4593   6.7954   6.8043   7.1832
     8.6404   8.7235   8.9630   9.1484   9.1816   9.5492

          k = 0.0000 0.1431 0.1911 (  6878 PWs)   bands (ev):

   -45.1664 -21.8676 -21.7789 -21.7609  -6.9174  -5.9502  -5.6845  -4.4356
    -4.4262  -4.3860  -4.2561  -4.1632   3.9805   6.6630   6.8514   7.4650
     8.2726   8.5066   8.8901   9.0859   9.2673   9.7388

          k = 0.0000 0.1431 0.3822 (  6885 PWs)   bands (ev):

   -45.1661 -21.8941 -21.7777 -21.7598  -6.6865  -5.8904  -5.5992  -4.4468
    -4.4376  -4.3849  -4.2553  -4.2149   3.4104   6.3959   6.9037   7.0744
     8.0192   8.3068   8.9745   9.1273   9.3684  10.4443

          k = 0.0000 0.2863 0.0000 (  6855 PWs)   bands (ev):

   -45.1660 -21.8496 -21.8138 -21.7601  -6.7936  -5.9246  -5.6929  -4.4663
    -4.4122  -4.4102  -4.2605  -4.1275   3.8704   6.6286   7.0246   7.0379
     8.5201   8.5219   8.8404   8.8469   9.2609   9.9021

          k = 0.0000 0.2863 0.1911 (  6870 PWs)   bands (ev):

   -45.1658 -21.8659 -21.8130 -21.7594  -6.6857  -5.9009  -5.6319  -4.4480
    -4.4243  -4.4116  -4.2536  -4.1238   3.5793   6.4759   7.0891   7.1114
     8.0754   8.3426   8.5227   8.9256   9.2645  10.1437

          k = 0.0000 0.2863 0.3822 (  6890 PWs)   bands (ev):

   -45.1654 -21.8921 -21.8116 -21.7583  -6.5314  -5.8438  -5.5119  -4.4459
    -4.4117  -4.4116  -4.2762  -4.0962   3.1717   6.1271   6.9426   7.1534
     7.7296   8.0269   8.2044   8.9925   9.6594  10.2552

          k = 0.0000 0.4294 0.0000 (  6840 PWs)   bands (ev):

   -45.1655 -21.8483 -21.8412 -21.7589  -6.5630  -5.8601  -5.6857  -4.4887
    -4.4316  -4.4084  -4.2360  -4.1581   3.5440   6.1279   7.2880   7.2971
     7.9742   8.0569   8.7417   8.8783   9.3157  10.8154

          k = 0.0000 0.4294 0.1911 (  6841 PWs)   bands (ev):

   -45.1653 -21.8643 -21.8403 -21.7582  -6.5041  -5.8162  -5.6183  -4.4632
    -4.4322  -4.4225  -4.2136  -4.1298   3.3303   6.1065   7.1243   7.4067
     7.4864   7.9411   8.6545   8.8767   9.2541  10.5695

          k = 0.0000 0.4294 0.3822 (  6875 PWs)   bands (ev):

   -45.1649 -21.8904 -21.8387 -21.7570  -6.4544  -5.7289  -5.4491  -4.4452
    -4.4330  -4.4150  -4.2621  -4.0195   3.0146   5.9367   6.5735   7.3751
     7.4862   7.8909   7.9020   8.8753   9.8303  10.1245

          k = 0.1429 0.0000 0.0000 (  6879 PWs)   bands (ev):

   -45.1667 -21.8510 -21.7772 -21.7636  -7.0555  -5.9849  -5.7368  -4.4334
    -4.4128  -4.3866  -4.2625  -4.1300   4.4585   6.7867   6.8197   7.1845
     8.6362   8.7278   8.9613   9.1469   9.1832   9.5495

          k = 0.1429 0.0000 0.1911 (  6880 PWs)   bands (ev):

   -45.1664 -21.8676 -21.7765 -21.7629  -6.9190  -5.9506  -5.6847  -4.4362
    -4.4256  -4.3858  -4.2555  -4.1647   3.9793   6.6547   6.8648   7.4672
     8.2731   8.5128   8.8893   9.0812   9.2680   9.7380

          k = 0.1429 0.0000 0.3822 (  6882 PWs)   bands (ev):

   -45.1661 -21.8942 -21.7753 -21.7618  -6.6884  -5.8900  -5.5993  -4.4463
    -4.4378  -4.3847  -4.2539  -4.2180   3.4088   6.3904   6.9127   7.0759
     8.0151   8.3186   8.9773   9.1207   9.3704  10.4450

          k = 0.1429 0.1431 0.0000 (  6865 PWs)   bands (ev):

   -45.1664 -21.8504 -21.7789 -21.7765  -6.9482  -5.9583  -5.7259  -4.4373
    -4.4269  -4.3932  -4.2473  -4.1213   4.1794   6.7306   6.9272   7.2465
     8.2865   8.5064   8.9959   9.0487   9.4006   9.6898

          k = 0.1429 0.1431 0.1911 (  6873 PWs)   bands (ev):

   -45.1662 -21.8669 -21.7782 -21.7758  -6.8172  -5.9339  -5.6742  -4.4416
    -4.4276  -4.3918  -4.2394  -4.1411   3.8336   6.6196   6.6960   7.4785
     8.1505   8.2740   8.8154   9.1575   9.4316   9.7529

          k = 0.1429 0.1431 0.3822 (  6873 PWs)   bands (ev):

   -45.1658 -21.8933 -21.7770 -21.7746  -6.6011  -5.8931  -5.5829  -4.4611
    -4.4019  -4.3869  -4.2378  -4.1790   3.3571   6.4294   6.4419   7.1540
     8.0610   8.0750   8.7347   9.2308   9.4712  10.3159

          k = 0.1429 0.2863 0.0000 (  6858 PWs)   bands (ev):

   -45.1657 -21.8489 -21.8131 -21.7750  -6.6925  -5.8986  -5.7099  -4.4660
    -4.4208  -4.3909  -4.2287  -4.1195   3.6898   6.5920   6.9979   7.1520
     7.9248   8.2881   8.7547   9.1451   9.3763  10.0939

          k = 0.1429 0.2863 0.1911 (  6863 PWs)   bands (ev):

   -45.1655 -21.8652 -21.8123 -21.7742  -6.5846  -5.8892  -5.6550  -4.4500
    -4.4273  -4.3808  -4.2159  -4.1059   3.5232   6.4369   6.5902   7.1867
     7.6996   8.1984   8.8379   9.1200   9.3690  10.0642

          k = 0.1429 0.2863 0.3822 (  6871 PWs)   bands (ev):

   -45.1651 -21.8914 -21.8109 -21.7731  -6.4333  -5.8635  -5.5385  -4.4494
    -4.4085  -4.3472  -4.2242  -4.0747   3.2299   6.0698   6.4877   6.8285
     7.2693   8.0111   8.8642   9.1637   9.6736   9.9634

          k = 0.1429 0.4294 0.0000 (  6854 PWs)   bands (ev):

   -45.1652 -21.8477 -21.8403 -21.7737  -6.4677  -5.8369  -5.7235  -4.4767
    -4.4118  -4.3773  -4.2096  -4.1499   3.3921   6.1401   7.0737   7.4805
     7.5174   8.1133   8.4852   9.1366   9.4162  10.6251

          k = 0.1429 0.4294 0.1911 (  6857 PWs)   bands (ev):

   -45.1650 -21.8637 -21.8395 -21.7730  -6.4027  -5.8134  -5.6675  -4.4543
    -4.4155  -4.3647  -4.1835  -4.1104   3.3082   6.1102   6.5112   6.9938
     7.5545   8.3316   8.4976   9.1286   9.3876  10.2449

          k = 0.1429 0.4294 0.3822 (  6858 PWs)   bands (ev):

   -45.1646 -21.8896 -21.8380 -21.7718  -6.3526  -5.7637  -5.5115  -4.4438
    -4.3855  -4.3400  -4.2055  -4.0001   3.1331   5.9031   6.3189   6.5228
     6.8855   8.1518   8.8202   8.9950   9.4261  10.0507

          k = 0.2857 0.0000 0.0000 (  6861 PWs)   bands (ev):

   -45.1660 -21.8496 -21.8107 -21.7622  -6.7982  -5.9266  -5.6940  -4.4668
    -4.4116  -4.4096  -4.2614  -4.1287   3.8703   6.6337   7.0393   7.0398
     8.5178   8.5271   8.8392   8.8448   9.2616   9.9005

          k = 0.2857 0.0000 0.1911 (  6865 PWs)   bands (ev):

   -45.1658 -21.8659 -21.8099 -21.7615  -6.6906  -5.9021  -5.6329  -4.4486
    -4.4237  -4.4110  -4.2532  -4.1269   3.5771   6.4771   7.1022   7.1165
     8.0770   8.3489   8.5269   8.9289   9.2599  10.1392

          k = 0.2857 0.0000 0.3822 (  6884 PWs)   bands (ev):

   -45.1654 -21.8922 -21.8085 -21.7603  -6.5367  -5.8436  -5.5126  -4.4454
    -4.4121  -4.4111  -4.2754  -4.1013   3.1673   6.1246   6.9474   7.1612
     7.7376   8.0320   8.2161   8.9983   9.6491  10.2617

          k = 0.2857 0.1431 0.0000 (  6853 PWs)   bands (ev):

   -45.1658 -21.8490 -21.8099 -21.7774  -6.6956  -5.9001  -5.7107  -4.4661
    -4.4207  -4.3907  -4.2292  -4.1201   3.6901   6.5981   7.0036   7.1553
     7.9227   8.2879   8.7529   9.1515   9.3762  10.0912

          k = 0.2857 0.1431 0.1911 (  6867 PWs)   bands (ev):

   -45.1655 -21.8652 -21.8091 -21.7767  -6.5879  -5.8901  -5.6556  -4.4502
    -4.4272  -4.3806  -4.2153  -4.1081   3.5219   6.4386   6.5963   7.1890
     7.6995   8.2038   8.8444   9.1227   9.3672  10.0598

          k = 0.2857 0.1431 0.3822 (  6873 PWs)   bands (ev):

   -45.1651 -21.8914 -21.8077 -21.7755  -6.4368  -5.8636  -5.5390  -4.4496
    -4.4085  -4.3470  -4.2227  -4.0790   3.2267   6.0676   6.4930   6.8301
     7.2756   8.0163   8.8712   9.1719   9.6647   9.9677

          k = 0.2857 0.2863 0.0000 (  6863 PWs)   bands (ev):

   -45.1651 -21.8475 -21.8113 -21.8081  -6.4598  -5.8410  -5.7458  -4.4569
    -4.4165  -4.3475  -4.1703  -4.1168   3.3178   6.5860   6.6902   7.3632
     7.5152   7.8049   8.5860   9.1390   9.6689  10.1682

          k = 0.2857 0.2863 0.1911 (  6860 PWs)   bands (ev):

   -45.1649 -21.8636 -21.8106 -21.8074  -6.3548  -5.8602  -5.7056  -4.4308
    -4.4172  -4.3203  -4.1442  -4.0787   3.3541   6.2733   6.2925   6.7445
     7.4177   7.8059   9.0648   9.2627   9.6964   9.7956

          k = 0.2857 0.2863 0.3822 (  6874 PWs)   bands (ev):

   -45.1645 -21.8896 -21.8094 -21.8061  -6.2250  -5.8904  -5.5883  -4.4139
    -4.3893  -4.2621  -4.1091  -4.0217   3.3439   5.7934   5.9315   6.4162
     7.0763   7.2854   8.9736   9.5968   9.6461   9.8613

          k = 0.2857 0.4294 0.0000 (  6878 PWs)   bands (ev):

   -45.1646 -21.8461 -21.8384 -21.8067  -6.2688  -5.7913  -5.7700  -4.4496
    -4.3950  -4.2850  -4.1497  -4.1299   3.0535   6.1545   6.7156   7.1922
     7.6585   7.8742   8.1250   9.1479   9.7793  10.1020

          k = 0.2857 0.4294 0.1911 (  6855 PWs)   bands (ev):

   -45.1643 -21.8621 -21.8377 -21.8060  -6.1756  -5.8117  -5.7553  -4.4210
    -4.3885  -4.2396  -4.1147  -4.0683   3.1936   6.0670   6.1829   6.3934
     7.1614   7.9182   8.8620   9.3062   9.5053   9.8677

          k = 0.2857 0.4294 0.3822 (  6856 PWs)   bands (ev):

   -45.1640 -21.8880 -21.8364 -21.8048  -6.1186  -5.8364  -5.6275  -4.3925
    -4.3574  -4.1780  -4.0596  -3.9555   3.4149   5.5455   5.6885   6.0982
     6.7051   7.2699   8.2065   9.7149   9.8015  10.0614

          k = 0.4286 0.0000 0.0000 (  6832 PWs)   bands (ev):

   -45.1655 -21.8483 -21.8375 -21.7611  -6.5703  -5.8639  -5.6868  -4.4892
    -4.4306  -4.4079  -4.2387  -4.1585   3.5446   6.1412   7.2912   7.3141
     7.9699   8.0618   8.7417   8.8783   9.3164  10.8084

          k = 0.4286 0.0000 0.1911 (  6852 PWs)   bands (ev):

   -45.1653 -21.8644 -21.8366 -21.7603  -6.5112  -5.8194  -5.6192  -4.4638
    -4.4312  -4.4220  -4.2137  -4.1342   3.3276   6.1183   7.1269   7.4220
     7.4897   7.9456   8.6575   8.8804   9.2527  10.5662

          k = 0.4286 0.0000 0.3822 (  6863 PWs)   bands (ev):

   -45.1649 -21.8905 -21.8350 -21.7592  -6.4605  -5.7314  -5.4501  -4.4448
    -4.4320  -4.4156  -4.2622  -4.0262   3.0079   5.9401   6.5819   7.3835
     7.4915   7.9039   7.9078   8.8827   9.8364  10.1235

          k = 0.4286 0.1431 0.0000 (  6855 PWs)   bands (ev):

   -45.1652 -21.8476 -21.8366 -21.7762  -6.4732  -5.8404  -5.7244  -4.4769
    -4.4117  -4.3771  -4.2116  -4.1499   3.3931   6.1539   7.0796   7.4864
     7.5146   8.1120   8.4857   9.1434   9.4182  10.6175

          k = 0.4286 0.1431 0.1911 (  6860 PWs)   bands (ev):

   -45.1650 -21.8637 -21.8357 -21.7755  -6.4080  -5.8164  -5.6682  -4.4546
    -4.4155  -4.3644  -4.1828  -4.1143   3.3065   6.1224   6.5175   6.9910
     7.5542   8.3407   8.5069   9.1318   9.3878  10.2417

          k = 0.4286 0.1431 0.3822 (  6861 PWs)   bands (ev):

   -45.1646 -21.8897 -21.8342 -21.7743  -6.3568  -5.7665  -5.5121  -4.4440
    -4.3857  -4.3397  -4.2040  -4.0065   3.1275   5.9051   6.3258   6.5313
     6.8867   8.1558   8.8381   9.0022   9.4321  10.0456

          k = 0.4286 0.2863 0.0000 (  6888 PWs)   bands (ev):

   -45.1646 -21.8461 -21.8347 -21.8099  -6.2706  -5.7924  -5.7716  -4.4496
    -4.3951  -4.2862  -4.1477  -4.1316   3.0543   6.1693   6.7053   7.1932
     7.6632   7.8737   8.1239   9.1489   9.7952  10.0877

          k = 0.4286 0.2863 0.1911 (  6854 PWs)   bands (ev):

   -45.1644 -21.8621 -21.8339 -21.8093  -6.1771  -5.8137  -5.7559  -4.4208
    -4.3890  -4.2403  -4.1121  -4.0715   3.1935   6.0775   6.1864   6.3872
     7.1592   7.9182   8.8728   9.3065   9.5043   9.8690

          k = 0.4286 0.2863 0.3822 (  6858 PWs)   bands (ev):

   -45.1640 -21.8880 -21.8325 -21.8081  -6.1185  -5.8397  -5.6276  -4.3921
    -4.3583  -4.1783  -4.0559  -3.9609   3.4123   5.5489   5.6845   6.1048
     6.7117   7.2650   8.2143   9.7217   9.8080  10.0568

          k = 0.4286 0.4294 0.0000 (  6871 PWs)   bands (ev):

   -45.1641 -21.8447 -21.8369 -21.8331  -6.1567  -5.7550  -5.7473  -4.4345
    -4.3492  -4.2145  -4.1664  -4.0681   2.7903   6.0116   6.4206   7.3660
     7.4644   7.8650   8.0401   8.8809   9.4594  10.2445

          k = 0.4286 0.4294 0.1911 (  6862 PWs)   bands (ev):

   -45.1638 -21.8606 -21.8363 -21.8324  -6.0176  -5.8040  -5.7958  -4.4032
    -4.3432  -4.1326  -4.0760  -4.0346   3.0412   5.9629   6.1693   6.2210
     6.6106   7.8840   8.5063   9.2246   9.2435  10.2361

          k = 0.4286 0.4294 0.3822 (  6862 PWs)   bands (ev):

   -45.1634 -21.8865 -21.8351 -21.8312  -5.9287  -5.8843  -5.7096  -4.3526
    -4.3373  -4.0366  -3.9413  -3.9327   3.6096   5.3466   5.4542   5.8839
     6.5292   6.8073   7.1576  10.0477  10.0689  10.2230

     highest occupied level (ev):    10.8154

!    total energy              =    -380.57767521 Ry
     estimated scf accuracy    <          8.5E-09 Ry

     The total energy is the sum of the following terms:
     one-electron contribution =     -79.68798986 Ry
     hartree contribution      =      69.92215622 Ry
     xc contribution           =    -102.67739462 Ry
     ewald contribution        =    -268.13444694 Ry

     convergence has been achieved in  14 iterations

     negative rho (up, down):  1.582E-02 0.000E+00

     Forces acting on atoms (cartesian axes, Ry/au):

     atom    1 type  1   force =     0.00000000    0.00000000    0.00002551
     atom    2 type  2   force =     0.00000000    0.00000000    0.00274097
     atom    3 type  3   force =     0.00000000    0.00000000   -0.00225445
     atom    4 type  3   force =     0.00000000    0.00000000   -0.00004795
     atom    5 type  3   force =     0.00000000    0.00000000   -0.00046408

     Total force =     0.003580     Total SCF correction =     0.000172


     Computing stress (Cartesian axis) and pressure


     negative rho (up, down):  1.582E-02 0.000E+00
          total   stress  (Ry/bohr**3)                   (kbar)     P=        1.32
  -0.00001440   0.00000000   0.00000000           -2.12        0.00        0.00
   0.00000000   0.00001107   0.00000000            0.00        1.63        0.00
   0.00000000   0.00000000   0.00003016            0.00        0.00        4.44


     BFGS Geometry Optimization
     Energy error            =      0.0E+00 Ry
     Gradient error          =      2.7E-03 Ry/Bohr

     number of scf cycles    =   1
     number of bfgs steps    =   0

     energy             new  =    -380.5776752059 Ry

     new trust radius        =       0.0027409681 bohr
     new conv_thr            =       0.0000000100 Ry


ATOMIC_POSITIONS (crystal)
Pb            0.0000000000        0.0000000000        1.0051937476
Ti            0.5000000000        0.5000000000        0.5398711207
O             0.5000000000        0.5000000000        0.0991836743
O             0.5000000000        0.0000000000        0.6115451035
O             0.0000000000        0.5000000000        0.6114906418



     Writing config-only to output data dir ./PTO2.save/
     NEW-OLD atomic charge density approx. for the potential

     Check: negative core charge=   -0.000003

     negative rho (up, down):  1.582E-02 0.000E+00

     total cpu time spent up to now is      887.3 secs

     Self-consistent Calculation

     iteration #  1     ecut=   100.00 Ry     beta= 0.70
     CG style diagonalization
     ethr =  1.00E-06,  avg # of iterations =  2.9

     Threshold (ethr) on eigenvalues was too large:
     Diagonalizing with lowered threshold

     CG style diagonalization
     c_bands:  2 eigenvalues not converged
     c_bands:  1 eigenvalues not converged
     c_bands:  1 eigenvalues not converged
     c_bands:  1 eigenvalues not converged
     c_bands:  1 eigenvalues not converged
     c_bands:  1 eigenvalues not converged
     c_bands:  1 eigenvalues not converged
     c_bands:  1 eigenvalues not converged
     c_bands:  1 eigenvalues not converged
     c_bands:  1 eigenvalues not converged
     c_bands:  1 eigenvalues not converged
     c_bands:  1 eigenvalues not converged
     c_bands:  1 eigenvalues not converged
     c_bands:  1 eigenvalues not converged
     c_bands:  1 eigenvalues not converged
     c_bands:  1 eigenvalues not converged
     c_bands:  1 eigenvalues not converged
     ethr =  1.23E-08,  avg # of iterations =  6.5

     negative rho (up, down):  1.582E-02 0.000E+00

     total cpu time spent up to now is     1018.1 secs

     total energy              =    -380.57768247 Ry
     estimated scf accuracy    <       0.00000462 Ry

     iteration #  2     ecut=   100.00 Ry     beta= 0.70
     CG style diagonalization
     ethr =  1.05E-08,  avg # of iterations =  4.5

     negative rho (up, down):  1.582E-02 0.000E+00

     total cpu time spent up to now is     1076.1 secs

     total energy              =    -380.57768251 Ry
     estimated scf accuracy    <       0.00000780 Ry

     iteration #  3     ecut=   100.00 Ry     beta= 0.70
     CG style diagonalization
     ethr =  1.05E-08,  avg # of iterations =  4.2

     negative rho (up, down):  1.582E-02 0.000E+00

     total cpu time spent up to now is     1129.9 secs

     total energy              =    -380.57768421 Ry
     estimated scf accuracy    <       0.00000116 Ry

     iteration #  4     ecut=   100.00 Ry     beta= 0.70
     CG style diagonalization
     ethr =  2.64E-09,  avg # of iterations =  3.6

     negative rho (up, down):  1.582E-02 0.000E+00

     total cpu time spent up to now is     1176.0 secs

     total energy              =    -380.57768441 Ry
     estimated scf accuracy    <       0.00000008 Ry

     iteration #  5     ecut=   100.00 Ry     beta= 0.70
     CG style diagonalization
     ethr =  1.83E-10,  avg # of iterations =  4.1

     negative rho (up, down):  1.582E-02 0.000E+00

     total cpu time spent up to now is     1228.8 secs

     End of self-consistent calculation

          k = 0.0000 0.0000 0.0000 (  6861 PWs)   bands (ev):

   -45.1732 -21.8538 -21.7707 -21.7687  -7.1639  -6.0125  -5.7581  -4.4139
    -4.4132  -4.3746  -4.2595  -4.1385   4.8481   6.7211   6.7367   7.1158
     8.7195   8.7229   8.9585   9.2966   9.4342   9.4377

          k = 0.0000 0.0000 0.1911 (  6864 PWs)   bands (ev):

   -45.1730 -21.8705 -21.7701 -21.7680  -7.0203  -5.9698  -5.7077  -4.4264
    -4.4258  -4.3735  -4.2500  -4.1917   4.1985   6.7636   6.7772   7.4169
     8.5239   8.5299   8.8991   9.1813   9.5258   9.5278

          k = 0.0000 0.0000 0.3822 (  6864 PWs)   bands (ev):

   -45.1726 -21.8972 -21.7690 -21.7670  -6.7710  -5.8949  -5.6315  -4.4465
    -4.4460  -4.3718  -4.2839  -4.2361   3.5316   6.7348   6.8128   6.8221
     8.3163   8.3283   8.8071   9.6197   9.6204  10.3376

          k = 0.0000 0.1431 0.0000 (  6875 PWs)   bands (ev):

   -45.1729 -21.8532 -21.7861 -21.7681  -7.0551  -5.9866  -5.7350  -4.4321
    -4.4127  -4.3858  -4.2614  -4.1293   4.4599   6.7943   6.8034   7.1823
     8.6466   8.7351   8.9643   9.1468   9.1845   9.5527

          k = 0.0000 0.1431 0.1911 (  6878 PWs)   bands (ev):

   -45.1727 -21.8698 -21.7854 -21.7674  -6.9190  -5.9526  -5.6826  -4.4349
    -4.4255  -4.3850  -4.2550  -4.1630   3.9820   6.6634   6.8519   7.4639
     8.2765   8.5143   8.8910   9.0884   9.2662   9.7393

          k = 0.0000 0.1431 0.3822 (  6885 PWs)   bands (ev):

   -45.1723 -21.8963 -21.7842 -21.7663  -6.6890  -5.8928  -5.5965  -4.4461
    -4.4368  -4.3838  -4.2543  -4.2145   3.4134   6.3982   6.9072   7.0727
     8.0206   8.3096   8.9726   9.1298   9.3665  10.4431

          k = 0.0000 0.2863 0.0000 (  6855 PWs)   bands (ev):

   -45.1723 -21.8518 -21.8203 -21.7666  -6.7945  -5.9266  -5.6913  -4.4656
    -4.4113  -4.4094  -4.2598  -4.1273   3.8709   6.6270   7.0230   7.0377
     8.5193   8.5220   8.8464   8.8518   9.2661   9.9052

          k = 0.0000 0.2863 0.1911 (  6870 PWs)   bands (ev):

   -45.1720 -21.8681 -21.8195 -21.7659  -6.6872  -5.9028  -5.6299  -4.4472
    -4.4236  -4.4106  -4.2529  -4.1236   3.5802   6.4755   7.0889   7.1112
     8.0747   8.3461   8.5238   8.9294   9.2668  10.1451

          k = 0.0000 0.2863 0.3822 (  6890 PWs)   bands (ev):

   -45.1716 -21.8943 -21.8181 -21.7648  -6.5337  -5.8457  -5.5090  -4.4453
    -4.4108  -4.4107  -4.2753  -4.0961   3.1734   6.1300   6.9393   7.1565
     7.7296   8.0247   8.2061   8.9922   9.6641  10.2536

          k = 0.0000 0.4294 0.0000 (  6840 PWs)   bands (ev):

   -45.1717 -21.8509 -21.8473 -21.7655  -6.5639  -5.8617  -5.6838  -4.4880
    -4.4306  -4.4077  -4.2356  -4.1576   3.5447   6.1240   7.2888   7.2945
     7.9723   8.0559   8.7414   8.8912   9.3216  10.8179

          k = 0.0000 0.4294 0.1911 (  6841 PWs)   bands (ev):

   -45.1715 -21.8666 -21.8468 -21.7647  -6.5057  -5.8177  -5.6158  -4.4624
    -4.4311  -4.4218  -4.2130  -4.1296   3.3310   6.1032   7.1245   7.4049
     7.4863   7.9427   8.6555   8.8841   9.2549  10.5722

          k = 0.0000 0.4294 0.3822 (  6875 PWs)   bands (ev):

   -45.1711 -21.8925 -21.8452 -21.7636  -6.4566  -5.7306  -5.4458  -4.4445
    -4.4320  -4.4143  -4.2614  -4.0194   3.0154   5.9372   6.5719   7.3743
     7.4893   7.8905   7.8995   8.8773   9.8313  10.1280

          k = 0.1429 0.0000 0.0000 (  6879 PWs)   bands (ev):

   -45.1729 -21.8532 -21.7837 -21.7701  -7.0566  -5.9872  -5.7353  -4.4327
    -4.4121  -4.3856  -4.2615  -4.1298   4.4590   6.7857   6.8187   7.1836
     8.6424   8.7394   8.9628   9.1450   9.1860   9.5529

          k = 0.1429 0.0000 0.1911 (  6880 PWs)   bands (ev):

   -45.1727 -21.8698 -21.7830 -21.7694  -6.9205  -5.9529  -5.6828  -4.4354
    -4.4249  -4.3848  -4.2545  -4.1644   3.9808   6.6552   6.8652   7.4661
     8.2772   8.5204   8.8900   9.0838   9.2668   9.7383

          k = 0.1429 0.0000 0.3822 (  6882 PWs)   bands (ev):

   -45.1723 -21.8963 -21.7818 -21.7683  -6.6909  -5.8924  -5.5966  -4.4456
    -4.4371  -4.3837  -4.2529  -4.2176   3.4118   6.3928   6.9159   7.0744
     8.0165   8.3215   8.9752   9.1232   9.3687  10.4438

          k = 0.1429 0.1431 0.0000 (  6865 PWs)   bands (ev):

   -45.1726 -21.8526 -21.7854 -21.7830  -6.9492  -5.9605  -5.7243  -4.4365
    -4.4262  -4.3922  -4.2463  -4.1211   4.1797   6.7293   6.9257   7.2473
     8.2949   8.5062   9.0021   9.0494   9.3978   9.6971

          k = 0.1429 0.1431 0.1911 (  6873 PWs)   bands (ev):

   -45.1724 -21.8691 -21.7847 -21.7823  -6.8186  -5.9361  -5.6722  -4.4409
    -4.4268  -4.3908  -4.2384  -4.1409   3.8348   6.6202   6.6959   7.4788
     8.1541   8.2740   8.8213   9.1591   9.4297   9.7544

          k = 0.1429 0.1431 0.3822 (  6873 PWs)   bands (ev):

   -45.1720 -21.8955 -21.7835 -21.7811  -6.6035  -5.8954  -5.5801  -4.4603
    -4.4010  -4.3861  -4.2367  -4.1788   3.3597   6.4324   6.4436   7.1514
     8.0603   8.0774   8.7369   9.2323   9.4696  10.3146

          k = 0.1429 0.2863 0.0000 (  6858 PWs)   bands (ev):

   -45.1720 -21.8512 -21.8195 -21.7815  -6.6931  -5.9005  -5.7084  -4.4653
    -4.4201  -4.3899  -4.2279  -4.1192   3.6900   6.5896   6.9991   7.1503
     7.9248   8.2963   8.7532   9.1471   9.3771  10.0990

          k = 0.1429 0.2863 0.1911 (  6863 PWs)   bands (ev):

   -45.1717 -21.8674 -21.8188 -21.7808  -6.5858  -5.8911  -5.6530  -4.4492
    -4.4266  -4.3798  -4.2150  -4.1057   3.5238   6.4366   6.5902   7.1863
     7.7005   8.1988   8.8401   9.1217   9.3708  10.0657

          k = 0.1429 0.2863 0.3822 (  6871 PWs)   bands (ev):

   -45.1714 -21.8935 -21.8174 -21.7796  -6.4354  -5.8655  -5.5356  -4.4486
    -4.4077  -4.3464  -4.2232  -4.0746   3.2314   6.0725   6.4884   6.8267
     7.2672   8.0096   8.8694   9.1612   9.6778   9.9619

          k = 0.1429 0.4294 0.0000 (  6854 PWs)   bands (ev):

   -45.1714 -21.8502 -21.8465 -21.7802  -6.4682  -5.8385  -5.7220  -4.4760
    -4.4111  -4.3763  -4.2090  -4.1495   3.3923   6.1361   7.0753   7.4775
     7.5167   8.1108   8.4964   9.1365   9.4193  10.6274

          k = 0.1429 0.4294 0.1911 (  6857 PWs)   bands (ev):

   -45.1712 -21.8659 -21.8460 -21.7795  -6.4039  -5.8149  -5.6654  -4.4536
    -4.4148  -4.3636  -4.1829  -4.1102   3.3086   6.1070   6.5108   6.9943
     7.5550   8.3321   8.4977   9.1334   9.3880  10.2473

          k = 0.1429 0.4294 0.3822 (  6858 PWs)   bands (ev):

   -45.1708 -21.8918 -21.8445 -21.7783  -6.3545  -5.7652  -5.5084  -4.4430
    -4.3847  -4.3388  -4.2049  -4.0001   3.1339   5.9042   6.3176   6.5210
     6.8860   8.1492   8.8186   8.9998   9.4264  10.0544

          k = 0.2857 0.0000 0.0000 (  6861 PWs)   bands (ev):

   -45.1723 -21.8519 -21.8172 -21.7687  -6.7992  -5.9285  -5.6923  -4.4661
    -4.4107  -4.4088  -4.2606  -4.1284   3.8706   6.6323   7.0383   7.0389
     8.5174   8.5262   8.8445   8.8503   9.2666   9.9035

          k = 0.2857 0.0000 0.1911 (  6865 PWs)   bands (ev):

   -45.1721 -21.8681 -21.8164 -21.7680  -6.6922  -5.9039  -5.6308  -4.4479
    -4.4230  -4.4100  -4.2524  -4.1267   3.5779   6.4767   7.1019   7.1161
     8.0759   8.3522   8.5278   8.9327   9.2623  10.1404

          k = 0.2857 0.0000 0.3822 (  6884 PWs)   bands (ev):

   -45.1717 -21.8944 -21.8150 -21.7669  -6.5391  -5.8453  -5.5097  -4.4448
    -4.4114  -4.4100  -4.2745  -4.1011   3.1688   6.1276   6.9440   7.1640
     7.7376   8.0293   8.2177   8.9982   9.6541  10.2599

          k = 0.2857 0.1431 0.0000 (  6853 PWs)   bands (ev):

   -45.1720 -21.8512 -21.8164 -21.7839  -6.6964  -5.9019  -5.7092  -4.4654
    -4.4200  -4.3898  -4.2283  -4.1199   3.6902   6.5958   7.0047   7.1534
     7.9224   8.2961   8.7512   9.1533   9.3770  10.0963

          k = 0.2857 0.1431 0.1911 (  6867 PWs)   bands (ev):

   -45.1718 -21.8674 -21.8156 -21.7832  -6.5892  -5.8919  -5.6536  -4.4494
    -4.4265  -4.3797  -4.2144  -4.1079   3.5225   6.4384   6.5964   7.1884
     7.7000   8.2044   8.8467   9.1241   9.3691  10.0613

          k = 0.2857 0.1431 0.3822 (  6873 PWs)   bands (ev):

   -45.1714 -21.8936 -21.8143 -21.7820  -6.4390  -5.8653  -5.5362  -4.4487
    -4.4076  -4.3462  -4.2218  -4.0788   3.2281   6.0704   6.4938   6.8282
     7.2732   8.0148   8.8765   9.1693   9.6690   9.9662

          k = 0.2857 0.2863 0.0000 (  6863 PWs)   bands (ev):

   -45.1713 -21.8498 -21.8178 -21.8146  -6.4598  -5.8427  -5.7447  -4.4563
    -4.4157  -4.3466  -4.1693  -4.1166   3.3175   6.5824   6.6896   7.3609
     7.5181   7.8137   8.5805   9.1409   9.6678  10.1721

          k = 0.2857 0.2863 0.1911 (  6860 PWs)   bands (ev):

   -45.1711 -21.8658 -21.8171 -21.8139  -6.3555  -5.8619  -5.7039  -4.4301
    -4.4164  -4.3193  -4.1432  -4.0785   3.3541   6.2732   6.2931   6.7430
     7.4168   7.8055   9.0676   9.2629   9.6958   9.7983

          k = 0.2857 0.2863 0.3822 (  6874 PWs)   bands (ev):

   -45.1707 -21.8918 -21.8159 -21.8126  -6.2267  -5.8921  -5.5855  -4.4130
    -4.3885  -4.2610  -4.1082  -4.0216   3.3448   5.7952   5.9309   6.4165
     7.0736   7.2810   8.9760   9.5999   9.6442   9.8644

          k = 0.2857 0.4294 0.0000 (  6878 PWs)   bands (ev):

   -45.1708 -21.8487 -21.8446 -21.8132  -6.2680  -5.7923  -5.7703  -4.4490
    -4.3942  -4.2842  -4.1491  -4.1290   3.0531   6.1508   6.7124   7.1963
     7.6557   7.8835   8.1209   9.1481   9.7791  10.1019

          k = 0.2857 0.4294 0.1911 (  6855 PWs)   bands (ev):

   -45.1706 -21.8643 -21.8442 -21.8125  -6.1758  -5.8130  -5.7543  -4.4203
    -4.3877  -4.2385  -4.1140  -4.0678   3.1933   6.0655   6.1823   6.3931
     7.1596   7.9185   8.8613   9.3090   9.5085   9.8661

          k = 0.2857 0.4294 0.3822 (  6856 PWs)   bands (ev):

   -45.1702 -21.8901 -21.8429 -21.8113  -6.1200  -5.8378  -5.6248  -4.3916
    -4.3567  -4.1764  -4.0591  -3.9553   3.4151   5.5446   5.6906   6.0960
     6.7031   7.2659   8.2073   9.7190   9.7998  10.0647

          k = 0.4286 0.0000 0.0000 (  6832 PWs)   bands (ev):

   -45.1718 -21.8506 -21.8439 -21.7676  -6.5715  -5.8652  -5.6850  -4.4886
    -4.4296  -4.4072  -4.2382  -4.1579   3.5451   6.1373   7.2915   7.3117
     7.9676   8.0604   8.7417   8.8909   9.3220  10.8109

          k = 0.4286 0.0000 0.1911 (  6852 PWs)   bands (ev):

   -45.1715 -21.8666 -21.8431 -21.7668  -6.5131  -5.8206  -5.6167  -4.4631
    -4.4302  -4.4213  -4.2131  -4.1339   3.3281   6.1151   7.1268   7.4203
     7.4891   7.9468   8.6585   8.8878   9.2537  10.5688

          k = 0.4286 0.0000 0.3822 (  6863 PWs)   bands (ev):

   -45.1712 -21.8926 -21.8415 -21.7657  -6.4630  -5.7325  -5.4468  -4.4441
    -4.4310  -4.4150  -4.2615  -4.0260   3.0084   5.9408   6.5797   7.3826
     7.4944   7.9033   7.9053   8.8848   9.8379  10.1267

          k = 0.4286 0.1431 0.0000 (  6855 PWs)   bands (ev):

   -45.1715 -21.8500 -21.8430 -21.7827  -6.4740  -5.8417  -5.7230  -4.4762
    -4.4110  -4.3760  -4.2110  -4.1495   3.3931   6.1500   7.0811   7.4831
     7.5137   8.1094   8.4968   9.1434   9.4211  10.6198

          k = 0.4286 0.1431 0.1911 (  6860 PWs)   bands (ev):

   -45.1712 -21.8659 -21.8422 -21.7820  -6.4095  -5.8176  -5.6660  -4.4539
    -4.4148  -4.3632  -4.1822  -4.1140   3.3067   6.1193   6.5172   6.9910
     7.5544   8.3414   8.5068   9.1364   9.3883  10.2442

          k = 0.4286 0.1431 0.3822 (  6861 PWs)   bands (ev):

   -45.1709 -21.8919 -21.8407 -21.7808  -6.3590  -5.7676  -5.5091  -4.4432
    -4.3849  -4.3385  -4.2035  -4.0063   3.1279   5.9064   6.3245   6.5291
     6.8869   8.1532   8.8364   9.0069   9.4326  10.0493

          k = 0.4286 0.2863 0.0000 (  6888 PWs)   bands (ev):

   -45.1708 -21.8485 -21.8411 -21.8164  -6.2699  -5.7934  -5.7716  -4.4489
    -4.3943  -4.2853  -4.1473  -4.1306   3.0538   6.1655   6.7019   7.1973
     7.6602   7.8832   8.1196   9.1491   9.7949  10.0877

          k = 0.4286 0.2863 0.1911 (  6854 PWs)   bands (ev):

   -45.1706 -21.8643 -21.8404 -21.8158  -6.1775  -5.8148  -5.7548  -4.4201
    -4.3881  -4.2392  -4.1116  -4.0709   3.1930   6.0762   6.1857   6.3865
     7.1574   7.9187   8.8720   9.3091   9.5075   9.8675

          k = 0.4286 0.2863 0.3822 (  6858 PWs)   bands (ev):

   -45.1702 -21.8902 -21.8390 -21.8146  -6.1203  -5.8408  -5.6250  -4.3913
    -4.3575  -4.1767  -4.0555  -3.9606   3.4122   5.5482   5.6865   6.1026
     6.7093   7.2613   8.2151   9.7256   9.8064  10.0603

          k = 0.4286 0.4294 0.0000 (  6871 PWs)   bands (ev):

   -45.1703 -21.8473 -21.8432 -21.8395  -6.1544  -5.7560  -5.7488  -4.4339
    -4.3483  -4.2141  -4.1661  -4.0664   2.7895   6.0087   6.4144   7.3717
     7.4715   7.8627   8.0365   8.8809   9.4584  10.2424

          k = 0.4286 0.4294 0.1911 (  6862 PWs)   bands (ev):

   -45.1701 -21.8629 -21.8428 -21.8389  -6.0158  -5.8052  -5.7963  -4.4026
    -4.3422  -4.1320  -4.0758  -4.0331   3.0404   5.9606   6.1687   6.2221
     6.6067   7.8840   8.5053   9.2267   9.2462  10.2340

          k = 0.4286 0.4294 0.3822 (  6862 PWs)   bands (ev):

   -45.1697 -21.8887 -21.8416 -21.8377  -5.9299  -5.8855  -5.7072  -4.3520
    -4.3364  -4.0348  -3.9407  -3.9326   3.6085   5.3471   5.4554   5.8817
     6.5228   6.8066   7.1579  10.0515  10.0721  10.2210

     highest occupied level (ev):    10.8179

!    total energy              =    -380.57768446 Ry
     estimated scf accuracy    <          6.6E-09 Ry

     The total energy is the sum of the following terms:
     one-electron contribution =     -79.67215253 Ry
     hartree contribution      =      69.91285686 Ry
     xc contribution           =    -102.67618798 Ry
     ewald contribution        =    -268.14220081 Ry

     convergence has been achieved in   5 iterations

     negative rho (up, down):  1.582E-02 0.000E+00

     Forces acting on atoms (cartesian axes, Ry/au):

     atom    1 type  1   force =     0.00000000    0.00000000    0.00032945
     atom    2 type  2   force =     0.00000000    0.00000000    0.00101093
     atom    3 type  3   force =     0.00000000    0.00000000   -0.00070006
     atom    4 type  3   force =     0.00000000    0.00000000   -0.00013352
     atom    5 type  3   force =     0.00000000    0.00000000   -0.00050681

     Total force =     0.001377     Total SCF correction =     0.000165
     SCF correction compared to forces is large: reduce conv_thr to get better values


     Computing stress (Cartesian axis) and pressure


     negative rho (up, down):  1.582E-02 0.000E+00
          total   stress  (Ry/bohr**3)                   (kbar)     P=        0.85
  -0.00001270   0.00000000   0.00000000           -1.87        0.00        0.00
   0.00000000   0.00001250   0.00000000            0.00        1.84        0.00
   0.00000000   0.00000000   0.00001760            0.00        0.00        2.59


     BFGS Geometry Optimization
     Energy error            =      0.0E+00 Ry
     Gradient error          =      1.0E-03 Ry/Bohr

     number of scf cycles    =   1
     number of bfgs steps    =   0

     energy             new  =    -380.5776844557 Ry

     new trust radius        =       0.0010109330 bohr
     new conv_thr            =       0.0000000100 Ry


ATOMIC_POSITIONS (crystal)
Pb            0.0000000000        0.0000000000        1.0052368656
Ti            0.5000000000        0.5000000000        0.5400034291
O             0.5000000000        0.5000000000        0.0990920524
O             0.5000000000        0.0000000000        0.6115276284
O             0.0000000000        0.5000000000        0.6114243124



     Writing config-only to output data dir ./PTO2.save/
     NEW-OLD atomic charge density approx. for the potential

     Check: negative core charge=   -0.000003

     negative rho (up, down):  1.581E-02 0.000E+00

     total cpu time spent up to now is     1256.2 secs

     Self-consistent Calculation

     iteration #  1     ecut=   100.00 Ry     beta= 0.70
     CG style diagonalization
     ethr =  1.00E-06,  avg # of iterations =  2.3

     Threshold (ethr) on eigenvalues was too large:
     Diagonalizing with lowered threshold

     CG style diagonalization
     c_bands:  2 eigenvalues not converged
     c_bands:  1 eigenvalues not converged
     c_bands:  1 eigenvalues not converged
     c_bands:  1 eigenvalues not converged
     c_bands:  3 eigenvalues not converged
     c_bands:  2 eigenvalues not converged
     c_bands:  1 eigenvalues not converged
     c_bands:  3 eigenvalues not converged
     c_bands:  1 eigenvalues not converged
     c_bands:  2 eigenvalues not converged
     c_bands:  2 eigenvalues not converged
     c_bands:  1 eigenvalues not converged
     c_bands:  1 eigenvalues not converged
     c_bands:  1 eigenvalues not converged
     c_bands:  2 eigenvalues not converged
     c_bands:  1 eigenvalues not converged
     c_bands:  2 eigenvalues not converged
     c_bands:  1 eigenvalues not converged
     c_bands:  1 eigenvalues not converged
     c_bands:  4 eigenvalues not converged
     c_bands:  1 eigenvalues not converged
     c_bands:  1 eigenvalues not converged
     c_bands:  1 eigenvalues not converged
     c_bands:  2 eigenvalues not converged
     c_bands:  1 eigenvalues not converged
     c_bands:  1 eigenvalues not converged
     c_bands:  2 eigenvalues not converged
     c_bands:  4 eigenvalues not converged
     c_bands:  3 eigenvalues not converged
     c_bands:  1 eigenvalues not converged
     c_bands:  2 eigenvalues not converged
     c_bands:  4 eigenvalues not converged
     ethr =  9.95E-10,  avg # of iterations =  9.0

     negative rho (up, down):  1.581E-02 0.000E+00

     total cpu time spent up to now is     1409.9 secs

     total energy              =    -380.57768571 Ry
     estimated scf accuracy    <       0.00000064 Ry

     iteration #  2     ecut=   100.00 Ry     beta= 0.70
     CG style diagonalization
     ethr =  1.45E-09,  avg # of iterations =  4.7

     negative rho (up, down):  1.581E-02 0.000E+00

     total cpu time spent up to now is     1470.7 secs

     total energy              =    -380.57768570 Ry
     estimated scf accuracy    <       0.00000139 Ry

     iteration #  3     ecut=   100.00 Ry     beta= 0.70
     CG style diagonalization
     ethr =  1.45E-09,  avg # of iterations =  4.3

     negative rho (up, down):  1.581E-02 0.000E+00

     total cpu time spent up to now is     1526.0 secs

     total energy              =    -380.57768599 Ry
     estimated scf accuracy    <       0.00000009 Ry

     iteration #  4     ecut=   100.00 Ry     beta= 0.70
     CG style diagonalization
     ethr =  2.07E-10,  avg # of iterations =  3.8

     negative rho (up, down):  1.581E-02 0.000E+00

     total cpu time spent up to now is     1574.6 secs

     total energy              =    -380.57768601 Ry
     estimated scf accuracy    <       0.00000001 Ry

     iteration #  5     ecut=   100.00 Ry     beta= 0.70
     CG style diagonalization
     ethr =  2.34E-11,  avg # of iterations =  4.7

     negative rho (up, down):  1.581E-02 0.000E+00

     total cpu time spent up to now is     1633.8 secs

     End of self-consistent calculation

          k = 0.0000 0.0000 0.0000 (  6861 PWs)   bands (ev):

   -45.1746 -21.8540 -21.7722 -21.7702  -7.1639  -6.0131  -5.7575  -4.4140
    -4.4133  -4.3746  -4.2593  -4.1390   4.8482   6.7213   6.7368   7.1144
     8.7239   8.7272   8.9587   9.3000   9.4338   9.4375

          k = 0.0000 0.0000 0.1911 (  6864 PWs)   bands (ev):

   -45.1744 -21.8706 -21.7716 -21.7696  -7.0205  -5.9704  -5.7070  -4.4265
    -4.4259  -4.3736  -4.2499  -4.1922   4.1989   6.7644   6.7779   7.4161
     8.5269   8.5328   8.8993   9.1829   9.5256   9.5276

          k = 0.0000 0.0000 0.3822 (  6864 PWs)   bands (ev):

   -45.1740 -21.8973 -21.7705 -21.7685  -6.7715  -5.8954  -5.6305  -4.4466
    -4.4461  -4.3718  -4.2844  -4.2360   3.5326   6.7343   6.8148   6.8239
     8.3172   8.3292   8.8073   9.6195   9.6201  10.3373

          k = 0.0000 0.1431 0.0000 (  6875 PWs)   bands (ev):

   -45.1743 -21.8533 -21.7876 -21.7696  -7.0552  -5.9871  -5.7343  -4.4322
    -4.4128  -4.3858  -4.2614  -4.1298   4.4600   6.7941   6.8034   7.1819
     8.6487   8.7394   8.9651   9.1468   9.1858   9.5542

          k = 0.0000 0.1431 0.1911 (  6878 PWs)   bands (ev):

   -45.1741 -21.8699 -21.7869 -21.7689  -6.9191  -5.9531  -5.6818  -4.4350
    -4.4256  -4.3851  -4.2550  -4.1635   3.9824   6.6639   6.8526   7.4635
     8.2780   8.5172   8.8915   9.0895   9.2661   9.7395

          k = 0.0000 0.1431 0.3822 (  6885 PWs)   bands (ev):

   -45.1737 -21.8964 -21.7857 -21.7678  -6.6895  -5.8933  -5.5954  -4.4462
    -4.4369  -4.3839  -4.2543  -4.2149   3.4142   6.3995   6.9092   7.0724
     8.0210   8.3104   8.9722   9.1309   9.3662  10.4425

          k = 0.0000 0.2863 0.0000 (  6855 PWs)   bands (ev):

   -45.1737 -21.8520 -21.8218 -21.7682  -6.7945  -5.9269  -5.6905  -4.4656
    -4.4113  -4.4095  -4.2600  -4.1278   3.8710   6.6268   7.0229   7.0375
     8.5193   8.5222   8.8464   8.8563   9.2683   9.9062

          k = 0.0000 0.2863 0.1911 (  6870 PWs)   bands (ev):

   -45.1734 -21.8682 -21.8210 -21.7675  -6.6873  -5.9032  -5.6290  -4.4473
    -4.4237  -4.4107  -4.2529  -4.1241   3.5804   6.4756   7.0893   7.1112
     8.0745   8.3477   8.5244   8.9310   9.2678  10.1454

          k = 0.0000 0.2863 0.3822 (  6890 PWs)   bands (ev):

   -45.1730 -21.8944 -21.8197 -21.7663  -6.5342  -5.8461  -5.5078  -4.4454
    -4.4109  -4.4107  -4.2753  -4.0966   3.1738   6.1315   6.9383   7.1583
     7.7296   8.0242   8.2069   8.9921   9.6660  10.2528

          k = 0.0000 0.4294 0.0000 (  6840 PWs)   bands (ev):

   -45.1731 -21.8513 -21.8485 -21.7670  -6.5639  -5.8619  -5.6829  -4.4881
    -4.4306  -4.4078  -4.2360  -4.1579   3.5448   6.1229   7.2890   7.2939
     7.9719   8.0560   8.7416   8.8962   9.3240  10.8186

          k = 0.0000 0.4294 0.1911 (  6841 PWs)   bands (ev):

   -45.1729 -21.8667 -21.8483 -21.7663  -6.5059  -5.8179  -5.6147  -4.4626
    -4.4312  -4.4219  -4.2132  -4.1301   3.3312   6.1023   7.1247   7.4047
     7.4864   7.9439   8.6561   8.8869   9.2553  10.5729

          k = 0.0000 0.4294 0.3822 (  6875 PWs)   bands (ev):

   -45.1725 -21.8926 -21.8468 -21.7651  -6.4571  -5.7307  -5.4444  -4.4447
    -4.4320  -4.4144  -4.2616  -4.0200   3.0155   5.9378   6.5715   7.3744
     7.4911   7.8908   7.8988   8.8778   9.8314  10.1292

          k = 0.1429 0.0000 0.0000 (  6879 PWs)   bands (ev):

   -45.1743 -21.8533 -21.7853 -21.7716  -7.0566  -5.9877  -5.7346  -4.4328
    -4.4122  -4.3856  -4.2614  -4.1303   4.4590   6.7855   6.8188   7.1833
     8.6447   8.7437   8.9637   9.1447   9.1872   9.5542

          k = 0.1429 0.0000 0.1911 (  6880 PWs)   bands (ev):

   -45.1741 -21.8699 -21.7845 -21.7709  -6.9207  -5.9534  -5.6820  -4.4355
    -4.4250  -4.3849  -4.2544  -4.1649   3.9811   6.6558   6.8657   7.4658
     8.2787   8.5231   8.8903   9.0850   9.2667   9.7384

          k = 0.1429 0.0000 0.3822 (  6882 PWs)   bands (ev):

   -45.1737 -21.8964 -21.7834 -21.7698  -6.6914  -5.8928  -5.5956  -4.4457
    -4.4373  -4.3837  -4.2528  -4.2180   3.4125   6.3941   6.9177   7.0742
     8.0168   8.3224   8.9747   9.1244   9.3684  10.4431

          k = 0.1429 0.1431 0.0000 (  6865 PWs)   bands (ev):

   -45.1740 -21.8527 -21.7869 -21.7846  -6.9491  -5.9610  -5.7237  -4.4366
    -4.4262  -4.3923  -4.2463  -4.1216   4.1797   6.7292   6.9253   7.2477
     8.2979   8.5064   9.0045   9.0499   9.3969   9.6997

          k = 0.1429 0.1431 0.1911 (  6873 PWs)   bands (ev):

   -45.1738 -21.8692 -21.7862 -21.7838  -6.8188  -5.9366  -5.6714  -4.4410
    -4.4269  -4.3909  -4.2383  -4.1414   3.8351   6.6209   6.6962   7.4792
     8.1553   8.2744   8.8236   9.1599   9.4292   9.7548

          k = 0.1429 0.1431 0.3822 (  6873 PWs)   bands (ev):

   -45.1734 -21.8956 -21.7850 -21.7827  -6.6039  -5.8958  -5.5790  -4.4604
    -4.4011  -4.3862  -4.2366  -4.1793   3.3603   6.4340   6.4447   7.1508
     8.0598   8.0786   8.7377   9.2331   9.4694  10.3138

          k = 0.1429 0.2863 0.0000 (  6858 PWs)   bands (ev):

   -45.1734 -21.8513 -21.8210 -21.7830  -6.6930  -5.9009  -5.7077  -4.4654
    -4.4202  -4.3900  -4.2280  -4.1197   3.6900   6.5891   6.9997   7.1497
     7.9251   8.2991   8.7529   9.1481   9.3776  10.1007

          k = 0.1429 0.2863 0.1911 (  6863 PWs)   bands (ev):

   -45.1731 -21.8675 -21.8203 -21.7823  -6.5859  -5.8914  -5.6521  -4.4493
    -4.4267  -4.3799  -4.2151  -4.1062   3.5240   6.4368   6.5904   7.1864
     7.7011   8.1989   8.8410   9.1226   9.3716  10.0660

          k = 0.1429 0.2863 0.3822 (  6871 PWs)   bands (ev):

   -45.1728 -21.8937 -21.8190 -21.7811  -6.4358  -5.8658  -5.5345  -4.4486
    -4.4078  -4.3465  -4.2233  -4.0751   3.2318   6.0738   6.4891   6.8262
     7.2668   8.0092   8.8713   9.1607   9.6794   9.9611

          k = 0.1429 0.4294 0.0000 (  6854 PWs)   bands (ev):

   -45.1729 -21.8506 -21.8477 -21.7818  -6.4680  -5.8387  -5.7213  -4.4761
    -4.4112  -4.3763  -4.2094  -4.1498   3.3924   6.1350   7.0761   7.4765
     7.5169   8.1100   8.5005   9.1368   9.4206  10.6279

          k = 0.1429 0.4294 0.1911 (  6857 PWs)   bands (ev):

   -45.1726 -21.8660 -21.8475 -21.7811  -6.4040  -5.8151  -5.6644  -4.4537
    -4.4149  -4.3635  -4.1831  -4.1107   3.3088   6.1061   6.5109   6.9948
     7.5555   8.3322   8.4978   9.1355   9.3884  10.2479

          k = 0.1429 0.4294 0.3822 (  6858 PWs)   bands (ev):

   -45.1722 -21.8919 -21.8460 -21.7799  -6.3550  -5.7654  -5.5072  -4.4431
    -4.3849  -4.3387  -4.2051  -4.0006   3.1340   5.9049   6.3174   6.5206
     6.8866   8.1483   8.8183   9.0016   9.4260  10.0559

          k = 0.2857 0.0000 0.0000 (  6861 PWs)   bands (ev):

   -45.1737 -21.8520 -21.8187 -21.7702  -6.7992  -5.9287  -5.6915  -4.4662
    -4.4107  -4.4089  -4.2607  -4.1288   3.8706   6.6321   7.0381   7.0386
     8.5171   8.5260   8.8449   8.8545   9.2687   9.9044

          k = 0.2857 0.0000 0.1911 (  6865 PWs)   bands (ev):

   -45.1735 -21.8683 -21.8179 -21.7695  -6.6924  -5.9041  -5.6299  -4.4480
    -4.4232  -4.4100  -4.2525  -4.1271   3.5779   6.4769   7.1023   7.1161
     8.0755   8.3535   8.5283   8.9343   9.2634  10.1406

          k = 0.2857 0.0000 0.3822 (  6884 PWs)   bands (ev):

   -45.1731 -21.8945 -21.8165 -21.7684  -6.5396  -5.8454  -5.5086  -4.4449
    -4.4116  -4.4101  -4.2746  -4.1015   3.1690   6.1291   6.9428   7.1655
     7.7378   8.0286   8.2183   8.9984   9.6560  10.2589

          k = 0.2857 0.1431 0.0000 (  6853 PWs)   bands (ev):

   -45.1734 -21.8513 -21.8179 -21.7854  -6.6963  -5.9022  -5.7084  -4.4655
    -4.4201  -4.3898  -4.2283  -4.1203   3.6901   6.5953   7.0053   7.1527
     7.9226   8.2990   8.7506   9.1543   9.3776  10.0980

          k = 0.2857 0.1431 0.1911 (  6867 PWs)   bands (ev):

   -45.1732 -21.8676 -21.8172 -21.7847  -6.5893  -5.8921  -5.6528  -4.4495
    -4.4266  -4.3797  -4.2145  -4.1084   3.5225   6.4386   6.5966   7.1885
     7.7003   8.2047   8.8476   9.1249   9.3699  10.0616

          k = 0.2857 0.1431 0.3822 (  6873 PWs)   bands (ev):

   -45.1728 -21.8937 -21.8158 -21.7835  -6.4394  -5.8655  -5.5350  -4.4488
    -4.4077  -4.3463  -4.2219  -4.0793   3.2283   6.0718   6.4944   6.8276
     7.2725   8.0144   8.8784   9.1687   9.6707   9.9654

          k = 0.2857 0.2863 0.0000 (  6863 PWs)   bands (ev):

   -45.1727 -21.8499 -21.8193 -21.8162  -6.4594  -5.8430  -5.7441  -4.4564
    -4.4158  -4.3467  -4.1693  -4.1171   3.3175   6.5814   6.6897   7.3601
     7.5193   7.8167   8.5785   9.1416   9.6677  10.1733

          k = 0.2857 0.2863 0.1911 (  6860 PWs)   bands (ev):

   -45.1725 -21.8659 -21.8186 -21.8154  -6.3554  -5.8621  -5.7031  -4.4303
    -4.4164  -4.3194  -4.1432  -4.0790   3.3541   6.2734   6.2934   6.7428
     7.4163   7.8056   9.0685   9.2631   9.6959   9.7991

          k = 0.2857 0.2863 0.3822 (  6874 PWs)   bands (ev):

   -45.1721 -21.8919 -21.8174 -21.8142  -6.2270  -5.8923  -5.5845  -4.4131
    -4.3887  -4.2609  -4.1083  -4.0221   3.3450   5.7959   5.9311   6.4171
     7.0728   7.2793   8.9764   9.6012   9.6438   9.8656

          k = 0.2857 0.4294 0.0000 (  6878 PWs)   bands (ev):

   -45.1722 -21.8490 -21.8459 -21.8147  -6.2673  -5.7923  -5.7700  -4.4491
    -4.3943  -4.2844  -4.1494  -4.1291   3.0532   6.1498   6.7115   7.1978
     7.6547   7.8867   8.1195   9.1483   9.7793  10.1016

          k = 0.2857 0.4294 0.1911 (  6855 PWs)   bands (ev):

   -45.1720 -21.8644 -21.8457 -21.8141  -6.1755  -5.8130  -5.7537  -4.4205
    -4.3878  -4.2385  -4.1142  -4.0681   3.1934   6.0651   6.1822   6.3932
     7.1590   7.9187   8.8609   9.3101   9.5095   9.8658

          k = 0.2857 0.4294 0.3822 (  6856 PWs)   bands (ev):

   -45.1716 -21.8903 -21.8444 -21.8129  -6.1202  -5.8380  -5.6238  -4.3916
    -4.3569  -4.1761  -4.0593  -3.9557   3.4153   5.5445   5.6914   6.0956
     6.7027   7.2642   8.2071   9.7207   9.7995  10.0661

          k = 0.4286 0.0000 0.0000 (  6832 PWs)   bands (ev):

   -45.1732 -21.8508 -21.8454 -21.7691  -6.5716  -5.8653  -5.6841  -4.4887
    -4.4297  -4.4073  -4.2385  -4.1582   3.5451   6.1360   7.2913   7.3111
     7.9668   8.0603   8.7422   8.8956   9.3243  10.8117

          k = 0.4286 0.0000 0.1911 (  6852 PWs)   bands (ev):

   -45.1729 -21.8668 -21.8446 -21.7684  -6.5134  -5.8205  -5.6156  -4.4633
    -4.4302  -4.4214  -4.2133  -4.1342   3.3280   6.1141   7.1268   7.4200
     7.4889   7.9476   8.6590   8.8906   9.2542  10.5696

          k = 0.4286 0.0000 0.3822 (  6863 PWs)   bands (ev):

   -45.1726 -21.8927 -21.8430 -21.7672  -6.4636  -5.7324  -5.4454  -4.4442
    -4.4310  -4.4152  -4.2617  -4.0264   3.0082   5.9415   6.5788   7.3827
     7.4959   7.9034   7.9045   8.8857   9.8381  10.1278

          k = 0.4286 0.1431 0.0000 (  6855 PWs)   bands (ev):

   -45.1729 -21.8501 -21.8445 -21.7842  -6.4739  -5.8417  -5.7222  -4.4764
    -4.4111  -4.3760  -4.2112  -4.1498   3.3931   6.1486   7.0818   7.4820
     7.5137   8.1084   8.5008   9.1438   9.4224  10.6205

          k = 0.4286 0.1431 0.1911 (  6860 PWs)   bands (ev):

   -45.1727 -21.8661 -21.8438 -21.7835  -6.4097  -5.8175  -5.6651  -4.4540
    -4.4149  -4.3632  -4.1824  -4.1144   3.3066   6.1183   6.5172   6.9913
     7.5547   8.3416   8.5068   9.1382   9.3888  10.2449

          k = 0.4286 0.1431 0.3822 (  6861 PWs)   bands (ev):

   -45.1723 -21.8920 -21.8423 -21.7823  -6.3595  -5.7675  -5.5079  -4.4433
    -4.3851  -4.3384  -4.2038  -4.0067   3.1277   5.9073   6.3243   6.5283
     6.8872   8.1525   8.8360   9.0087   9.4323  10.0508

          k = 0.4286 0.2863 0.0000 (  6888 PWs)   bands (ev):

   -45.1722 -21.8486 -21.8426 -21.8179  -6.2694  -5.7934  -5.7713  -4.4491
    -4.3944  -4.2854  -4.1476  -4.1306   3.0538   6.1643   6.7011   7.1988
     7.6591   7.8864   8.1182   9.1494   9.7950  10.0877

          k = 0.4286 0.2863 0.1911 (  6854 PWs)   bands (ev):

   -45.1720 -21.8645 -21.8419 -21.8173  -6.1773  -5.8147  -5.7541  -4.4203
    -4.3882  -4.2392  -4.1118  -4.0711   3.1930   6.0758   6.1855   6.3865
     7.1568   7.9190   8.8715   9.3102   9.5085   9.8673

          k = 0.4286 0.2863 0.3822 (  6858 PWs)   bands (ev):

   -45.1716 -21.8903 -21.8406 -21.8161  -6.1206  -5.8408  -5.6240  -4.3914
    -4.3576  -4.1764  -4.0558  -3.9609   3.4122   5.5481   5.6874   6.1020
     6.7085   7.2601   8.2148   9.7271   9.8061  10.0617

          k = 0.4286 0.4294 0.0000 (  6871 PWs)   bands (ev):

   -45.1717 -21.8477 -21.8445 -21.8410  -6.1534  -5.7558  -5.7488  -4.4341
    -4.3484  -4.2145  -4.1666  -4.0661   2.7895   6.0079   6.4122   7.3737
     7.4740   7.8618   8.0352   8.8811   9.4577  10.2420

          k = 0.4286 0.4294 0.1911 (  6862 PWs)   bands (ev):

   -45.1715 -21.8630 -21.8443 -21.8405  -6.0150  -5.8052  -5.7962  -4.4028
    -4.3423  -4.1322  -4.0762  -4.0329   3.0404   5.9600   6.1686   6.2225
     6.6053   7.8841   8.5045   9.2275   9.2473  10.2336

          k = 0.4286 0.4294 0.3822 (  6862 PWs)   bands (ev):

   -45.1711 -21.8888 -21.8431 -21.8392  -5.9299  -5.8856  -5.7063  -4.3521
    -4.3364  -4.0344  -3.9409  -3.9330   3.6088   5.3472   5.4557   5.8813
     6.5205   6.8063   7.1572  10.0529  10.0734  10.2206

     highest occupied level (ev):    10.8186

!    total energy              =    -380.57768602 Ry
     estimated scf accuracy    <          1.1E-09 Ry

     The total energy is the sum of the following terms:
     one-electron contribution =     -79.66300332 Ry
     hartree contribution      =      69.90765519 Ry
     xc contribution           =    -102.67568305 Ry
     ewald contribution        =    -268.14665484 Ry

     convergence has been achieved in   5 iterations

     negative rho (up, down):  1.581E-02 0.000E+00

     Forces acting on atoms (cartesian axes, Ry/au):

     atom    1 type  1   force =     0.00000000    0.00000000    0.00041614
     atom    2 type  2   force =     0.00000000    0.00000000    0.00052422
     atom    3 type  3   force =     0.00000000    0.00000000   -0.00025709
     atom    4 type  3   force =     0.00000000    0.00000000   -0.00017245
     atom    5 type  3   force =     0.00000000    0.00000000   -0.00051083

     Total force =     0.000897     Total SCF correction =     0.000145
     SCF correction compared to forces is large: reduce conv_thr to get better values


     Computing stress (Cartesian axis) and pressure


     negative rho (up, down):  1.581E-02 0.000E+00
          total   stress  (Ry/bohr**3)                   (kbar)     P=        0.49
  -0.00001355   0.00000000   0.00000000           -1.99        0.00        0.00
   0.00000000   0.00001153   0.00000000            0.00        1.70        0.00
   0.00000000   0.00000000   0.00001210            0.00        0.00        1.78


     BFGS Geometry Optimization
     Energy error            =      0.0E+00 Ry
     Gradient error          =      5.2E-04 Ry/Bohr

     bfgs converged in   1 scf cycles and   0 bfgs steps
     (criteria: energy <  1.0E-04 Ry, force <  1.0E-03 Ry/Bohr)

     End of BFGS Geometry Optimization

     Final energy             =    -380.5776860216 Ry
Begin final coordinates

ATOMIC_POSITIONS (crystal)
Pb            0.0000000000        0.0000000000        1.0052368656
Ti            0.5000000000        0.5000000000        0.5400034291
O             0.5000000000        0.5000000000        0.0990920524
O             0.5000000000        0.0000000000        0.6115276284
O             0.0000000000        0.5000000000        0.6114243124
End final coordinates



     Writing all to output data dir ./PTO2.save/
 
     init_run     :     16.86s CPU     17.26s WALL (       1 calls)
     electrons    :   1510.95s CPU   1559.97s WALL (       3 calls)
     update_pot   :      1.75s CPU      1.75s WALL (       2 calls)
     forces       :     10.78s CPU     11.05s WALL (       3 calls)
     stress       :     65.91s CPU     66.61s WALL (       3 calls)

     Called by init_run:
     wfcinit      :     11.72s CPU     12.00s WALL (       1 calls)
     potinit      :      0.18s CPU      0.19s WALL (       1 calls)
     hinit0       :      4.08s CPU      4.10s WALL (       1 calls)

     Called by electrons:
     c_bands      :   1370.28s CPU   1414.07s WALL (      26 calls)
     sum_band     :    121.86s CPU    125.24s WALL (      26 calls)
     v_of_rho     :      0.75s CPU      0.76s WALL (      27 calls)
     newd         :     19.92s CPU     21.82s WALL (      27 calls)
     mix_rho      :      0.34s CPU      0.36s WALL (      26 calls)

     Called by c_bands:
     init_us_2    :     35.44s CPU     35.62s WALL (    2832 calls)
     init_us_2:cp :     35.34s CPU     35.57s WALL (    2832 calls)
     ccgdiagg     :   1211.57s CPU   1250.81s WALL (    1248 calls)
     wfcrot       :    150.68s CPU    153.22s WALL (    1056 calls)

     Called by *cgdiagg:
     h_psi        :    918.82s CPU    941.96s WALL (  105086 calls)
     s_psi        :    228.64s CPU    240.92s WALL (  209116 calls)

     Called by h_psi:
     h_psi:calbec :    118.23s CPU    121.93s WALL (  105086 calls)
     vloc_psi     :    673.89s CPU    688.84s WALL (  105086 calls)
     add_vuspsi   :    116.99s CPU    122.67s WALL (  105086 calls)
     hs_1psi      :    903.79s CPU    928.94s WALL (  104030 calls)
     s_1psi       :    229.63s CPU    238.07s WALL (  104030 calls)

     General routines
     calbec       :    231.87s CPU    243.84s WALL (  211084 calls)
     fft          :      0.30s CPU      0.31s WALL (     136 calls)
     ffts         :      0.06s CPU      0.06s WALL (      26 calls)
     fftw         :    618.02s CPU    629.62s WALL (  282844 calls)
 
     Parallel routines
 
     PWSCF        :  26m49.32s CPU  27m41.60s WALL

 
   This run was terminated on:   9:55: 4  11Apr2022            

=------------------------------------------------------------------------------=
   JOB DONE.
=------------------------------------------------------------------------------=
