
     Program PWSCF v.7.0 starts on 11Apr2022 at  9:52:33 

     This program is part of the open-source Quantum ESPRESSO suite
     for quantum simulation of materials; please cite
         "P. Giannozzi et al., J. Phys.:Condens. Matter 21 395502 (2009);
         "P. Giannozzi et al., J. Phys.:Condens. Matter 29 465901 (2017);
         "P. Giannozzi et al., J. Chem. Phys. 152 154105 (2020);
          URL http://www.quantum-espresso.org", 
     in publications or presentations arising from this work. More details at
     http://www.quantum-espresso.org/quote

     Parallel version (MPI), running on     1 processors

     MPI processes distributed on     1 nodes
     89956 MiB available memory on the printing compute node when the environment starts
 
     Waiting for input...
     Reading input from standard input
Warning: card &CELL ignored
Warning: card  CELL_DYNAMICS = 'BFGS', ignored
Warning: card  PRESS=0.1D0, ignored
Warning: card / ignored

     Current dimensions of program PWSCF are:
     Max number of different atomic species (ntypx) = 10
     Max number of k-points (npk) =  40000
     Max angular momentum in pseudopotentials (lmaxx) =  4
     Message from routine setup:
     using ibrav=0 with symmetry is DISCOURAGED, use correct ibrav instead

     Subspace diagonalization in iterative solution of the eigenvalue problem:
     a serial algorithm will be used

 
     G-vector sticks info
     --------------------
     sticks:   dense  smooth     PW     G-vecs:    dense   smooth      PW
     Sum        1685    1685    485                54885    54885    8241
 
     Using Slab Decomposition
 


     bravais-lattice index     =            0
     lattice parameter (alat)  =       7.3301  a.u.
     unit-cell volume          =     406.4575 (a.u.)^3
     number of atoms/cell      =            5
     number of atomic types    =            3
     number of electrons       =        44.00
     number of Kohn-Sham states=           22
     kinetic-energy cutoff     =     100.0000  Ry
     charge density cutoff     =     400.0000  Ry
     scf convergence threshold =      1.0E-08
     mixing beta               =       0.7000
     number of iterations used =            8  plain     mixing
     energy convergence thresh.=      1.0E-04
     force convergence thresh. =      1.0E-03
     Exchange-correlation= SLA  PZ   NOGX NOGC
                           (   1   1   0   0   0   0   0)
     nstep                     =           50


     celldm(1)=   7.330059  celldm(2)=   0.000000  celldm(3)=   0.000000
     celldm(4)=   0.000000  celldm(5)=   0.000000  celldm(6)=   0.000000

     crystal axes: (cart. coord. in units of alat)
               a(1) = (   1.000000   0.000000   0.000000 )  
               a(2) = (   0.000000   0.988089   0.000000 )  
               a(3) = (   0.000000   0.000000   1.044471 )  

     reciprocal axes: (cart. coord. in units 2 pi/alat)
               b(1) = (  1.000000  0.000000  0.000000 )  
               b(2) = (  0.000000  1.012054  0.000000 )  
               b(3) = (  0.000000  0.000000  0.957422 )  


     PseudoPot. # 1 for Pb read from file:
     ./Pb_LDA.UPF
     MD5 check sum: 062a37469794d955244864f8fe2e5624
     Pseudo is Ultrasoft + core correction, Zval = 14.0
     Generated by new atomic code, or converted to UPF format
     Using radial grid of  899 points,  6 beta functions with: 
                l(1) =   0
                l(2) =   0
                l(3) =   1
                l(4) =   1
                l(5) =   2
                l(6) =   2
     Q(r) pseudized with  6 coefficients,  rinner =    1.000   1.000   1.000
                                                       1.000   1.000

     PseudoPot. # 2 for Ti read from file:
     ./Ti_LDA.UPF
     MD5 check sum: 0d9f225c038fe889ca2a701dcc8d72cb
     Pseudo is Ultrasoft + core correction, Zval = 12.0
     Generated by new atomic code, or converted to UPF format
     Using radial grid of  851 points,  6 beta functions with: 
                l(1) =   0
                l(2) =   0
                l(3) =   1
                l(4) =   1
                l(5) =   2
                l(6) =   2
     Q(r) pseudized with  6 coefficients,  rinner =    1.000   1.000   1.000
                                                       1.000   1.000

     PseudoPot. # 3 for O  read from file:
     ./O_LDA.UPF
     MD5 check sum: 194b818514d2a7dbb603bb78519a4f40
     Pseudo is Ultrasoft + core correction, Zval =  6.0
     Generated by new atomic code, or converted to UPF format
     Using radial grid of  737 points,  5 beta functions with: 
                l(1) =   0
                l(2) =   0
                l(3) =   1
                l(4) =   1
                l(5) =   2
     Q(r) pseudized with  8 coefficients,  rinner =    0.900   0.900   0.900
                                                       0.900   0.900

     atomic species   valence    mass     pseudopotential
        Pb            14.00   207.20000     Pb( 1.00)
        Ti            12.00    47.88000     Ti( 1.00)
        O              6.00    16.00000     O ( 1.00)

      4 Sym. Ops. (no inversion) found



   Cartesian axes

     site n.     atom                  positions (alat units)
         1           Pb  tau(   1) = (   0.0000000   0.0000000   1.0498926  )
         2           Ti  tau(   2) = (   0.5000000   0.4940447   0.5635052  )
         3           O   tau(   3) = (   0.5000000   0.4940447   0.1039027  )
         4           O   tau(   4) = (   0.5000000   0.0000000   0.6387479  )
         5           O   tau(   5) = (   0.0000000   0.4940447   0.6387479  )

     number of k points=    48
                       cart. coord. in units 2pi/alat
        k(    1) = (   0.0000000   0.0000000   0.0000000), wk =   0.0081633
        k(    2) = (   0.0000000   0.0000000   0.1914844), wk =   0.0163265
        k(    3) = (   0.0000000   0.0000000   0.3829689), wk =   0.0163265
        k(    4) = (   0.0000000   0.1445792   0.0000000), wk =   0.0163265
        k(    5) = (   0.0000000   0.1445792   0.1914844), wk =   0.0326531
        k(    6) = (   0.0000000   0.1445792   0.3829689), wk =   0.0326531
        k(    7) = (   0.0000000   0.2891583   0.0000000), wk =   0.0163265
        k(    8) = (   0.0000000   0.2891583   0.1914844), wk =   0.0326531
        k(    9) = (   0.0000000   0.2891583   0.3829689), wk =   0.0326531
        k(   10) = (   0.0000000   0.4337375   0.0000000), wk =   0.0163265
        k(   11) = (   0.0000000   0.4337375   0.1914844), wk =   0.0326531
        k(   12) = (   0.0000000   0.4337375   0.3829689), wk =   0.0326531
        k(   13) = (   0.1428571   0.0000000   0.0000000), wk =   0.0163265
        k(   14) = (   0.1428571   0.0000000   0.1914844), wk =   0.0326531
        k(   15) = (   0.1428571   0.0000000   0.3829689), wk =   0.0326531
        k(   16) = (   0.1428571   0.1445792   0.0000000), wk =   0.0326531
        k(   17) = (   0.1428571   0.1445792   0.1914844), wk =   0.0653061
        k(   18) = (   0.1428571   0.1445792   0.3829689), wk =   0.0653061
        k(   19) = (   0.1428571   0.2891583   0.0000000), wk =   0.0326531
        k(   20) = (   0.1428571   0.2891583   0.1914844), wk =   0.0653061
        k(   21) = (   0.1428571   0.2891583   0.3829689), wk =   0.0653061
        k(   22) = (   0.1428571   0.4337375   0.0000000), wk =   0.0326531
        k(   23) = (   0.1428571   0.4337375   0.1914844), wk =   0.0653061
        k(   24) = (   0.1428571   0.4337375   0.3829689), wk =   0.0653061
        k(   25) = (   0.2857143   0.0000000   0.0000000), wk =   0.0163265
        k(   26) = (   0.2857143   0.0000000   0.1914844), wk =   0.0326531
        k(   27) = (   0.2857143   0.0000000   0.3829689), wk =   0.0326531
        k(   28) = (   0.2857143   0.1445792   0.0000000), wk =   0.0326531
        k(   29) = (   0.2857143   0.1445792   0.1914844), wk =   0.0653061
        k(   30) = (   0.2857143   0.1445792   0.3829689), wk =   0.0653061
        k(   31) = (   0.2857143   0.2891583   0.0000000), wk =   0.0326531
        k(   32) = (   0.2857143   0.2891583   0.1914844), wk =   0.0653061
        k(   33) = (   0.2857143   0.2891583   0.3829689), wk =   0.0653061
        k(   34) = (   0.2857143   0.4337375   0.0000000), wk =   0.0326531
        k(   35) = (   0.2857143   0.4337375   0.1914844), wk =   0.0653061
        k(   36) = (   0.2857143   0.4337375   0.3829689), wk =   0.0653061
        k(   37) = (   0.4285714   0.0000000   0.0000000), wk =   0.0163265
        k(   38) = (   0.4285714   0.0000000   0.1914844), wk =   0.0326531
        k(   39) = (   0.4285714   0.0000000   0.3829689), wk =   0.0326531
        k(   40) = (   0.4285714   0.1445792   0.0000000), wk =   0.0326531
        k(   41) = (   0.4285714   0.1445792   0.1914844), wk =   0.0653061
        k(   42) = (   0.4285714   0.1445792   0.3829689), wk =   0.0653061
        k(   43) = (   0.4285714   0.2891583   0.0000000), wk =   0.0326531
        k(   44) = (   0.4285714   0.2891583   0.1914844), wk =   0.0653061
        k(   45) = (   0.4285714   0.2891583   0.3829689), wk =   0.0653061
        k(   46) = (   0.4285714   0.4337375   0.0000000), wk =   0.0326531
        k(   47) = (   0.4285714   0.4337375   0.1914844), wk =   0.0653061
        k(   48) = (   0.4285714   0.4337375   0.3829689), wk =   0.0653061

     Dense  grid:    54885 G-vectors     FFT dimensions: (  48,  48,  50)

     Estimated max dynamical RAM per process >     327.99 MB

     Check: negative core charge=   -0.000003

     Initial potential from superposition of free atoms

     starting charge      42.9982, renormalised to      44.0000

     negative rho (up, down):  1.705E-02 0.000E+00
     Starting wfcs are   31 randomized atomic wfcs

     total cpu time spent up to now is       19.0 secs

     Self-consistent Calculation

     iteration #  1     ecut=   100.00 Ry     beta= 0.70
     CG style diagonalization
     ethr =  1.00E-02,  avg # of iterations =  2.1

     negative rho (up, down):  1.433E-02 0.000E+00

     total cpu time spent up to now is       52.9 secs

     total energy              =    -380.06009612 Ry
     estimated scf accuracy    <       1.02721430 Ry

     iteration #  2     ecut=   100.00 Ry     beta= 0.70
     CG style diagonalization
     ethr =  2.33E-03,  avg # of iterations =  4.9

     negative rho (up, down):  1.504E-02 0.000E+00

     total cpu time spent up to now is      116.4 secs

     total energy              =    -379.76825197 Ry
     estimated scf accuracy    <       3.87712635 Ry

     iteration #  3     ecut=   100.00 Ry     beta= 0.70
     CG style diagonalization
     ethr =  2.33E-03,  avg # of iterations =  4.5

     negative rho (up, down):  1.563E-02 0.000E+00

     total cpu time spent up to now is      174.7 secs

     total energy              =    -380.54761206 Ry
     estimated scf accuracy    <       0.24986961 Ry

     iteration #  4     ecut=   100.00 Ry     beta= 0.70
     CG style diagonalization
     ethr =  5.68E-04,  avg # of iterations =  3.4

     negative rho (up, down):  1.567E-02 0.000E+00

     total cpu time spent up to now is      219.0 secs

     total energy              =    -380.56088707 Ry
     estimated scf accuracy    <       0.05205979 Ry

     iteration #  5     ecut=   100.00 Ry     beta= 0.70
     CG style diagonalization
     ethr =  1.18E-04,  avg # of iterations =  3.8

     negative rho (up, down):  1.566E-02 0.000E+00

     total cpu time spent up to now is      268.7 secs

     total energy              =    -380.57571605 Ry
     estimated scf accuracy    <       0.00475802 Ry

     iteration #  6     ecut=   100.00 Ry     beta= 0.70
     CG style diagonalization
     ethr =  1.08E-05,  avg # of iterations =  4.1

     negative rho (up, down):  1.566E-02 0.000E+00

     total cpu time spent up to now is      322.6 secs

     total energy              =    -380.57740464 Ry
     estimated scf accuracy    <       0.00721064 Ry

     iteration #  7     ecut=   100.00 Ry     beta= 0.70
     CG style diagonalization
     ethr =  1.08E-05,  avg # of iterations =  3.2

     negative rho (up, down):  1.567E-02 0.000E+00

     total cpu time spent up to now is      364.3 secs

     total energy              =    -380.57691709 Ry
     estimated scf accuracy    <       0.00267745 Ry

     iteration #  8     ecut=   100.00 Ry     beta= 0.70
     CG style diagonalization
     ethr =  6.09E-06,  avg # of iterations =  3.6

     negative rho (up, down):  1.569E-02 0.000E+00

     total cpu time spent up to now is      411.1 secs

     total energy              =    -380.57744314 Ry
     estimated scf accuracy    <       0.00000931 Ry

     iteration #  9     ecut=   100.00 Ry     beta= 0.70
     CG style diagonalization
     c_bands:  1 eigenvalues not converged
     c_bands:  1 eigenvalues not converged
     c_bands:  1 eigenvalues not converged
     c_bands:  1 eigenvalues not converged
     ethr =  2.12E-08,  avg # of iterations =  8.1

     negative rho (up, down):  1.572E-02 0.000E+00

     total cpu time spent up to now is      517.0 secs

     total energy              =    -380.57750109 Ry
     estimated scf accuracy    <       0.00001637 Ry

     iteration # 10     ecut=   100.00 Ry     beta= 0.70
     CG style diagonalization
     ethr =  2.12E-08,  avg # of iterations =  3.6

     negative rho (up, down):  1.576E-02 0.000E+00

     total cpu time spent up to now is      563.3 secs

     total energy              =    -380.57750140 Ry
     estimated scf accuracy    <       0.00000694 Ry

     iteration # 11     ecut=   100.00 Ry     beta= 0.70
     CG style diagonalization
     ethr =  1.58E-08,  avg # of iterations =  3.2

     negative rho (up, down):  1.581E-02 0.000E+00

     total cpu time spent up to now is      604.9 secs

     total energy              =    -380.57749998 Ry
     estimated scf accuracy    <       0.00000515 Ry

     iteration # 12     ecut=   100.00 Ry     beta= 0.70
     CG style diagonalization
     ethr =  1.17E-08,  avg # of iterations =  4.0

     negative rho (up, down):  1.581E-02 0.000E+00

     total cpu time spent up to now is      657.0 secs

     total energy              =    -380.57750136 Ry
     estimated scf accuracy    <       0.00000037 Ry

     iteration # 13     ecut=   100.00 Ry     beta= 0.70
     CG style diagonalization
     ethr =  8.41E-10,  avg # of iterations =  7.7

     negative rho (up, down):  1.581E-02 0.000E+00

     total cpu time spent up to now is      755.6 secs

     total energy              =    -380.57750233 Ry
     estimated scf accuracy    <       0.00000003 Ry

     iteration # 14     ecut=   100.00 Ry     beta= 0.70
     CG style diagonalization
     ethr =  7.03E-11,  avg # of iterations =  8.6

     negative rho (up, down):  1.581E-02 0.000E+00

     total cpu time spent up to now is      865.5 secs

     total energy              =    -380.57750248 Ry
     estimated scf accuracy    <       0.00000002 Ry

     iteration # 15     ecut=   100.00 Ry     beta= 0.70
     CG style diagonalization
     ethr =  3.97E-11,  avg # of iterations =  4.7

     negative rho (up, down):  1.581E-02 0.000E+00

     total cpu time spent up to now is      925.7 secs

     total energy              =    -380.57750249 Ry
     estimated scf accuracy    <       0.00000001 Ry

     iteration # 16     ecut=   100.00 Ry     beta= 0.70
     CG style diagonalization
     ethr =  2.68E-11,  avg # of iterations =  3.7

     negative rho (up, down):  1.581E-02 0.000E+00

     total cpu time spent up to now is      973.4 secs

     End of self-consistent calculation

          k = 0.0000 0.0000 0.0000 (  6861 PWs)   bands (ev):

   -45.1682 -21.8491 -21.7721 -21.7596  -7.1658  -6.0131  -5.7570  -4.4148
    -4.4111  -4.3734  -4.2573  -4.1405   4.8416   6.6883   6.7826   7.1090
     8.7004   8.7215   8.9500   9.2877   9.4322   9.4515

          k = 0.0000 0.0000 0.1915 (  6858 PWs)   bands (ev):

   -45.1680 -21.8654 -21.7715 -21.7590  -7.0239  -5.9708  -5.7082  -4.4270
    -4.4234  -4.3724  -4.2496  -4.1923   4.1927   6.7338   6.8163   7.4189
     8.5047   8.5418   8.8925   9.1745   9.5254   9.5370

          k = 0.0000 0.0000 0.3830 (  6868 PWs)   bands (ev):

   -45.1676 -21.8915 -21.7705 -21.7579  -6.7772  -5.8966  -5.6352  -4.4466
    -4.4433  -4.3707  -4.2868  -4.2338   3.5267   6.7523   6.7901   6.8479
     8.2901   8.3615   8.8021   9.6213   9.6260  10.3281

          k = 0.0000 0.1446 0.0000 (  6879 PWs)   bands (ev):

   -45.1679 -21.8485 -21.7886 -21.7589  -7.0529  -5.9854  -5.7327  -4.4302
    -4.4135  -4.3852  -4.2590  -4.1297   4.4589   6.7710   6.8117   7.1720
     8.6543   8.7159   8.9658   9.1536   9.1776   9.5478

          k = 0.0000 0.1446 0.1915 (  6868 PWs)   bands (ev):

   -45.1677 -21.8646 -21.7879 -21.7583  -6.9181  -5.9525  -5.6821  -4.4331
    -4.4261  -4.3845  -4.2551  -4.1604   3.9807   6.6847   6.8226   7.4547
     8.2780   8.4964   8.8946   9.0956   9.2669   9.7384

          k = 0.0000 0.1446 0.3830 (  6872 PWs)   bands (ev):

   -45.1673 -21.8905 -21.7868 -21.7572  -6.6897  -5.8951  -5.5994  -4.4462
    -4.4359  -4.3833  -4.2575  -4.2070   3.4127   6.4195   6.8859   7.0764
     8.0352   8.2836   8.9687   9.1440   9.3640  10.4341

          k = 0.0000 0.2892 0.0000 (  6849 PWs)   bands (ev):

   -45.1672 -21.8471 -21.8251 -21.7574  -6.7829  -5.9215  -5.6860  -4.4637
    -4.4120  -4.4101  -4.2558  -4.1254   3.8704   6.6082   6.9900   7.0222
     8.5083   8.5312   8.8442   8.8488   9.2581   9.9111

          k = 0.0000 0.2892 0.1915 (  6878 PWs)   bands (ev):

   -45.1670 -21.8629 -21.8244 -21.7567  -6.6766  -5.9001  -5.6264  -4.4455
    -4.4240  -4.4114  -4.2525  -4.1163   3.5832   6.4684   7.0595   7.0928
     8.0766   8.3325   8.5145   8.9193   9.2714  10.1573

          k = 0.0000 0.2892 0.3830 (  6876 PWs)   bands (ev):

   -45.1666 -21.8884 -21.8232 -21.7556  -6.5242  -5.8472  -5.5092  -4.4452
    -4.4115  -4.4099  -4.2761  -4.0838   3.1806   6.1393   6.9302   7.1380
     7.7177   8.0167   8.1806   8.9801   9.6872  10.2357

          k = 0.0000 0.4337 0.0000 (  6855 PWs)   bands (ev):

   -45.1666 -21.8551 -21.8450 -21.7561  -6.5452  -5.8510  -5.6776  -4.4858
    -4.4324  -4.4082  -4.2277  -4.1564   3.5429   6.0857   7.2548   7.2685
     7.9765   8.0510   8.7390   8.8822   9.3117  10.8413

          k = 0.0000 0.4337 0.1915 (  6835 PWs)   bands (ev):

   -45.1664 -21.8613 -21.8536 -21.7554  -6.4893  -5.8091  -5.6111  -4.4606
    -4.4330  -4.4221  -4.2123  -4.1183   3.3359   6.0681   7.1144   7.3677
     7.4791   7.9367   8.6478   8.8727   9.2474  10.5889

          k = 0.0000 0.4337 0.3830 (  6874 PWs)   bands (ev):

   -45.1660 -21.8865 -21.8522 -21.7543  -6.4440  -5.7246  -5.4444  -4.4443
    -4.4339  -4.4133  -4.2603  -4.0035   3.0291   5.9264   6.5564   7.3578
     7.4756   7.8612   7.8914   8.8633   9.8070  10.1390

          k = 0.1429 0.0000 0.0000 (  6869 PWs)   bands (ev):

   -45.1680 -21.8485 -21.7740 -21.7716  -7.0616  -5.9891  -5.7345  -4.4336
    -4.4099  -4.3840  -4.2594  -4.1328   4.4539   6.7603   6.8637   7.1795
     8.6286   8.7418   8.9559   9.1456   9.1868   9.5497

          k = 0.1429 0.0000 0.1915 (  6879 PWs)   bands (ev):

   -45.1677 -21.8647 -21.7733 -21.7709  -6.9275  -5.9546  -5.6834  -4.4363
    -4.4226  -4.3833  -4.2516  -4.1691   3.9735   6.6347   6.9033   7.4678
     8.2812   8.5336   8.8893   9.0673   9.2712   9.7332

          k = 0.1429 0.0000 0.3830 (  6887 PWs)   bands (ev):

   -45.1674 -21.8906 -21.7721 -21.7698  -6.7012  -5.8930  -5.6002  -4.4430
    -4.4374  -4.3822  -4.2485  -4.2261   3.4034   6.3858   6.9403   7.0858
     8.0107   8.3550   8.9857   9.1043   9.3764  10.4386

          k = 0.1429 0.1446 0.0000 (  6867 PWs)   bands (ev):

   -45.1677 -21.8479 -21.7880 -21.7732  -6.9499  -5.9609  -5.7226  -4.4358
    -4.4256  -4.3913  -4.2440  -4.1224   4.1788   6.7287   6.9223   7.2397
     8.2835   8.5098   8.9989   9.0488   9.4041   9.6908

          k = 0.1429 0.1446 0.1915 (  6877 PWs)   bands (ev):

   -45.1674 -21.8639 -21.7873 -21.7725  -6.8211  -5.9368  -5.6719  -4.4404
    -4.4260  -4.3900  -4.2368  -4.1417   3.8317   6.6140   6.7033   7.4743
     8.1456   8.2857   8.8203   9.1554   9.4345   9.7520

          k = 0.1429 0.1446 0.3830 (  6877 PWs)   bands (ev):

   -45.1670 -21.8897 -21.7861 -21.7714  -6.6082  -5.8966  -5.5830  -4.4597
    -4.4005  -4.3855  -4.2360  -4.1788   3.3555   6.4226   6.4638   7.1535
     8.0586   8.0881   8.7406   9.2297   9.4739  10.3102

          k = 0.1429 0.2892 0.0000 (  6864 PWs)   bands (ev):

   -45.1669 -21.8465 -21.8244 -21.7715  -6.6846  -5.8969  -5.7043  -4.4640
    -4.4198  -4.3896  -4.2246  -4.1179   3.6906   6.5707   6.9801   7.1343
     7.9277   8.2894   8.7547   9.1323   9.3770  10.1078

          k = 0.1429 0.2892 0.1915 (  6861 PWs)   bands (ev):

   -45.1667 -21.8622 -21.8237 -21.7708  -6.5786  -5.8890  -5.6504  -4.4483
    -4.4260  -4.3794  -4.2149  -4.1002   3.5258   6.4271   6.5744   7.1805
     7.6990   8.1873   8.8223   9.1145   9.3732  10.0797

          k = 0.1429 0.2892 0.3830 (  6861 PWs)   bands (ev):

   -45.1663 -21.8877 -21.8225 -21.7697  -6.4297  -5.8659  -5.5365  -4.4475
    -4.4074  -4.3469  -4.2255  -4.0643   3.2358   6.0789   6.4780   6.8289
     7.2534   8.0003   8.8574   9.1435   9.6994   9.9498

          k = 0.1429 0.4337 0.0000 (  6850 PWs)   bands (ev):

   -45.1664 -21.8543 -21.8444 -21.7702  -6.4530  -5.8291  -5.7171  -4.4743
    -4.4106  -4.3760  -4.2025  -4.1487   3.3921   6.0966   7.0541   7.4535
     7.5227   8.1117   8.4877   9.1213   9.4092  10.6497

          k = 0.1429 0.4337 0.1915 (  6856 PWs)   bands (ev):

   -45.1661 -21.8607 -21.8528 -21.7695  -6.3913  -5.8068  -5.6618  -4.4525
    -4.4137  -4.3634  -4.1841  -4.0996   3.3129   6.0711   6.4927   7.0005
     7.5576   8.3060   8.4757   9.1230   9.3816  10.2614

          k = 0.1429 0.4337 0.3830 (  6859 PWs)   bands (ev):

   -45.1658 -21.8858 -21.8515 -21.7683  -6.3459  -5.7582  -5.5083  -4.4419
    -4.3838  -4.3388  -4.2078  -3.9847   3.1455   5.8967   6.3004   6.5015
     6.8933   8.1430   8.7759   8.9863   9.4147  10.0631

          k = 0.2857 0.0000 0.0000 (  6871 PWs)   bands (ev):

   -45.1674 -21.8472 -21.8059 -21.7702  -6.8115  -5.9335  -5.6924  -4.4668
    -4.4085  -4.4066  -4.2608  -4.1320   3.8695   6.6396   7.0303   7.0821
     8.5061   8.5498   8.8360   8.8373   9.2619   9.9014

          k = 0.2857 0.0000 0.1915 (  6868 PWs)   bands (ev):

   -45.1671 -21.8631 -21.8051 -21.7696  -6.7068  -5.9071  -5.6318  -4.4492
    -4.4208  -4.4076  -4.2499  -4.1353   3.5698   6.4757   7.1227   7.1387
     8.0857   8.3704   8.5393   8.9396   9.2437  10.1298

          k = 0.2857 0.0000 0.3830 (  6863 PWs)   bands (ev):

   -45.1668 -21.8887 -21.8038 -21.7684  -6.5566  -5.8456  -5.5137  -4.4422
    -4.4134  -4.4077  -4.2713  -4.1148   3.1541   6.1242   6.9591   7.1851
     7.7656   8.0462   8.2505   9.0152   9.6275  10.2729

          k = 0.2857 0.1446 0.0000 (  6878 PWs)   bands (ev):

   -45.1671 -21.8465 -21.8051 -21.7865  -6.7040  -5.9056  -5.7087  -4.4650
    -4.4191  -4.3886  -4.2273  -4.1219   3.6922   6.6076   7.0125   7.1552
     7.9146   8.2885   8.7442   9.1700   9.3761  10.0921

          k = 0.2857 0.1446 0.1915 (  6867 PWs)   bands (ev):

   -45.1668 -21.8624 -21.8043 -21.7858  -6.5990  -5.8944  -5.6541  -4.4495
    -4.4255  -4.3786  -4.2114  -4.1139   3.5182   6.4376   6.6112   7.1945
     7.6988   8.2192   8.8618   9.1295   9.3632  10.0536

          k = 0.2857 0.1446 0.3830 (  6872 PWs)   bands (ev):

   -45.1664 -21.8879 -21.8030 -21.7847  -6.4511  -5.8661  -5.5396  -4.4486
    -4.4069  -4.3457  -4.2167  -4.0900   3.2170   6.0658   6.5100   6.8385
     7.2912   8.0314   8.8994   9.1926   9.6476   9.9748

          k = 0.2857 0.2892 0.0000 (  6855 PWs)   bands (ev):

   -45.1663 -21.8451 -21.8227 -21.8032  -6.4575  -5.8429  -5.7431  -4.4550
    -4.4151  -4.3458  -4.1669  -4.1157   3.3220   6.5732   6.6917   7.3513
     7.5090   7.8061   8.5786   9.1377   9.6705  10.1761

          k = 0.2857 0.2892 0.1915 (  6862 PWs)   bands (ev):

   -45.1661 -21.8607 -21.8222 -21.8024  -6.3552  -5.8620  -5.7030  -4.4293
    -4.4156  -4.3186  -4.1417  -4.0775   3.3560   6.2576   6.2998   6.7440
     7.4153   7.8060   9.0590   9.2578   9.6951   9.8081

          k = 0.2857 0.2892 0.3830 (  6863 PWs)   bands (ev):

   -45.1657 -21.8860 -21.8210 -21.8012  -6.2282  -5.8922  -5.5878  -4.4124
    -4.3881  -4.2607  -4.1081  -4.0205   3.3426   5.7935   5.9315   6.4247
     7.0777   7.2828   8.9817   9.5961   9.6485   9.8636

          k = 0.2857 0.4337 0.0000 (  6862 PWs)   bands (ev):

   -45.1658 -21.8525 -21.8429 -21.8017  -6.2599  -5.7902  -5.7645  -4.4477
    -4.3930  -4.2801  -4.1528  -4.1213   3.0573   6.1097   6.7349   7.1838
     7.6341   7.8770   8.1204   9.1429   9.7416  10.1354

          k = 0.2857 0.4337 0.1915 (  6842 PWs)   bands (ev):

   -45.1655 -21.8592 -21.8511 -21.8010  -6.1710  -5.8078  -5.7517  -4.4198
    -4.3856  -4.2353  -4.1193  -4.0580   3.1977   6.0327   6.1697   6.4079
     7.1648   7.9216   8.8222   9.3025   9.5083   9.8689

          k = 0.2857 0.4337 0.3830 (  6853 PWs)   bands (ev):

   -45.1652 -21.8842 -21.8500 -21.7998  -6.1204  -5.8287  -5.6267  -4.3917
    -4.3540  -4.1743  -4.0680  -3.9417   3.4211   5.5352   5.6998   6.0794
     6.6957   7.2825   8.1907   9.7013   9.7873  10.0696

          k = 0.4286 0.0000 0.0000 (  6850 PWs)   bands (ev):

   -45.1669 -21.8459 -21.8315 -21.7692  -6.5902  -5.8736  -5.6845  -4.4893
    -4.4266  -4.4052  -4.2441  -4.1584   3.5461   6.1663   7.2879   7.3582
     7.9505   8.0792   8.7381   8.8826   9.3153  10.8000

          k = 0.4286 0.0000 0.1915 (  6859 PWs)   bands (ev):

   -45.1667 -21.8617 -21.8306 -21.7685  -6.5330  -5.8277  -5.6165  -4.4645
    -4.4272  -4.4192  -4.2128  -4.1447   3.3196   6.1402   7.1295   7.4608
     7.4982   7.9629   8.6657   8.8950   9.2396  10.5691

          k = 0.4286 0.0000 0.3830 (  6871 PWs)   bands (ev):

   -45.1663 -21.8871 -21.8290 -21.7673  -6.4818  -5.7386  -5.4504  -4.4416
    -4.4280  -4.4172  -4.2608  -4.0435   2.9888   5.9483   6.6052   7.4076
     7.5093   7.9260   7.9380   8.9075   9.8475  10.1302

          k = 0.4286 0.1446 0.0000 (  6864 PWs)   bands (ev):

   -45.1666 -21.8452 -21.8306 -21.7854  -6.4871  -5.8493  -5.7228  -4.4760
    -4.4100  -4.3745  -4.2147  -4.1487   3.3975   6.1808   7.0895   7.4850
     7.5098   8.1042   8.4909   9.1620   9.4207  10.6049

          k = 0.4286 0.1446 0.1915 (  6850 PWs)   bands (ev):

   -45.1663 -21.8609 -21.8297 -21.7847  -6.4241  -5.8243  -5.6658  -4.4541
    -4.4140  -4.3613  -4.1799  -4.1232   3.3025   6.1451   6.5311   6.9828
     7.5560   8.3625   8.5295   9.1417   9.3833  10.2428

          k = 0.4286 0.1446 0.3830 (  6869 PWs)   bands (ev):

   -45.1660 -21.8863 -21.8282 -21.7836  -6.3723  -5.7742  -5.5123  -4.4432
    -4.3851  -4.3369  -4.1992  -4.0229   3.1115   5.9102   6.3418   6.5516
     6.9001   8.1666   8.8835   9.0289   9.4523  10.0316

          k = 0.4286 0.2892 0.0000 (  6889 PWs)   bands (ev):

   -45.1659 -21.8438 -21.8285 -21.8214  -6.2709  -5.7973  -5.7733  -4.4474
    -4.3938  -4.2875  -4.1419  -4.1310   3.0619   6.1994   6.6721   7.1894
     7.6629   7.8748   8.1134   9.1486   9.8372  10.0503

          k = 0.4286 0.2892 0.1915 (  6860 PWs)   bands (ev):

   -45.1656 -21.8593 -21.8277 -21.8209  -6.1803  -5.8197  -5.7548  -4.4187
    -4.3882  -4.2402  -4.1039  -4.0772   3.1964   6.0969   6.1899   6.3705
     7.1516   7.9219   8.8874   9.3031   9.5026   9.8775

          k = 0.4286 0.2892 0.3830 (  6849 PWs)   bands (ev):

   -45.1653 -21.8845 -21.8264 -21.8198  -6.1209  -5.8483  -5.6277  -4.3898
    -4.3589  -4.1761  -4.0460  -3.9739   3.4049   5.5558   5.6755   6.1202
     6.7339   7.2534   8.2381   9.7407   9.8264  10.0438

          k = 0.4286 0.4337 0.0000 (  6867 PWs)   bands (ev):

   -45.1653 -21.8510 -21.8416 -21.8268  -6.1495  -5.7611  -5.7432  -4.4323
    -4.3469  -4.2144  -4.1637  -4.0613   2.7977   6.0005   6.4150   7.3625
     7.4643   7.8489   8.0360   8.8783   9.4399  10.2521

          k = 0.4286 0.4337 0.1915 (  6853 PWs)   bands (ev):

   -45.1650 -21.8578 -21.8498 -21.8261  -6.0137  -5.8105  -5.7899  -4.4015
    -4.3409  -4.1329  -4.0743  -4.0282   3.0467   5.9512   6.1699   6.2193
     6.6058   7.8891   8.4930   9.2149   9.2391  10.2402

          k = 0.4286 0.4337 0.3830 (  6861 PWs)   bands (ev):

   -45.1647 -21.8828 -21.8487 -21.8249  -5.9318  -5.8814  -5.7097  -4.3520
    -4.3346  -4.0330  -3.9521  -3.9206   3.6097   5.3460   5.4578   5.8804
     6.5182   6.8217   7.1582  10.0390  10.0718  10.2259

     highest occupied level (ev):    10.8413

!    total energy              =    -380.57750248 Ry
     estimated scf accuracy    <          4.6E-09 Ry

     The total energy is the sum of the following terms:
     one-electron contribution =     -79.71463803 Ry
     hartree contribution      =      69.93614233 Ry
     xc contribution           =    -102.67785175 Ry
     ewald contribution        =    -268.12115503 Ry

     convergence has been achieved in  16 iterations

     negative rho (up, down):  1.581E-02 0.000E+00

     Forces acting on atoms (cartesian axes, Ry/au):

     atom    1 type  1   force =     0.00000000    0.00000000   -0.00005119
     atom    2 type  2   force =     0.00000000    0.00000000    0.00023803
     atom    3 type  3   force =     0.00000000    0.00000000   -0.00014604
     atom    4 type  3   force =     0.00000000    0.00000000    0.00124295
     atom    5 type  3   force =     0.00000000    0.00000000   -0.00128375

     Total force =     0.001809     Total SCF correction =     0.000346
     SCF correction compared to forces is large: reduce conv_thr to get better values


     Computing stress (Cartesian axis) and pressure


     negative rho (up, down):  1.581E-02 0.000E+00
          total   stress  (Ry/bohr**3)                   (kbar)     P=        1.84
  -0.00006140   0.00000000   0.00000000           -9.03        0.00        0.00
   0.00000000   0.00009248   0.00000000            0.00       13.60        0.00
   0.00000000   0.00000000   0.00000646            0.00        0.00        0.95

     Energy error            =      7.8E-05 Ry
     Gradient error          =      1.3E-03 Ry/Bohr

     number of scf cycles    =   3
     number of bfgs steps    =   2

     energy             old  =    -380.5775806522 Ry
     energy             new  =    -380.5775024838 Ry

     CASE: energy            _new > energy            _old


 %%%%%%%%%%%%%%%%%%%%%%%%%%%%%%%%%%%%%%%%%%%%%%%%%%%%%%%%%%%%%%%%%%%%%%%%%%%%%%
     Error in routine bfgs (1):
     dE0s is positive which should never happen
 %%%%%%%%%%%%%%%%%%%%%%%%%%%%%%%%%%%%%%%%%%%%%%%%%%%%%%%%%%%%%%%%%%%%%%%%%%%%%%

     stopping ...
