
     Program PWSCF v.7.0 starts on 11Apr2022 at  9: 7:31 

     This program is part of the open-source Quantum ESPRESSO suite
     for quantum simulation of materials; please cite
         "P. Giannozzi et al., J. Phys.:Condens. Matter 21 395502 (2009);
         "P. Giannozzi et al., J. Phys.:Condens. Matter 29 465901 (2017);
         "P. Giannozzi et al., J. Chem. Phys. 152 154105 (2020);
          URL http://www.quantum-espresso.org", 
     in publications or presentations arising from this work. More details at
     http://www.quantum-espresso.org/quote

     Parallel version (MPI), running on     1 processors

     MPI processes distributed on     1 nodes
     90601 MiB available memory on the printing compute node when the environment starts
 
     Waiting for input...
     Reading input from standard input
Warning: card &CELL ignored
Warning: card  CELL_DYNAMICS = 'BFGS', ignored
Warning: card  PRESS=0.1D0, ignored
Warning: card / ignored

     Current dimensions of program PWSCF are:
     Max number of different atomic species (ntypx) = 10
     Max number of k-points (npk) =  40000
     Max angular momentum in pseudopotentials (lmaxx) =  4
     Message from routine setup:
     using ibrav=0 with symmetry is DISCOURAGED, use correct ibrav instead

     Subspace diagonalization in iterative solution of the eigenvalue problem:
     a serial algorithm will be used

 
     G-vector sticks info
     --------------------
     sticks:   dense  smooth     PW     G-vecs:    dense   smooth      PW
     Sum        1685    1685    481                54933    54933    8225
 
     Using Slab Decomposition
 


     bravais-lattice index     =            0
     lattice parameter (alat)  =       7.2864  a.u.
     unit-cell volume          =     406.4721 (a.u.)^3
     number of atoms/cell      =            5
     number of atomic types    =            3
     number of electrons       =        44.00
     number of Kohn-Sham states=           22
     kinetic-energy cutoff     =     100.0000  Ry
     charge density cutoff     =     400.0000  Ry
     scf convergence threshold =      1.0E-08
     mixing beta               =       0.7000
     number of iterations used =            8  plain     mixing
     energy convergence thresh.=      1.0E-04
     force convergence thresh. =      1.0E-03
     Exchange-correlation= SLA  PZ   NOGX NOGC
                           (   1   1   0   0   0   0   0)
     nstep                     =           50


     celldm(1)=   7.286406  celldm(2)=   0.000000  celldm(3)=   0.000000
     celldm(4)=   0.000000  celldm(5)=   0.000000  celldm(6)=   0.000000

     crystal axes: (cart. coord. in units of alat)
               a(1) = (   1.000000   0.000000   0.000000 )  
               a(2) = (   0.000000   1.000000   0.000000 )  
               a(3) = (   0.000000   0.000000   1.050729 )  

     reciprocal axes: (cart. coord. in units 2 pi/alat)
               b(1) = (  1.000000  0.000000  0.000000 )  
               b(2) = (  0.000000  1.000000  0.000000 )  
               b(3) = (  0.000000  0.000000  0.951720 )  


     PseudoPot. # 1 for Pb read from file:
     ./Pb_LDA.UPF
     MD5 check sum: 062a37469794d955244864f8fe2e5624
     Pseudo is Ultrasoft + core correction, Zval = 14.0
     Generated by new atomic code, or converted to UPF format
     Using radial grid of  899 points,  6 beta functions with: 
                l(1) =   0
                l(2) =   0
                l(3) =   1
                l(4) =   1
                l(5) =   2
                l(6) =   2
     Q(r) pseudized with  6 coefficients,  rinner =    1.000   1.000   1.000
                                                       1.000   1.000

     PseudoPot. # 2 for Ti read from file:
     ./Ti_LDA.UPF
     MD5 check sum: 0d9f225c038fe889ca2a701dcc8d72cb
     Pseudo is Ultrasoft + core correction, Zval = 12.0
     Generated by new atomic code, or converted to UPF format
     Using radial grid of  851 points,  6 beta functions with: 
                l(1) =   0
                l(2) =   0
                l(3) =   1
                l(4) =   1
                l(5) =   2
                l(6) =   2
     Q(r) pseudized with  6 coefficients,  rinner =    1.000   1.000   1.000
                                                       1.000   1.000

     PseudoPot. # 3 for O  read from file:
     ./O_LDA.UPF
     MD5 check sum: 194b818514d2a7dbb603bb78519a4f40
     Pseudo is Ultrasoft + core correction, Zval =  6.0
     Generated by new atomic code, or converted to UPF format
     Using radial grid of  737 points,  5 beta functions with: 
                l(1) =   0
                l(2) =   0
                l(3) =   1
                l(4) =   1
                l(5) =   2
     Q(r) pseudized with  8 coefficients,  rinner =    0.900   0.900   0.900
                                                       0.900   0.900

     atomic species   valence    mass     pseudopotential
        Pb            14.00   207.20000     Pb( 1.00)
        Ti            12.00    47.88000     Ti( 1.00)
        O              6.00    16.00000     O ( 1.00)

      8 Sym. Ops. (no inversion) found



   Cartesian axes

     site n.     atom                  positions (alat units)
         1           Pb  tau(   1) = (   0.0000000   0.0000000   1.0561825  )
         2           Ti  tau(   2) = (   0.5000000   0.5000000   0.5668812  )
         3           O   tau(   3) = (   0.5000000   0.5000000   0.1045252  )
         4           O   tau(   4) = (   0.5000000   0.0000000   0.6425746  )
         5           O   tau(   5) = (   0.0000000   0.5000000   0.6425746  )

     number of k points=    30
                       cart. coord. in units 2pi/alat
        k(    1) = (   0.0000000   0.0000000   0.0000000), wk =   0.0081633
        k(    2) = (   0.0000000   0.0000000   0.1903441), wk =   0.0163265
        k(    3) = (   0.0000000   0.0000000   0.3806882), wk =   0.0163265
        k(    4) = (   0.0000000   0.1428571   0.0000000), wk =   0.0326531
        k(    5) = (   0.0000000   0.1428571   0.1903441), wk =   0.0653061
        k(    6) = (   0.0000000   0.1428571   0.3806882), wk =   0.0653061
        k(    7) = (   0.0000000   0.2857143   0.0000000), wk =   0.0326531
        k(    8) = (   0.0000000   0.2857143   0.1903441), wk =   0.0653061
        k(    9) = (   0.0000000   0.2857143   0.3806882), wk =   0.0653061
        k(   10) = (   0.0000000   0.4285714   0.0000000), wk =   0.0326531
        k(   11) = (   0.0000000   0.4285714   0.1903441), wk =   0.0653061
        k(   12) = (   0.0000000   0.4285714   0.3806882), wk =   0.0653061
        k(   13) = (   0.1428571   0.1428571   0.0000000), wk =   0.0326531
        k(   14) = (   0.1428571   0.1428571   0.1903441), wk =   0.0653061
        k(   15) = (   0.1428571   0.1428571   0.3806882), wk =   0.0653061
        k(   16) = (   0.1428571   0.2857143   0.0000000), wk =   0.0653061
        k(   17) = (   0.1428571   0.2857143   0.1903441), wk =   0.1306122
        k(   18) = (   0.1428571   0.2857143   0.3806882), wk =   0.1306122
        k(   19) = (   0.1428571   0.4285714   0.0000000), wk =   0.0653061
        k(   20) = (   0.1428571   0.4285714   0.1903441), wk =   0.1306122
        k(   21) = (   0.1428571   0.4285714   0.3806882), wk =   0.1306122
        k(   22) = (   0.2857143   0.2857143   0.0000000), wk =   0.0326531
        k(   23) = (   0.2857143   0.2857143   0.1903441), wk =   0.0653061
        k(   24) = (   0.2857143   0.2857143   0.3806882), wk =   0.0653061
        k(   25) = (   0.2857143   0.4285714   0.0000000), wk =   0.0653061
        k(   26) = (   0.2857143   0.4285714   0.1903441), wk =   0.1306122
        k(   27) = (   0.2857143   0.4285714   0.3806882), wk =   0.1306122
        k(   28) = (   0.4285714   0.4285714   0.0000000), wk =   0.0326531
        k(   29) = (   0.4285714   0.4285714   0.1903441), wk =   0.0653061
        k(   30) = (   0.4285714   0.4285714   0.3806882), wk =   0.0653061

     Dense  grid:    54933 G-vectors     FFT dimensions: (  48,  48,  50)

     Estimated max dynamical RAM per process >     286.69 MB

     Check: negative core charge=   -0.000003

     Initial potential from superposition of free atoms

     starting charge      42.9982, renormalised to      44.0000

     negative rho (up, down):  1.705E-02 0.000E+00
     Starting wfcs are   31 randomized atomic wfcs

     total cpu time spent up to now is       13.4 secs

     Self-consistent Calculation

     iteration #  1     ecut=   100.00 Ry     beta= 0.70
     CG style diagonalization
     ethr =  1.00E-02,  avg # of iterations =  2.2

     negative rho (up, down):  1.433E-02 0.000E+00

     total cpu time spent up to now is       35.0 secs

     total energy              =    -380.06210983 Ry
     estimated scf accuracy    <       1.02509211 Ry

     iteration #  2     ecut=   100.00 Ry     beta= 0.70
     CG style diagonalization
     ethr =  2.33E-03,  avg # of iterations =  4.9

     negative rho (up, down):  1.504E-02 0.000E+00

     total cpu time spent up to now is       74.8 secs

     total energy              =    -379.77169349 Ry
     estimated scf accuracy    <       3.85487623 Ry

     iteration #  3     ecut=   100.00 Ry     beta= 0.70
     CG style diagonalization
     ethr =  2.33E-03,  avg # of iterations =  4.5

     negative rho (up, down):  1.563E-02 0.000E+00

     total cpu time spent up to now is      111.5 secs

     total energy              =    -380.54763832 Ry
     estimated scf accuracy    <       0.25075843 Ry

     iteration #  4     ecut=   100.00 Ry     beta= 0.70
     CG style diagonalization
     ethr =  5.70E-04,  avg # of iterations =  3.4

     negative rho (up, down):  1.567E-02 0.000E+00

     total cpu time spent up to now is      139.7 secs

     total energy              =    -380.56106079 Ry
     estimated scf accuracy    <       0.05199136 Ry

     iteration #  5     ecut=   100.00 Ry     beta= 0.70
     CG style diagonalization
     ethr =  1.18E-04,  avg # of iterations =  3.8

     negative rho (up, down):  1.566E-02 0.000E+00

     total cpu time spent up to now is      170.6 secs

     total energy              =    -380.57581736 Ry
     estimated scf accuracy    <       0.00497395 Ry

     iteration #  6     ecut=   100.00 Ry     beta= 0.70
     CG style diagonalization
     ethr =  1.13E-05,  avg # of iterations =  4.1

     negative rho (up, down):  1.565E-02 0.000E+00

     total cpu time spent up to now is      203.9 secs

     total energy              =    -380.57755803 Ry
     estimated scf accuracy    <       0.00720935 Ry

     iteration #  7     ecut=   100.00 Ry     beta= 0.70
     CG style diagonalization
     ethr =  1.13E-05,  avg # of iterations =  3.2

     negative rho (up, down):  1.566E-02 0.000E+00

     total cpu time spent up to now is      230.4 secs

     total energy              =    -380.57711184 Ry
     estimated scf accuracy    <       0.00255883 Ry

     iteration #  8     ecut=   100.00 Ry     beta= 0.70
     CG style diagonalization
     ethr =  5.82E-06,  avg # of iterations =  3.6

     negative rho (up, down):  1.569E-02 0.000E+00

     total cpu time spent up to now is      260.2 secs

     total energy              =    -380.57763342 Ry
     estimated scf accuracy    <       0.00001113 Ry

     iteration #  9     ecut=   100.00 Ry     beta= 0.70
     CG style diagonalization
     c_bands:  1 eigenvalues not converged
     c_bands:  1 eigenvalues not converged
     ethr =  2.53E-08,  avg # of iterations =  7.7

     negative rho (up, down):  1.572E-02 0.000E+00

     total cpu time spent up to now is      322.5 secs

     total energy              =    -380.57769004 Ry
     estimated scf accuracy    <       0.00000998 Ry

     iteration # 10     ecut=   100.00 Ry     beta= 0.70
     CG style diagonalization
     ethr =  2.27E-08,  avg # of iterations =  3.3

     negative rho (up, down):  1.580E-02 0.000E+00

     total cpu time spent up to now is      349.4 secs

     total energy              =    -380.57768830 Ry
     estimated scf accuracy    <       0.00000639 Ry

     iteration # 11     ecut=   100.00 Ry     beta= 0.70
     CG style diagonalization
     ethr =  1.45E-08,  avg # of iterations =  4.0

     negative rho (up, down):  1.580E-02 0.000E+00

     total cpu time spent up to now is      381.6 secs

     total energy              =    -380.57768966 Ry
     estimated scf accuracy    <       0.00000032 Ry

     iteration # 12     ecut=   100.00 Ry     beta= 0.70
     CG style diagonalization
     ethr =  7.36E-10,  avg # of iterations =  9.1

     negative rho (up, down):  1.581E-02 0.000E+00

     total cpu time spent up to now is      454.6 secs

     total energy              =    -380.57769108 Ry
     estimated scf accuracy    <       0.00000004 Ry

     iteration # 13     ecut=   100.00 Ry     beta= 0.70
     CG style diagonalization
     ethr =  9.09E-11,  avg # of iterations =  7.5

     negative rho (up, down):  1.581E-02 0.000E+00

     total cpu time spent up to now is      514.8 secs

     End of self-consistent calculation

          k = 0.0000 0.0000 0.0000 (  6893 PWs)   bands (ev):

   -45.1694 -21.8503 -21.7667 -21.7667  -7.1653  -6.0127  -5.7574  -4.4138
    -4.4138  -4.3742  -4.2566  -4.1426   4.8412   6.7348   6.7348   7.1091
     8.7106   8.7106   8.9508   9.2869   9.4413   9.4413

          k = 0.0000 0.0000 0.1903 (  6876 PWs)   bands (ev):

   -45.1692 -21.8666 -21.7661 -21.7661  -7.0232  -5.9705  -5.7087  -4.4260
    -4.4260  -4.3731  -4.2480  -4.1953   4.1925   6.7745   6.7745   7.4191
     8.5227   8.5227   8.8928   9.1736   9.5307   9.5307

          k = 0.0000 0.0000 0.3807 (  6856 PWs)   bands (ev):

   -45.1688 -21.8927 -21.7650 -21.7650  -6.7762  -5.8965  -5.6359  -4.4458
    -4.4458  -4.3714  -4.2863  -4.2357   3.5267   6.7522   6.8186   6.8186
     8.3250   8.3250   8.8030   9.6232   9.6232  10.3265

          k = 0.0000 0.1429 0.0000 (  6875 PWs)   bands (ev):

   -45.1691 -21.8497 -21.7821 -21.7661  -7.0568  -5.9870  -5.7341  -4.4327
    -4.4126  -4.3854  -4.2589  -4.1330   4.4559   6.7859   6.8168   7.1759
     8.6410   8.7287   8.9610   9.1488   9.1817   9.5483

          k = 0.0000 0.1429 0.1903 (  6875 PWs)   bands (ev):

   -45.1689 -21.8658 -21.7814 -21.7654  -6.9222  -5.9533  -5.6833  -4.4354
    -4.4252  -4.3846  -4.2529  -4.1667   3.9768   6.6594   6.8625   7.4620
     8.2789   8.5145   8.8914   9.0811   9.2684   9.7352

          k = 0.0000 0.1429 0.3807 (  6889 PWs)   bands (ev):

   -45.1685 -21.8918 -21.7802 -21.7644  -6.6945  -5.8940  -5.6005  -4.4454
    -4.4373  -4.3835  -4.2536  -4.2176   3.4080   6.4022   6.9128   7.0816
     8.0223   8.3186   8.9768   9.1242   9.3696  10.4349

          k = 0.0000 0.2857 0.0000 (  6861 PWs)   bands (ev):

   -45.1685 -21.8483 -21.8163 -21.7646  -6.7970  -5.9274  -5.6897  -4.4660
    -4.4110  -4.4092  -4.2585  -4.1301   3.8693   6.6249   7.0255   7.0357
     8.5186   8.5289   8.8397   8.8426   9.2594   9.9058

          k = 0.0000 0.2857 0.1903 (  6861 PWs)   bands (ev):

   -45.1682 -21.8642 -21.8155 -21.7639  -6.6914  -5.9035  -5.6297  -4.4481
    -4.4232  -4.4102  -4.2515  -4.1271   3.5760   6.4725   7.0989   7.1076
     8.0807   8.3511   8.5267   8.9284   9.2577  10.1429

          k = 0.0000 0.2857 0.3807 (  6893 PWs)   bands (ev):

   -45.1678 -21.8898 -21.8142 -21.7628  -6.5399  -5.8464  -5.5122  -4.4445
    -4.4123  -4.4103  -4.2746  -4.1002   3.1671   6.1316   6.9447   7.1616
     7.7415   8.0312   8.2149   8.9967   9.6579  10.2527

          k = 0.0000 0.4286 0.0000 (  6818 PWs)   bands (ev):

   -45.1679 -21.8473 -21.8433 -21.7635  -6.5675  -5.8625  -5.6816  -4.4883
    -4.4302  -4.4076  -4.2364  -4.1586   3.5438   6.1264   7.2785   7.3066
     7.9632   8.0643   8.7389   8.8815   9.3131  10.8203

          k = 0.0000 0.4286 0.1903 (  6854 PWs)   bands (ev):

   -45.1677 -21.8626 -21.8428 -21.7628  -6.5108  -5.8186  -5.6145  -4.4633
    -4.4308  -4.4215  -4.2130  -4.1328   3.3272   6.1048   7.1222   7.4148
     7.4879   7.9487   8.6565   8.8828   9.2439  10.5784

          k = 0.0000 0.4286 0.3807 (  6867 PWs)   bands (ev):

   -45.1673 -21.8880 -21.8413 -21.7616  -6.4624  -5.7319  -5.4483  -4.4438
    -4.4316  -4.4160  -4.2614  -4.0245   3.0085   5.9384   6.5795   7.3831
     7.4939   7.8976   7.9086   8.8843   9.8312  10.1299

          k = 0.1429 0.1429 0.0000 (  6861 PWs)   bands (ev):

   -45.1688 -21.8491 -21.7815 -21.7812  -6.9497  -5.9606  -5.7231  -4.4365
    -4.4266  -4.3921  -4.2438  -4.1241   4.1782   6.7326   6.9182   7.2401
     8.2840   8.5085   9.0015   9.0450   9.4040   9.6903

          k = 0.1429 0.1429 0.1903 (  6872 PWs)   bands (ev):

   -45.1686 -21.8651 -21.7808 -21.7805  -6.8207  -5.9366  -5.6725  -4.4411
    -4.4269  -4.3907  -4.2365  -4.1436   3.8314   6.6219   6.6950   7.4746
     8.1506   8.2798   8.8204   9.1545   9.4346   9.7510

          k = 0.1429 0.1429 0.3807 (  6864 PWs)   bands (ev):

   -45.1682 -21.8910 -21.7796 -21.7794  -6.6075  -5.8965  -5.5838  -4.4604
    -4.4013  -4.3862  -4.2358  -4.1807   3.3554   6.4334   6.4525   7.1540
     8.0623   8.0835   8.7400   9.2295   9.4740  10.3084

          k = 0.1429 0.2857 0.0000 (  6861 PWs)   bands (ev):

   -45.1682 -21.8477 -21.8155 -21.7798  -6.6942  -5.9011  -5.7070  -4.4653
    -4.4202  -4.3898  -4.2260  -4.1215   3.6907   6.5901   6.9970   7.1434
     7.9213   8.2880   8.7493   9.1509   9.3763  10.0993

          k = 0.1429 0.2857 0.1903 (  6868 PWs)   bands (ev):

   -45.1679 -21.8635 -21.8147 -21.7791  -6.5886  -5.8916  -5.6529  -4.4496
    -4.4265  -4.3798  -4.2132  -4.1086   3.5215   6.4343   6.5913   7.1870
     7.6990   8.2025   8.8418   9.1221   9.3678  10.0656

          k = 0.1429 0.2857 0.3807 (  6870 PWs)   bands (ev):

   -45.1676 -21.8890 -21.8134 -21.7780  -6.4400  -5.8660  -5.5389  -4.4487
    -4.4079  -4.3470  -4.2218  -4.0783   3.2261   6.0726   6.4940   6.8334
     7.2717   8.0155   8.8780   9.1687   9.6735   9.9603

          k = 0.1429 0.4286 0.0000 (  6850 PWs)   bands (ev):

   -45.1676 -21.8466 -21.8425 -21.7786  -6.4700  -5.8394  -5.7206  -4.4759
    -4.4111  -4.3759  -4.2089  -4.1502   3.3941   6.1390   7.0724   7.4725
     7.5130   8.1073   8.4882   9.1422   9.4145  10.6265

          k = 0.1429 0.4286 0.1903 (  6863 PWs)   bands (ev):

   -45.1674 -21.8620 -21.8420 -21.7779  -6.4075  -5.8157  -5.6645  -4.4540
    -4.4147  -4.3630  -4.1824  -4.1128   3.3071   6.1088   6.5120   6.9911
     7.5561   8.3365   8.5000   9.1320   9.3830  10.2511

          k = 0.1429 0.4286 0.3807 (  6860 PWs)   bands (ev):

   -45.1670 -21.8873 -21.8405 -21.7768  -6.3587  -5.7664  -5.5112  -4.4433
    -4.3852  -4.3385  -4.2043  -4.0048   3.1280   5.9047   6.3210   6.5257
     6.8957   8.1544   8.8303   9.0071   9.4334  10.0463

          k = 0.2857 0.2857 0.0000 (  6862 PWs)   bands (ev):

   -45.1675 -21.8462 -21.8138 -21.8136  -6.4578  -5.8428  -5.7436  -4.4558
    -4.4159  -4.3464  -4.1665  -4.1178   3.3213   6.5799   6.6857   7.3514
     7.5090   7.8048   8.5785   9.1375   9.6732  10.1729

          k = 0.2857 0.2857 0.1903 (  6864 PWs)   bands (ev):

   -45.1673 -21.8619 -21.8132 -21.8129  -6.3554  -5.8619  -5.7037  -4.4300
    -4.4164  -4.3192  -4.1411  -4.0799   3.3554   6.2711   6.2873   6.7430
     7.4152   7.8049   9.0608   9.2575   9.7003   9.8010

          k = 0.2857 0.2857 0.3807 (  6876 PWs)   bands (ev):

   -45.1669 -21.8872 -21.8119 -21.8117  -6.2282  -5.8921  -5.5887  -4.4130
    -4.3890  -4.2612  -4.1073  -4.0233   3.3422   5.7950   5.9307   6.4240
     7.0781   7.2809   8.9829   9.5969   9.6476   9.8626

          k = 0.2857 0.4286 0.0000 (  6882 PWs)   bands (ev):

   -45.1670 -21.8451 -21.8406 -21.8123  -6.2659  -5.7928  -5.7705  -4.4483
    -4.3941  -4.2844  -4.1480  -4.1273   3.0589   6.1548   6.7036   7.1864
     7.6496   7.8752   8.1155   9.1453   9.7914  10.0913

          k = 0.2857 0.4286 0.1903 (  6844 PWs)   bands (ev):

   -45.1667 -21.8603 -21.8401 -21.8117  -6.1759  -5.8135  -5.7544  -4.4201
    -4.3877  -4.2382  -4.1124  -4.0688   3.1964   6.0667   6.1801   6.3875
     7.1574   7.9209   8.8559   9.3029   9.5065   9.8716

          k = 0.2857 0.4286 0.3807 (  6854 PWs)   bands (ev):

   -45.1664 -21.8856 -21.8388 -21.8105  -6.1206  -5.8388  -5.6281  -4.3915
    -4.3574  -4.1756  -4.0578  -3.9591   3.4125   5.5457   5.6883   6.0998
     6.7135   7.2672   8.2142   9.7209   9.8081  10.0566

          k = 0.4286 0.4286 0.0000 (  6880 PWs)   bands (ev):

   -45.1665 -21.8438 -21.8394 -21.8387  -6.1504  -5.7560  -5.7490  -4.4331
    -4.3478  -4.2137  -4.1661  -4.0620   2.7971   6.0062   6.4094   7.3621
     7.4635   7.8552   8.0300   8.8775   9.4441  10.2493

          k = 0.4286 0.4286 0.1903 (  6862 PWs)   bands (ev):

   -45.1662 -21.8589 -21.8387 -21.8386  -6.0145  -5.8047  -5.7966  -4.4022
    -4.3418  -4.1316  -4.0765  -4.0297   3.0461   5.9578   6.1653   6.2192
     6.6035   7.8881   8.4940   9.2167   9.2370  10.2412

          k = 0.4286 0.4286 0.3807 (  6856 PWs)   bands (ev):

   -45.1659 -21.8840 -21.8375 -21.8375  -5.9292  -5.8847  -5.7107  -4.3523
    -4.3359  -4.0329  -3.9400  -3.9352   3.6092   5.3470   5.4569   5.8818
     6.5186   6.8186   7.1576  10.0455  10.0656  10.2282

     highest occupied level (ev):    10.8203

!    total energy              =    -380.57769120 Ry
     estimated scf accuracy    <          9.5E-09 Ry

     The total energy is the sum of the following terms:
     one-electron contribution =     -79.71077990 Ry
     hartree contribution      =      69.93309373 Ry
     xc contribution           =    -102.67737709 Ry
     ewald contribution        =    -268.12262794 Ry

     convergence has been achieved in  13 iterations

     negative rho (up, down):  1.581E-02 0.000E+00

     Forces acting on atoms (cartesian axes, Ry/au):

     atom    1 type  1   force =     0.00000000    0.00000000    0.00000667
     atom    2 type  2   force =     0.00000000    0.00000000    0.00032010
     atom    3 type  3   force =     0.00000000    0.00000000   -0.00013208
     atom    4 type  3   force =     0.00000000    0.00000000   -0.00009735
     atom    5 type  3   force =     0.00000000    0.00000000   -0.00009735

     Total force =     0.000373     Total SCF correction =     0.000156
     SCF correction compared to forces is large: reduce conv_thr to get better values


     Computing stress (Cartesian axis) and pressure


     negative rho (up, down):  1.581E-02 0.000E+00
          total   stress  (Ry/bohr**3)                   (kbar)     P=        1.49
   0.00001250   0.00000000   0.00000000            1.84        0.00        0.00
   0.00000000   0.00001250   0.00000000            0.00        1.84        0.00
   0.00000000   0.00000000   0.00000540            0.00        0.00        0.79

     Energy error            =      2.6E-05 Ry
     Gradient error          =      3.2E-04 Ry/Bohr

     bfgs converged in   2 scf cycles and   1 bfgs steps
     (criteria: energy <  1.0E-04 Ry, force <  1.0E-03 Ry/Bohr)

     End of BFGS Geometry Optimization

     Final energy             =    -380.5776912009 Ry

     File ./PTO2.bfgs deleted, as requested
Begin final coordinates

ATOMIC_POSITIONS (crystal)
Pb            0.0000000000        0.0000000000        1.0051904083
Ti            0.5000000000        0.5000000000        0.5395123895
O             0.5000000000        0.5000000000        0.0994787311
O             0.5000000000        0.0000000000        0.6115513795
O             0.0000000000        0.5000000000        0.6115513795
End final coordinates



     Writing all to output data dir ./PTO2.save/
 
     init_run     :     11.81s CPU     12.11s WALL (       1 calls)
     electrons    :    485.10s CPU    501.41s WALL (       1 calls)
     forces       :      2.27s CPU      2.36s WALL (       1 calls)
     stress       :     15.75s CPU     15.97s WALL (       1 calls)

     Called by init_run:
     wfcinit      :      7.44s CPU      7.63s WALL (       1 calls)
     potinit      :      0.10s CPU      0.10s WALL (       1 calls)
     hinit0       :      3.58s CPU      3.60s WALL (       1 calls)

     Called by electrons:
     c_bands      :    437.02s CPU    450.90s WALL (      13 calls)
     sum_band     :     40.01s CPU     41.43s WALL (      13 calls)
     v_of_rho     :      0.39s CPU      0.40s WALL (      14 calls)
     newd         :      8.00s CPU      9.01s WALL (      14 calls)
     mix_rho      :      0.23s CPU      0.25s WALL (      13 calls)

     Called by c_bands:
     init_us_2    :     10.78s CPU     10.84s WALL (     870 calls)
     init_us_2:cp :     10.75s CPU     10.82s WALL (     870 calls)
     ccgdiagg     :    381.45s CPU    393.78s WALL (     390 calls)
     wfcrot       :     56.10s CPU     57.05s WALL (     390 calls)

     Called by *cgdiagg:
     h_psi        :    296.91s CPU    304.51s WALL (   32906 calls)
     s_psi        :     72.06s CPU     75.70s WALL (   65422 calls)

     Called by h_psi:
     h_psi:calbec :     37.66s CPU     38.87s WALL (   32906 calls)
     vloc_psi     :    218.99s CPU    223.97s WALL (   32906 calls)
     add_vuspsi   :     37.18s CPU     38.96s WALL (   32906 calls)
     hs_1psi      :    283.93s CPU    291.92s WALL (   32516 calls)
     s_1psi       :     72.49s CPU     75.04s WALL (   32516 calls)

     General routines
     calbec       :     73.10s CPU     76.91s WALL (   65962 calls)
     fft          :      0.14s CPU      0.15s WALL (      64 calls)
     ffts         :      0.03s CPU      0.03s WALL (      13 calls)
     fftw         :    199.28s CPU    203.04s WALL (   91312 calls)
 
     Parallel routines
 
     PWSCF        :   8m36.27s CPU   8m54.30s WALL

 
   This run was terminated on:   9:16:25  11Apr2022            

=------------------------------------------------------------------------------=
   JOB DONE.
=------------------------------------------------------------------------------=
