
     Program PWSCF v.7.0 starts on 11Apr2022 at  9:34:56 

     This program is part of the open-source Quantum ESPRESSO suite
     for quantum simulation of materials; please cite
         "P. Giannozzi et al., J. Phys.:Condens. Matter 21 395502 (2009);
         "P. Giannozzi et al., J. Phys.:Condens. Matter 29 465901 (2017);
         "P. Giannozzi et al., J. Chem. Phys. 152 154105 (2020);
          URL http://www.quantum-espresso.org", 
     in publications or presentations arising from this work. More details at
     http://www.quantum-espresso.org/quote

     Parallel version (MPI), running on     1 processors

     MPI processes distributed on     1 nodes
     91132 MiB available memory on the printing compute node when the environment starts
 
     Waiting for input...
     Reading input from standard input
Warning: card &CELL ignored
Warning: card  CELL_DYNAMICS = 'BFGS', ignored
Warning: card  PRESS=0.1D0, ignored
Warning: card / ignored

     Current dimensions of program PWSCF are:
     Max number of different atomic species (ntypx) = 10
     Max number of k-points (npk) =  40000
     Max angular momentum in pseudopotentials (lmaxx) =  4
     Message from routine setup:
     using ibrav=0 with symmetry is DISCOURAGED, use correct ibrav instead

     Subspace diagonalization in iterative solution of the eigenvalue problem:
     a serial algorithm will be used

 
     G-vector sticks info
     --------------------
     sticks:   dense  smooth     PW     G-vecs:    dense   smooth      PW
     Sum        1685    1685    481                55173    55173    8227
 
     Using Slab Decomposition
 


     bravais-lattice index     =            0
     lattice parameter (alat)  =       7.2864  a.u.
     unit-cell volume          =     408.9101 (a.u.)^3
     number of atoms/cell      =            5
     number of atomic types    =            3
     number of electrons       =        44.00
     number of Kohn-Sham states=           22
     kinetic-energy cutoff     =     100.0000  Ry
     charge density cutoff     =     400.0000  Ry
     scf convergence threshold =      1.0E-08
     mixing beta               =       0.7000
     number of iterations used =            8  plain     mixing
     energy convergence thresh.=      1.0E-04
     force convergence thresh. =      1.0E-03
     Exchange-correlation= SLA  PZ   NOGX NOGC
                           (   1   1   0   0   0   0   0)
     nstep                     =           50


     celldm(1)=   7.286406  celldm(2)=   0.000000  celldm(3)=   0.000000
     celldm(4)=   0.000000  celldm(5)=   0.000000  celldm(6)=   0.000000

     crystal axes: (cart. coord. in units of alat)
               a(1) = (   1.000000   0.000000   0.000000 )  
               a(2) = (   0.000000   1.000000   0.000000 )  
               a(3) = (   0.000000   0.000000   1.057031 )  

     reciprocal axes: (cart. coord. in units 2 pi/alat)
               b(1) = (  1.000000  0.000000  0.000000 )  
               b(2) = (  0.000000  1.000000  0.000000 )  
               b(3) = (  0.000000  0.000000  0.946046 )  


     PseudoPot. # 1 for Pb read from file:
     ./Pb_LDA.UPF
     MD5 check sum: 062a37469794d955244864f8fe2e5624
     Pseudo is Ultrasoft + core correction, Zval = 14.0
     Generated by new atomic code, or converted to UPF format
     Using radial grid of  899 points,  6 beta functions with: 
                l(1) =   0
                l(2) =   0
                l(3) =   1
                l(4) =   1
                l(5) =   2
                l(6) =   2
     Q(r) pseudized with  6 coefficients,  rinner =    1.000   1.000   1.000
                                                       1.000   1.000

     PseudoPot. # 2 for Ti read from file:
     ./Ti_LDA.UPF
     MD5 check sum: 0d9f225c038fe889ca2a701dcc8d72cb
     Pseudo is Ultrasoft + core correction, Zval = 12.0
     Generated by new atomic code, or converted to UPF format
     Using radial grid of  851 points,  6 beta functions with: 
                l(1) =   0
                l(2) =   0
                l(3) =   1
                l(4) =   1
                l(5) =   2
                l(6) =   2
     Q(r) pseudized with  6 coefficients,  rinner =    1.000   1.000   1.000
                                                       1.000   1.000

     PseudoPot. # 3 for O  read from file:
     ./O_LDA.UPF
     MD5 check sum: 194b818514d2a7dbb603bb78519a4f40
     Pseudo is Ultrasoft + core correction, Zval =  6.0
     Generated by new atomic code, or converted to UPF format
     Using radial grid of  737 points,  5 beta functions with: 
                l(1) =   0
                l(2) =   0
                l(3) =   1
                l(4) =   1
                l(5) =   2
     Q(r) pseudized with  8 coefficients,  rinner =    0.900   0.900   0.900
                                                       0.900   0.900

     atomic species   valence    mass     pseudopotential
        Pb            14.00   207.20000     Pb( 1.00)
        Ti            12.00    47.88000     Ti( 1.00)
        O              6.00    16.00000     O ( 1.00)

      8 Sym. Ops. (no inversion) found



   Cartesian axes

     site n.     atom                  positions (alat units)
         1           Pb  tau(   1) = (   0.0000000   0.0000000   1.0625174  )
         2           Ti  tau(   2) = (   0.5000000   0.5000000   0.5702813  )
         3           O   tau(   3) = (   0.5000000   0.5000000   0.1051521  )
         4           O   tau(   4) = (   0.5000000   0.0000000   0.6464287  )
         5           O   tau(   5) = (   0.0000000   0.5000000   0.6464287  )

     number of k points=    30
                       cart. coord. in units 2pi/alat
        k(    1) = (   0.0000000   0.0000000   0.0000000), wk =   0.0081633
        k(    2) = (   0.0000000   0.0000000   0.1892092), wk =   0.0163265
        k(    3) = (   0.0000000   0.0000000   0.3784184), wk =   0.0163265
        k(    4) = (   0.0000000   0.1428571   0.0000000), wk =   0.0326531
        k(    5) = (   0.0000000   0.1428571   0.1892092), wk =   0.0653061
        k(    6) = (   0.0000000   0.1428571   0.3784184), wk =   0.0653061
        k(    7) = (   0.0000000   0.2857143   0.0000000), wk =   0.0326531
        k(    8) = (   0.0000000   0.2857143   0.1892092), wk =   0.0653061
        k(    9) = (   0.0000000   0.2857143   0.3784184), wk =   0.0653061
        k(   10) = (   0.0000000   0.4285714   0.0000000), wk =   0.0326531
        k(   11) = (   0.0000000   0.4285714   0.1892092), wk =   0.0653061
        k(   12) = (   0.0000000   0.4285714   0.3784184), wk =   0.0653061
        k(   13) = (   0.1428571   0.1428571   0.0000000), wk =   0.0326531
        k(   14) = (   0.1428571   0.1428571   0.1892092), wk =   0.0653061
        k(   15) = (   0.1428571   0.1428571   0.3784184), wk =   0.0653061
        k(   16) = (   0.1428571   0.2857143   0.0000000), wk =   0.0653061
        k(   17) = (   0.1428571   0.2857143   0.1892092), wk =   0.1306122
        k(   18) = (   0.1428571   0.2857143   0.3784184), wk =   0.1306122
        k(   19) = (   0.1428571   0.4285714   0.0000000), wk =   0.0653061
        k(   20) = (   0.1428571   0.4285714   0.1892092), wk =   0.1306122
        k(   21) = (   0.1428571   0.4285714   0.3784184), wk =   0.1306122
        k(   22) = (   0.2857143   0.2857143   0.0000000), wk =   0.0326531
        k(   23) = (   0.2857143   0.2857143   0.1892092), wk =   0.0653061
        k(   24) = (   0.2857143   0.2857143   0.3784184), wk =   0.0653061
        k(   25) = (   0.2857143   0.4285714   0.0000000), wk =   0.0653061
        k(   26) = (   0.2857143   0.4285714   0.1892092), wk =   0.1306122
        k(   27) = (   0.2857143   0.4285714   0.3784184), wk =   0.1306122
        k(   28) = (   0.4285714   0.4285714   0.0000000), wk =   0.0326531
        k(   29) = (   0.4285714   0.4285714   0.1892092), wk =   0.0653061
        k(   30) = (   0.4285714   0.4285714   0.3784184), wk =   0.0653061

     Dense  grid:    55173 G-vectors     FFT dimensions: (  48,  48,  50)

     Estimated max dynamical RAM per process >     288.01 MB

     Check: negative core charge=   -0.000003

     Initial potential from superposition of free atoms

     starting charge      42.9982, renormalised to      44.0000

     negative rho (up, down):  1.706E-02 0.000E+00
     Starting wfcs are   31 randomized atomic wfcs

     total cpu time spent up to now is       13.7 secs

     Self-consistent Calculation

     iteration #  1     ecut=   100.00 Ry     beta= 0.70
     CG style diagonalization
     ethr =  1.00E-02,  avg # of iterations =  2.2

     negative rho (up, down):  1.432E-02 0.000E+00

     total cpu time spent up to now is       35.4 secs

     total energy              =    -380.05977353 Ry
     estimated scf accuracy    <       1.02725698 Ry

     iteration #  2     ecut=   100.00 Ry     beta= 0.70
     CG style diagonalization
     ethr =  2.33E-03,  avg # of iterations =  4.9

     negative rho (up, down):  1.502E-02 0.000E+00

     total cpu time spent up to now is       75.8 secs

     total energy              =    -379.75391748 Ry
     estimated scf accuracy    <       3.96575744 Ry

     iteration #  3     ecut=   100.00 Ry     beta= 0.70
     CG style diagonalization
     ethr =  2.33E-03,  avg # of iterations =  4.5

     negative rho (up, down):  1.562E-02 0.000E+00

     total cpu time spent up to now is      112.6 secs

     total energy              =    -380.54732509 Ry
     estimated scf accuracy    <       0.25612114 Ry

     iteration #  4     ecut=   100.00 Ry     beta= 0.70
     CG style diagonalization
     ethr =  5.82E-04,  avg # of iterations =  3.4

     negative rho (up, down):  1.566E-02 0.000E+00

     total cpu time spent up to now is      141.1 secs

     total energy              =    -380.56006282 Ry
     estimated scf accuracy    <       0.05536938 Ry

     iteration #  5     ecut=   100.00 Ry     beta= 0.70
     CG style diagonalization
     ethr =  1.26E-04,  avg # of iterations =  3.8

     negative rho (up, down):  1.565E-02 0.000E+00

     total cpu time spent up to now is      172.0 secs

     total energy              =    -380.57570878 Ry
     estimated scf accuracy    <       0.00493486 Ry

     iteration #  6     ecut=   100.00 Ry     beta= 0.70
     CG style diagonalization
     ethr =  1.12E-05,  avg # of iterations =  4.1

     negative rho (up, down):  1.564E-02 0.000E+00

     total cpu time spent up to now is      205.9 secs

     total energy              =    -380.57751634 Ry
     estimated scf accuracy    <       0.00776750 Ry

     iteration #  7     ecut=   100.00 Ry     beta= 0.70
     CG style diagonalization
     ethr =  1.12E-05,  avg # of iterations =  3.2

     negative rho (up, down):  1.565E-02 0.000E+00

     total cpu time spent up to now is      232.4 secs

     total energy              =    -380.57690285 Ry
     estimated scf accuracy    <       0.00306846 Ry

     iteration #  8     ecut=   100.00 Ry     beta= 0.70
     CG style diagonalization
     ethr =  6.97E-06,  avg # of iterations =  3.6

     negative rho (up, down):  1.568E-02 0.000E+00

     total cpu time spent up to now is      262.4 secs

     total energy              =    -380.57750269 Ry
     estimated scf accuracy    <       0.00001071 Ry

     iteration #  9     ecut=   100.00 Ry     beta= 0.70
     CG style diagonalization
     c_bands:  1 eigenvalues not converged
     c_bands:  1 eigenvalues not converged
     ethr =  2.43E-08,  avg # of iterations =  7.9

     negative rho (up, down):  1.571E-02 0.000E+00

     total cpu time spent up to now is      326.9 secs

     total energy              =    -380.57756195 Ry
     estimated scf accuracy    <       0.00001060 Ry

     iteration # 10     ecut=   100.00 Ry     beta= 0.70
     CG style diagonalization
     ethr =  2.41E-08,  avg # of iterations =  3.3

     negative rho (up, down):  1.579E-02 0.000E+00

     total cpu time spent up to now is      354.1 secs

     total energy              =    -380.57756014 Ry
     estimated scf accuracy    <       0.00000661 Ry

     iteration # 11     ecut=   100.00 Ry     beta= 0.70
     CG style diagonalization
     ethr =  1.50E-08,  avg # of iterations =  4.0

     negative rho (up, down):  1.579E-02 0.000E+00

     total cpu time spent up to now is      386.9 secs

     total energy              =    -380.57756180 Ry
     estimated scf accuracy    <       0.00000038 Ry

     iteration # 12     ecut=   100.00 Ry     beta= 0.70
     CG style diagonalization
     ethr =  8.53E-10,  avg # of iterations =  8.2

     negative rho (up, down):  1.579E-02 0.000E+00

     total cpu time spent up to now is      452.9 secs

     total energy              =    -380.57756308 Ry
     estimated scf accuracy    <       0.00000004 Ry

     iteration # 13     ecut=   100.00 Ry     beta= 0.70
     CG style diagonalization
     ethr =  8.87E-11,  avg # of iterations =  8.2

     negative rho (up, down):  1.580E-02 0.000E+00

     total cpu time spent up to now is      519.0 secs

     End of self-consistent calculation

          k = 0.0000 0.0000 0.0000 (  6949 PWs)   bands (ev):

   -45.2905 -21.9580 -21.8857 -21.8857  -7.2322  -6.0916  -5.8311  -4.5184
    -4.5184  -4.4778  -4.3557  -4.2568   4.7221   6.6685   6.6685   7.0089
     8.6313   8.6313   8.8543   9.1917   9.3591   9.3591

          k = 0.0000 0.0000 0.1892 (  6953 PWs)   bands (ev):

   -45.2903 -21.9730 -21.8851 -21.8851  -7.0956  -6.0510  -5.7865  -4.5300
    -4.5300  -4.4769  -4.3492  -4.3075   4.0916   6.7084   6.7084   7.3274
     8.4488   8.4488   8.7991   9.0743   9.4446   9.4446

          k = 0.0000 0.0000 0.3784 (  6916 PWs)   bands (ev):

   -45.2900 -21.9971 -21.8841 -21.8841  -6.8575  -5.9799  -5.7212  -4.5484
    -4.5484  -4.4753  -4.3949  -4.3404   3.4408   6.7013   6.7549   6.7549
     8.2527   8.2527   8.7133   9.5337   9.5337  10.1935

          k = 0.0000 0.1429 0.0000 (  6927 PWs)   bands (ev):

   -45.2903 -21.9574 -21.9009 -21.8850  -7.1241  -6.0663  -5.8072  -4.5369
    -4.5172  -4.4889  -4.3588  -4.2465   4.3516   6.6977   6.7497   7.0778
     8.5605   8.6528   8.8774   9.0636   9.0911   9.4531

          k = 0.0000 0.1429 0.1892 (  6913 PWs)   bands (ev):

   -45.2900 -21.9723 -21.9003 -21.8844  -6.9949  -6.0340  -5.7604  -4.5396
    -4.5291  -4.4883  -4.3546  -4.2785   3.8814   6.5847   6.7953   7.3653
     8.2070   8.4435   8.8069   8.9936   9.1801   9.6335

          k = 0.0000 0.1429 0.3784 (  6929 PWs)   bands (ev):

   -45.2897 -21.9963 -21.8992 -21.8835  -6.7758  -5.9771  -5.6854  -4.5480
    -4.5413  -4.4872  -4.3592  -4.3256   3.3238   6.3462   6.8479   7.0129
     7.9511   8.2483   8.8893   9.0410   9.2786  10.3064

          k = 0.0000 0.2857 0.0000 (  6907 PWs)   bands (ev):

   -45.2896 -21.9561 -21.9347 -21.8836  -6.8654  -6.0073  -5.7614  -4.5693
    -4.5151  -4.5132  -4.3604  -4.2415   3.7779   6.5310   6.9267   6.9666
     8.4316   8.4550   8.7553   8.7555   9.1622   9.8143

          k = 0.0000 0.2857 0.1892 (  6899 PWs)   bands (ev):

   -45.2894 -21.9707 -21.9341 -21.8830  -6.7653  -5.9842  -5.7051  -4.5523
    -4.5271  -4.5137  -4.3550  -4.2380   3.4882   6.3872   7.0166   7.0288
     8.0061   8.2824   8.4448   8.8412   9.1634  10.0426

          k = 0.0000 0.2857 0.3784 (  6926 PWs)   bands (ev):

   -45.2890 -21.9943 -21.9329 -21.8820  -6.6206  -5.9294  -5.5959  -4.5471
    -4.5182  -4.5138  -4.3795  -4.2109   3.0859   6.0690   6.8654   7.0938
     7.6765   7.9543   8.1459   8.9072   9.5747  10.1335

          k = 0.0000 0.4286 0.0000 (  6878 PWs)   bands (ev):

   -45.2891 -21.9626 -21.9542 -21.8825  -6.6381  -5.9421  -5.7514  -4.5911
    -4.5335  -4.5123  -4.3409  -4.2675   3.4567   6.0356   7.1845   7.2361
     7.8631   7.9859   8.6520   8.8045   9.2148  10.7236

          k = 0.0000 0.4286 0.1892 (  6887 PWs)   bands (ev):

   -45.2889 -21.9693 -21.9612 -21.8818  -6.5866  -5.8994  -5.6869  -4.5674
    -4.5341  -4.5253  -4.3196  -4.2417   3.2428   6.0147   7.0396   7.3410
     7.4103   7.8768   8.5710   8.8037   9.1397  10.4880

          k = 0.0000 0.4286 0.3784 (  6906 PWs)   bands (ev):

   -45.2885 -21.9926 -21.9599 -21.8808  -6.5423  -5.8158  -5.5300  -4.5463
    -4.5349  -4.5227  -4.3673  -4.1369   2.9288   5.8631   6.5109   7.3155
     7.4252   7.8219   7.8362   8.8030   9.7200  10.0466

          k = 0.1429 0.1429 0.0000 (  6919 PWs)   bands (ev):

   -45.2900 -21.9568 -21.9004 -21.9001  -7.0171  -6.0405  -5.7961  -4.5400
    -4.5312  -4.4958  -4.3442  -4.2368   4.0827   6.6600   6.8230   7.1424
     8.2004   8.4308   8.9186   8.9551   9.3228   9.5968

          k = 0.1429 0.1429 0.1892 (  6911 PWs)   bands (ev):

   -45.2897 -21.9716 -21.8997 -21.8995  -6.8936  -6.0176  -5.7493  -4.5450
    -4.5309  -4.4945  -4.3382  -4.2554   3.7397   6.5530   6.6181   7.3789
     8.0688   8.2044   8.7449   9.0647   9.3529   9.6491

          k = 0.1429 0.1429 0.3784 (  6908 PWs)   bands (ev):

   -45.2894 -21.9955 -21.8986 -21.8985  -6.6888  -5.9794  -5.6683  -4.5634
    -4.5059  -4.4904  -4.3397  -4.2904   3.2720   6.3712   6.3985   7.0745
     7.9792   8.0167   8.6633   9.1419   9.3922  10.1846

          k = 0.1429 0.2857 0.0000 (  6901 PWs)   bands (ev):

   -45.2893 -21.9555 -21.9340 -21.8987  -6.7624  -5.9819  -5.7797  -4.5682
    -4.5247  -4.4936  -4.3273  -4.2324   3.6064   6.5020   6.9113   7.0465
     7.8366   8.2088   8.6542   9.0687   9.2847  10.0107

          k = 0.1429 0.2857 0.1892 (  6906 PWs)   bands (ev):

   -45.2891 -21.9700 -21.9334 -21.8981  -6.6625  -5.9729  -5.7287  -4.5535
    -4.5303  -4.4836  -4.3161  -4.2195   3.4369   6.3524   6.5180   7.1026
     7.6178   8.1179   8.7561   9.0372   9.2823   9.9698

          k = 0.1429 0.2857 0.3784 (  6905 PWs)   bands (ev):

   -45.2888 -21.9936 -21.9322 -21.8970  -6.5209  -5.9486  -5.6227  -4.5520
    -4.5124  -4.4526  -4.3262  -4.1892   3.1449   6.0101   6.4288   6.7664
     7.1910   7.9306   8.8122   9.0850   9.5892   9.8484

          k = 0.1429 0.4286 0.0000 (  6890 PWs)   bands (ev):

   -45.2888 -21.9617 -21.9535 -21.8975  -6.5397  -5.9199  -5.7929  -4.5786
    -4.5155  -4.4789  -4.3122  -4.2587   3.3148   6.0484   6.9918   7.3751
     7.4254   8.0124   8.4126   9.0628   9.3153  10.5246

          k = 0.1429 0.4286 0.1892 (  6906 PWs)   bands (ev):

   -45.2886 -21.9686 -21.9604 -21.8968  -6.4831  -5.8970  -5.7388  -4.5580
    -4.5185  -4.4657  -4.2888  -4.2214   3.2266   6.0194   6.4410   6.9133
     7.4748   8.2508   8.4111   9.0493   9.2884  10.1581

          k = 0.1429 0.4286 0.3784 (  6895 PWs)   bands (ev):

   -45.2882 -21.9918 -21.9591 -21.8958  -6.4388  -5.8499  -5.5942  -4.5469
    -4.4907  -4.4418  -4.3110  -4.1170   3.0486   5.8328   6.2517   6.4518
     6.8388   8.0663   8.7464   8.9391   9.3371   9.9532

          k = 0.2857 0.2857 0.0000 (  6898 PWs)   bands (ev):

   -45.2886 -21.9542 -21.9323 -21.9322  -6.5252  -5.9251  -5.8189  -4.5584
    -4.5200  -4.4504  -4.2665  -4.2275   3.2491   6.4936   6.5935   7.2504
     7.4202   7.7289   8.4823   9.0379   9.5946  10.0761

          k = 0.2857 0.2857 0.1892 (  6905 PWs)   bands (ev):

   -45.2884 -21.9685 -21.9317 -21.9316  -6.4293  -5.9441  -5.7807  -4.5339
    -4.5202  -4.4233  -4.2429  -4.1907   3.2788   6.1976   6.2109   6.6564
     7.3323   7.7163   8.9617   9.1622   9.6206   9.7102

          k = 0.2857 0.2857 0.3784 (  6908 PWs)   bands (ev):

   -45.2881 -21.9918 -21.9307 -21.9305  -6.3092  -5.9741  -5.6731  -4.5166
    -4.4946  -4.3664  -4.2121  -4.1354   3.2619   5.7356   5.8646   6.3597
     6.9998   7.1923   8.8981   9.5090   9.5630   9.7764

          k = 0.2857 0.4286 0.0000 (  6916 PWs)   bands (ev):

   -45.2881 -21.9598 -21.9522 -21.9308  -6.3321  -5.8749  -5.8498  -4.5508
    -4.4982  -4.3886  -4.2552  -4.2274   2.9938   6.0644   6.6132   7.0997
     7.5504   7.8009   8.0176   9.0445   9.7069   9.9784

          k = 0.2857 0.4286 0.1892 (  6887 PWs)   bands (ev):

   -45.2879 -21.9670 -21.9585 -21.9303  -6.2505  -5.8956  -5.8325  -4.5240
    -4.4916  -4.3418  -4.2191  -4.1743   3.1264   5.9858   6.1021   6.3097
     7.0731   7.8395   8.7414   9.2092   9.4120   9.7898

          k = 0.2857 0.4286 0.3784 (  6895 PWs)   bands (ev):

   -45.2876 -21.9902 -21.9575 -21.9293  -6.2013  -5.9211  -5.7127  -4.4960
    -4.4634  -4.2781  -4.1666  -4.0707   3.3343   5.4832   5.6294   6.0170
     6.6484   7.1863   8.1235   9.6372   9.7260   9.9612

          k = 0.4286 0.4286 0.0000 (  6918 PWs)   bands (ev):

   -45.2876 -21.9585 -21.9579 -21.9502  -6.2131  -5.8399  -5.8336  -4.5355
    -4.4518  -4.3191  -4.2727  -4.1588   2.7409   5.9165   6.3161   7.2795
     7.3883   7.7587   7.9337   8.7751   9.3032  10.1678

          k = 0.4286 0.4286 0.1892 (  6904 PWs)   bands (ev):

   -45.2874 -21.9656 -21.9572 -21.9569  -6.0861  -5.8880  -5.8786  -4.5063
    -4.4459  -4.2379  -4.1857  -4.1289   2.9849   5.8703   6.0913   6.1481
     6.5187   7.8085   8.3679   9.1160   9.1384  10.1601

          k = 0.4286 0.4286 0.3784 (  6898 PWs)   bands (ev):

   -45.2871 -21.9886 -21.9561 -21.9561  -6.0105  -5.9663  -5.7959  -4.4591
    -4.4403  -4.1354  -4.0489  -4.0486   3.5349   5.2892   5.4030   5.7969
     6.4253   6.7635   7.0675   9.9495   9.9686  10.1475

     highest occupied level (ev):    10.7236

!    total energy              =    -380.57756327 Ry
     estimated scf accuracy    <          7.1E-09 Ry

     The total energy is the sum of the following terms:
     one-electron contribution =     -80.54099535 Ry
     hartree contribution      =      70.18225117 Ry
     xc contribution           =    -102.65482471 Ry
     ewald contribution        =    -267.56399438 Ry

     convergence has been achieved in  13 iterations

     negative rho (up, down):  1.580E-02 0.000E+00

     Forces acting on atoms (cartesian axes, Ry/au):

     atom    1 type  1   force =     0.00000000    0.00000000   -0.00106836
     atom    2 type  2   force =     0.00000000    0.00000000   -0.00596590
     atom    3 type  3   force =     0.00000000    0.00000000    0.00687648
     atom    4 type  3   force =     0.00000000    0.00000000    0.00007889
     atom    5 type  3   force =     0.00000000    0.00000000    0.00007889

     Total force =     0.009167     Total SCF correction =     0.000055


     Computing stress (Cartesian axis) and pressure


     negative rho (up, down):  1.580E-02 0.000E+00
          total   stress  (Ry/bohr**3)                   (kbar)     P=       -9.88
  -0.00004046   0.00000000   0.00000000           -5.95        0.00        0.00
   0.00000000  -0.00004046   0.00000000            0.00       -5.95        0.00
   0.00000000   0.00000000  -0.00012066            0.00        0.00      -17.75

     Energy error            =      1.1E-04 Ry
     Gradient error          =      6.9E-03 Ry/Bohr

     number of scf cycles    =   2
     number of bfgs steps    =   1

     energy             old  =    -380.5776752059 Ry
     energy             new  =    -380.5775632703 Ry

     CASE: energy            _new > energy            _old


 %%%%%%%%%%%%%%%%%%%%%%%%%%%%%%%%%%%%%%%%%%%%%%%%%%%%%%%%%%%%%%%%%%%%%%%%%%%%%%
     Error in routine bfgs (1):
     dE0s is positive which should never happen
 %%%%%%%%%%%%%%%%%%%%%%%%%%%%%%%%%%%%%%%%%%%%%%%%%%%%%%%%%%%%%%%%%%%%%%%%%%%%%%

     stopping ...
