
     Program PWSCF v.7.0 starts on 11Apr2022 at  9:37: 1 

     This program is part of the open-source Quantum ESPRESSO suite
     for quantum simulation of materials; please cite
         "P. Giannozzi et al., J. Phys.:Condens. Matter 21 395502 (2009);
         "P. Giannozzi et al., J. Phys.:Condens. Matter 29 465901 (2017);
         "P. Giannozzi et al., J. Chem. Phys. 152 154105 (2020);
          URL http://www.quantum-espresso.org", 
     in publications or presentations arising from this work. More details at
     http://www.quantum-espresso.org/quote

     Parallel version (MPI), running on     1 processors

     MPI processes distributed on     1 nodes
     89959 MiB available memory on the printing compute node when the environment starts
 
     Waiting for input...
     Reading input from standard input
Warning: card &CELL ignored
Warning: card  CELL_DYNAMICS = 'BFGS', ignored
Warning: card  PRESS=0.1D0, ignored
Warning: card / ignored

     Current dimensions of program PWSCF are:
     Max number of different atomic species (ntypx) = 10
     Max number of k-points (npk) =  40000
     Max angular momentum in pseudopotentials (lmaxx) =  4
     Message from routine setup:
     using ibrav=0 with symmetry is DISCOURAGED, use correct ibrav instead

     Subspace diagonalization in iterative solution of the eigenvalue problem:
     a serial algorithm will be used

 
     G-vector sticks info
     --------------------
     sticks:   dense  smooth     PW     G-vecs:    dense   smooth      PW
     Sum        1689    1689    481                54933    54933    8221
 
     Using Slab Decomposition
 


     bravais-lattice index     =            0
     lattice parameter (alat)  =       7.3155  a.u.
     unit-cell volume          =     406.4656 (a.u.)^3
     number of atoms/cell      =            5
     number of atomic types    =            3
     number of electrons       =        44.00
     number of Kohn-Sham states=           22
     kinetic-energy cutoff     =     100.0000  Ry
     charge density cutoff     =     400.0000  Ry
     scf convergence threshold =      1.0E-08
     mixing beta               =       0.7000
     number of iterations used =            8  plain     mixing
     energy convergence thresh.=      1.0E-04
     force convergence thresh. =      1.0E-03
     Exchange-correlation= SLA  PZ   NOGX NOGC
                           (   1   1   0   0   0   0   0)
     nstep                     =           50


     celldm(1)=   7.315508  celldm(2)=   0.000000  celldm(3)=   0.000000
     celldm(4)=   0.000000  celldm(5)=   0.000000  celldm(6)=   0.000000

     crystal axes: (cart. coord. in units of alat)
               a(1) = (   1.000000   0.000000   0.000000 )  
               a(2) = (   0.000000   0.992044   0.000000 )  
               a(3) = (   0.000000   0.000000   1.046549 )  

     reciprocal axes: (cart. coord. in units 2 pi/alat)
               b(1) = (  1.000000  0.000000  0.000000 )  
               b(2) = (  0.000000  1.008020  0.000000 )  
               b(3) = (  0.000000  0.000000  0.955522 )  


     PseudoPot. # 1 for Pb read from file:
     ./Pb_LDA.UPF
     MD5 check sum: 062a37469794d955244864f8fe2e5624
     Pseudo is Ultrasoft + core correction, Zval = 14.0
     Generated by new atomic code, or converted to UPF format
     Using radial grid of  899 points,  6 beta functions with: 
                l(1) =   0
                l(2) =   0
                l(3) =   1
                l(4) =   1
                l(5) =   2
                l(6) =   2
     Q(r) pseudized with  6 coefficients,  rinner =    1.000   1.000   1.000
                                                       1.000   1.000

     PseudoPot. # 2 for Ti read from file:
     ./Ti_LDA.UPF
     MD5 check sum: 0d9f225c038fe889ca2a701dcc8d72cb
     Pseudo is Ultrasoft + core correction, Zval = 12.0
     Generated by new atomic code, or converted to UPF format
     Using radial grid of  851 points,  6 beta functions with: 
                l(1) =   0
                l(2) =   0
                l(3) =   1
                l(4) =   1
                l(5) =   2
                l(6) =   2
     Q(r) pseudized with  6 coefficients,  rinner =    1.000   1.000   1.000
                                                       1.000   1.000

     PseudoPot. # 3 for O  read from file:
     ./O_LDA.UPF
     MD5 check sum: 194b818514d2a7dbb603bb78519a4f40
     Pseudo is Ultrasoft + core correction, Zval =  6.0
     Generated by new atomic code, or converted to UPF format
     Using radial grid of  737 points,  5 beta functions with: 
                l(1) =   0
                l(2) =   0
                l(3) =   1
                l(4) =   1
                l(5) =   2
     Q(r) pseudized with  8 coefficients,  rinner =    0.900   0.900   0.900
                                                       0.900   0.900

     atomic species   valence    mass     pseudopotential
        Pb            14.00   207.20000     Pb( 1.00)
        Ti            12.00    47.88000     Ti( 1.00)
        O              6.00    16.00000     O ( 1.00)

      4 Sym. Ops. (no inversion) found



   Cartesian axes

     site n.     atom                  positions (alat units)
         1           Pb  tau(   1) = (   0.0000000   0.0000000   1.0519809  )
         2           Ti  tau(   2) = (   0.5000000   0.4960219   0.5646261  )
         3           O   tau(   3) = (   0.5000000   0.4960219   0.1041094  )
         4           O   tau(   4) = (   0.5000000   0.0000000   0.6400184  )
         5           O   tau(   5) = (   0.0000000   0.4960219   0.6400184  )

     number of k points=    48
                       cart. coord. in units 2pi/alat
        k(    1) = (   0.0000000   0.0000000   0.0000000), wk =   0.0081633
        k(    2) = (   0.0000000   0.0000000   0.1911043), wk =   0.0163265
        k(    3) = (   0.0000000   0.0000000   0.3822086), wk =   0.0163265
        k(    4) = (   0.0000000   0.1440029   0.0000000), wk =   0.0163265
        k(    5) = (   0.0000000   0.1440029   0.1911043), wk =   0.0326531
        k(    6) = (   0.0000000   0.1440029   0.3822086), wk =   0.0326531
        k(    7) = (   0.0000000   0.2880057   0.0000000), wk =   0.0163265
        k(    8) = (   0.0000000   0.2880057   0.1911043), wk =   0.0326531
        k(    9) = (   0.0000000   0.2880057   0.3822086), wk =   0.0326531
        k(   10) = (   0.0000000   0.4320086   0.0000000), wk =   0.0163265
        k(   11) = (   0.0000000   0.4320086   0.1911043), wk =   0.0326531
        k(   12) = (   0.0000000   0.4320086   0.3822086), wk =   0.0326531
        k(   13) = (   0.1428571   0.0000000   0.0000000), wk =   0.0163265
        k(   14) = (   0.1428571   0.0000000   0.1911043), wk =   0.0326531
        k(   15) = (   0.1428571   0.0000000   0.3822086), wk =   0.0326531
        k(   16) = (   0.1428571   0.1440029   0.0000000), wk =   0.0326531
        k(   17) = (   0.1428571   0.1440029   0.1911043), wk =   0.0653061
        k(   18) = (   0.1428571   0.1440029   0.3822086), wk =   0.0653061
        k(   19) = (   0.1428571   0.2880057   0.0000000), wk =   0.0326531
        k(   20) = (   0.1428571   0.2880057   0.1911043), wk =   0.0653061
        k(   21) = (   0.1428571   0.2880057   0.3822086), wk =   0.0653061
        k(   22) = (   0.1428571   0.4320086   0.0000000), wk =   0.0326531
        k(   23) = (   0.1428571   0.4320086   0.1911043), wk =   0.0653061
        k(   24) = (   0.1428571   0.4320086   0.3822086), wk =   0.0653061
        k(   25) = (   0.2857143   0.0000000   0.0000000), wk =   0.0163265
        k(   26) = (   0.2857143   0.0000000   0.1911043), wk =   0.0326531
        k(   27) = (   0.2857143   0.0000000   0.3822086), wk =   0.0326531
        k(   28) = (   0.2857143   0.1440029   0.0000000), wk =   0.0326531
        k(   29) = (   0.2857143   0.1440029   0.1911043), wk =   0.0653061
        k(   30) = (   0.2857143   0.1440029   0.3822086), wk =   0.0653061
        k(   31) = (   0.2857143   0.2880057   0.0000000), wk =   0.0326531
        k(   32) = (   0.2857143   0.2880057   0.1911043), wk =   0.0653061
        k(   33) = (   0.2857143   0.2880057   0.3822086), wk =   0.0653061
        k(   34) = (   0.2857143   0.4320086   0.0000000), wk =   0.0326531
        k(   35) = (   0.2857143   0.4320086   0.1911043), wk =   0.0653061
        k(   36) = (   0.2857143   0.4320086   0.3822086), wk =   0.0653061
        k(   37) = (   0.4285714   0.0000000   0.0000000), wk =   0.0163265
        k(   38) = (   0.4285714   0.0000000   0.1911043), wk =   0.0326531
        k(   39) = (   0.4285714   0.0000000   0.3822086), wk =   0.0326531
        k(   40) = (   0.4285714   0.1440029   0.0000000), wk =   0.0326531
        k(   41) = (   0.4285714   0.1440029   0.1911043), wk =   0.0653061
        k(   42) = (   0.4285714   0.1440029   0.3822086), wk =   0.0653061
        k(   43) = (   0.4285714   0.2880057   0.0000000), wk =   0.0326531
        k(   44) = (   0.4285714   0.2880057   0.1911043), wk =   0.0653061
        k(   45) = (   0.4285714   0.2880057   0.3822086), wk =   0.0653061
        k(   46) = (   0.4285714   0.4320086   0.0000000), wk =   0.0326531
        k(   47) = (   0.4285714   0.4320086   0.1911043), wk =   0.0653061
        k(   48) = (   0.4285714   0.4320086   0.3822086), wk =   0.0653061

     Dense  grid:    54933 G-vectors     FFT dimensions: (  48,  48,  50)

     Estimated max dynamical RAM per process >     328.16 MB

     Check: negative core charge=   -0.000003

     Initial potential from superposition of free atoms

     starting charge      42.9982, renormalised to      44.0000

     negative rho (up, down):  1.705E-02 0.000E+00
     Starting wfcs are   31 randomized atomic wfcs

     total cpu time spent up to now is       18.6 secs

     Self-consistent Calculation

     iteration #  1     ecut=   100.00 Ry     beta= 0.70
     CG style diagonalization
     ethr =  1.00E-02,  avg # of iterations =  2.1

     negative rho (up, down):  1.433E-02 0.000E+00

     total cpu time spent up to now is       51.9 secs

     total energy              =    -380.06173913 Ry
     estimated scf accuracy    <       1.02540764 Ry

     iteration #  2     ecut=   100.00 Ry     beta= 0.70
     CG style diagonalization
     ethr =  2.33E-03,  avg # of iterations =  4.9

     negative rho (up, down):  1.504E-02 0.000E+00

     total cpu time spent up to now is      115.1 secs

     total energy              =    -379.76933020 Ry
     estimated scf accuracy    <       3.86732440 Ry

     iteration #  3     ecut=   100.00 Ry     beta= 0.70
     CG style diagonalization
     ethr =  2.33E-03,  avg # of iterations =  4.5

     negative rho (up, down):  1.563E-02 0.000E+00

     total cpu time spent up to now is      172.4 secs

     total energy              =    -380.54784982 Ry
     estimated scf accuracy    <       0.25029023 Ry

     iteration #  4     ecut=   100.00 Ry     beta= 0.70
     CG style diagonalization
     ethr =  5.69E-04,  avg # of iterations =  3.4

     negative rho (up, down):  1.567E-02 0.000E+00

     total cpu time spent up to now is      216.6 secs

     total energy              =    -380.56094889 Ry
     estimated scf accuracy    <       0.05235686 Ry

     iteration #  5     ecut=   100.00 Ry     beta= 0.70
     CG style diagonalization
     ethr =  1.19E-04,  avg # of iterations =  3.8

     negative rho (up, down):  1.566E-02 0.000E+00

     total cpu time spent up to now is      265.2 secs

     total energy              =    -380.57582015 Ry
     estimated scf accuracy    <       0.00475618 Ry

     iteration #  6     ecut=   100.00 Ry     beta= 0.70
     CG style diagonalization
     ethr =  1.08E-05,  avg # of iterations =  4.1

     negative rho (up, down):  1.565E-02 0.000E+00

     total cpu time spent up to now is      317.7 secs

     total energy              =    -380.57750990 Ry
     estimated scf accuracy    <       0.00705321 Ry

     iteration #  7     ecut=   100.00 Ry     beta= 0.70
     CG style diagonalization
     ethr =  1.08E-05,  avg # of iterations =  3.2

     negative rho (up, down):  1.566E-02 0.000E+00

     total cpu time spent up to now is      359.0 secs

     total energy              =    -380.57702833 Ry
     estimated scf accuracy    <       0.00263599 Ry

     iteration #  8     ecut=   100.00 Ry     beta= 0.70
     CG style diagonalization
     ethr =  5.99E-06,  avg # of iterations =  3.6

     negative rho (up, down):  1.569E-02 0.000E+00

     total cpu time spent up to now is      405.6 secs

     total energy              =    -380.57754942 Ry
     estimated scf accuracy    <       0.00000821 Ry

     iteration #  9     ecut=   100.00 Ry     beta= 0.70
     CG style diagonalization
     c_bands:  1 eigenvalues not converged
     c_bands:  1 eigenvalues not converged
     c_bands:  1 eigenvalues not converged
     ethr =  1.87E-08,  avg # of iterations =  8.4

     negative rho (up, down):  1.572E-02 0.000E+00

     total cpu time spent up to now is      511.7 secs

     total energy              =    -380.57760630 Ry
     estimated scf accuracy    <       0.00001320 Ry

     iteration # 10     ecut=   100.00 Ry     beta= 0.70
     CG style diagonalization
     ethr =  1.87E-08,  avg # of iterations =  3.5

     negative rho (up, down):  1.576E-02 0.000E+00

     total cpu time spent up to now is      555.7 secs

     total energy              =    -380.57760612 Ry
     estimated scf accuracy    <       0.00000645 Ry

     iteration # 11     ecut=   100.00 Ry     beta= 0.70
     CG style diagonalization
     ethr =  1.47E-08,  avg # of iterations =  3.3

     negative rho (up, down):  1.580E-02 0.000E+00

     total cpu time spent up to now is      597.0 secs

     total energy              =    -380.57760491 Ry
     estimated scf accuracy    <       0.00000458 Ry

     iteration # 12     ecut=   100.00 Ry     beta= 0.70
     CG style diagonalization
     ethr =  1.04E-08,  avg # of iterations =  4.0

     negative rho (up, down):  1.581E-02 0.000E+00

     total cpu time spent up to now is      648.2 secs

     total energy              =    -380.57760619 Ry
     estimated scf accuracy    <       0.00000031 Ry

     iteration # 13     ecut=   100.00 Ry     beta= 0.70
     CG style diagonalization
     ethr =  7.00E-10,  avg # of iterations =  7.9

     negative rho (up, down):  1.581E-02 0.000E+00

     total cpu time spent up to now is      746.4 secs

     total energy              =    -380.57760708 Ry
     estimated scf accuracy    <       0.00000006 Ry

     iteration # 14     ecut=   100.00 Ry     beta= 0.70
     CG style diagonalization
     ethr =  1.29E-10,  avg # of iterations =  6.8

     negative rho (up, down):  1.581E-02 0.000E+00

     total cpu time spent up to now is      830.9 secs

     total energy              =    -380.57760719 Ry
     estimated scf accuracy    <       0.00000002 Ry

     iteration # 15     ecut=   100.00 Ry     beta= 0.70
     CG style diagonalization
     ethr =  3.83E-11,  avg # of iterations =  5.7

     negative rho (up, down):  1.581E-02 0.000E+00

     total cpu time spent up to now is      903.3 secs

     End of self-consistent calculation

          k = 0.0000 0.0000 0.0000 (  6881 PWs)   bands (ev):

   -45.1688 -21.8497 -21.7704 -21.7621  -7.1655  -6.0129  -5.7572  -4.4146
    -4.4121  -4.3738  -4.2569  -4.1417   4.8414   6.7037   6.7665   7.1090
     8.7038   8.7178   8.9504   9.2873   9.4350   9.4479

          k = 0.0000 0.0000 0.1911 (  6862 PWs)   bands (ev):

   -45.1686 -21.8659 -21.7698 -21.7615  -7.0236  -5.9707  -5.7085  -4.4269
    -4.4245  -4.3728  -4.2487  -4.1940   4.1926   6.7473   6.8023   7.4190
     8.5106   8.5353   8.8927   9.1740   9.5271   9.5348

          k = 0.0000 0.0000 0.3822 (  6852 PWs)   bands (ev):

   -45.1682 -21.8920 -21.7687 -21.7604  -6.7767  -5.8966  -5.6355  -4.4465
    -4.4443  -4.3711  -4.2866  -4.2348   3.5267   6.7523   6.7995   6.8380
     8.3016   8.3491   8.8026   9.6218   9.6250  10.3272

          k = 0.0000 0.1440 0.0000 (  6873 PWs)   bands (ev):

   -45.1685 -21.8491 -21.7865 -21.7614  -7.0542  -5.9859  -5.7333  -4.4312
    -4.4134  -4.3854  -4.2589  -4.1312   4.4578   6.7861   6.8031   7.1733
     8.6498   8.7201   8.9642   9.1519   9.1788   9.5479

          k = 0.0000 0.1440 0.1911 (  6872 PWs)   bands (ev):

   -45.1683 -21.8652 -21.7858 -21.7608  -6.9194  -5.9527  -5.6826  -4.4340
    -4.4259  -4.3847  -4.2543  -4.1629   3.9793   6.6762   6.8358   7.4573
     8.2782   8.5023   8.8934   9.0907   9.2673   9.7372

          k = 0.0000 0.1440 0.3822 (  6880 PWs)   bands (ev):

   -45.1679 -21.8911 -21.7847 -21.7597  -6.6911  -5.8948  -5.5999  -4.4461
    -4.4365  -4.3836  -4.2564  -4.2108   3.4111   6.4137   6.8948   7.0783
     8.0307   8.2951   8.9713   9.1375   9.3657  10.4340

          k = 0.0000 0.2880 0.0000 (  6857 PWs)   bands (ev):

   -45.1678 -21.8477 -21.8222 -21.7599  -6.7876  -5.9234  -5.6874  -4.4647
    -4.4119  -4.4100  -4.2567  -4.1273   3.8699   6.6140   7.0051   7.0232
     8.5151   8.5270   8.8425   8.8468   9.2584   9.9092

          k = 0.0000 0.2880 0.1911 (  6868 PWs)   bands (ev):

   -45.1676 -21.8635 -21.8215 -21.7592  -6.6815  -5.9012  -5.6276  -4.4465
    -4.4239  -4.4112  -4.2523  -4.1202   3.5807   6.4699   7.0726   7.0977
     8.0779   8.3387   8.5185   8.9221   9.2669  10.1523

          k = 0.0000 0.2880 0.3822 (  6888 PWs)   bands (ev):

   -45.1672 -21.8891 -21.8202 -21.7581  -6.5293  -5.8470  -5.5104  -4.4451
    -4.4113  -4.4109  -4.2758  -4.0895   3.1760   6.1367   6.9351   7.1459
     7.7256   8.0215   8.1919   8.9855   9.6776  10.2409

          k = 0.0000 0.4320 0.0000 (  6841 PWs)   bands (ev):

   -45.1672 -21.8516 -21.8455 -21.7587  -6.5526  -5.8549  -5.6790  -4.4868
    -4.4319  -4.4082  -4.2307  -4.1575   3.5430   6.0994   7.2719   7.2721
     7.9720   8.0553   8.7390   8.8818   9.3121  10.8342

          k = 0.0000 0.4320 0.1911 (  6842 PWs)   bands (ev):

   -45.1670 -21.8619 -21.8501 -21.7580  -6.4964  -5.8123  -5.6123  -4.4616
    -4.4324  -4.4220  -4.2127  -4.1234   3.3328   6.0805   7.1171   7.3836
     7.4819   7.9405   8.6506   8.8759   9.2463  10.5853

          k = 0.0000 0.4320 0.3822 (  6873 PWs)   bands (ev):

   -45.1666 -21.8872 -21.8486 -21.7568  -6.4501  -5.7271  -5.4458  -4.4443
    -4.4333  -4.4144  -4.2609  -4.0107   3.0221   5.9307   6.5638   7.3663
     7.4821   7.8728   7.8971   8.8701   9.8158  10.1351

          k = 0.1429 0.0000 0.0000 (  6869 PWs)   bands (ev):

   -45.1685 -21.8491 -21.7768 -21.7698  -7.0599  -5.9884  -5.7344  -4.4334
    -4.4110  -4.3846  -4.2591  -4.1333   4.4545   6.7688   6.8479   7.1784
     8.6327   8.7375   8.9576   9.1465   9.1850   9.5491

          k = 0.1429 0.0000 0.1911 (  6879 PWs)   bands (ev):

   -45.1683 -21.8653 -21.7761 -21.7692  -6.9256  -5.9541  -5.6834  -4.4362
    -4.4236  -4.3839  -4.2519  -4.1688   3.9746   6.6429   6.8896   7.4661
     8.2803   8.5272   8.8899   9.0718   9.2701   9.7337

          k = 0.1429 0.0000 0.3822 (  6882 PWs)   bands (ev):

   -45.1679 -21.8912 -21.7749 -21.7681  -6.6988  -5.8933  -5.6004  -4.4440
    -4.4375  -4.3828  -4.2503  -4.2235   3.4049   6.3912   6.9311   7.0845
     8.0145   8.3427   8.9827   9.1110   9.3740  10.4370

          k = 0.1429 0.1440 0.0000 (  6859 PWs)   bands (ev):

   -45.1682 -21.8484 -21.7859 -21.7760  -6.9498  -5.9608  -5.7228  -4.4362
    -4.4262  -4.3918  -4.2439  -4.1234   4.1785   6.7308   6.9200   7.2400
     8.2838   8.5090   9.0003   9.0468   9.4040   9.6905

          k = 0.1429 0.1440 0.1911 (  6878 PWs)   bands (ev):

   -45.1680 -21.8645 -21.7852 -21.7753  -6.8208  -5.9367  -5.6722  -4.4408
    -4.4265  -4.3904  -4.2366  -4.1428   3.8315   6.6182   6.6988   7.4745
     8.1483   8.2825   8.8204   9.1549   9.4345   9.7514

          k = 0.1429 0.1440 0.3822 (  6868 PWs)   bands (ev):

   -45.1676 -21.8903 -21.7840 -21.7742  -6.6079  -5.8965  -5.5834  -4.4601
    -4.4009  -4.3859  -4.2359  -4.1799   3.3554   6.4276   6.4586   7.1538
     8.0605   8.0857   8.7403   9.2296   9.4739  10.3091

          k = 0.1429 0.2880 0.0000 (  6862 PWs)   bands (ev):

   -45.1675 -21.8471 -21.8215 -21.7744  -6.6878  -5.8983  -5.7053  -4.4646
    -4.4202  -4.3898  -4.2251  -4.1195   3.6905   6.5774   6.9859   7.1370
     7.9257   8.2888   8.7529   9.1384   9.3767  10.1048

          k = 0.1429 0.2880 0.1911 (  6862 PWs)   bands (ev):

   -45.1673 -21.8628 -21.8208 -21.7737  -6.5819  -5.8899  -5.6513  -4.4489
    -4.4264  -4.3797  -4.2144  -4.1034   3.5243   6.4300   6.5796   7.1826
     7.6991   8.1922   8.8287   9.1170   9.3713  10.0748

          k = 0.1429 0.2880 0.3822 (  6866 PWs)   bands (ev):

   -45.1669 -21.8883 -21.8195 -21.7726  -6.4330  -5.8659  -5.5375  -4.4481
    -4.4077  -4.3471  -4.2245  -4.0692   3.2325   6.0769   6.4833   6.8303
     7.2593   8.0053   8.8642   9.1520   9.6908   9.9528

          k = 0.1429 0.4320 0.0000 (  6846 PWs)   bands (ev):

   -45.1669 -21.8508 -21.8449 -21.7731  -6.4587  -5.8326  -5.7184  -4.4750
    -4.4110  -4.3761  -4.2047  -4.1495   3.3926   6.1108   7.0604   7.4601
     7.5192   8.1101   8.4876   9.1284   9.4108  10.6418

          k = 0.1429 0.4320 0.1911 (  6856 PWs)   bands (ev):

   -45.1667 -21.8612 -21.8493 -21.7724  -6.3967  -5.8098  -5.6628  -4.4531
    -4.4142  -4.3634  -4.1836  -4.1043   3.3108   6.0838   6.4991   6.9972
     7.5570   8.3167   8.4832   9.1259   9.3821  10.2578

          k = 0.1429 0.4320 0.3822 (  6856 PWs)   bands (ev):

   -45.1663 -21.8865 -21.8479 -21.7712  -6.3501  -5.7610  -5.5094  -4.4426
    -4.3844  -4.3388  -4.2068  -3.9916   3.1396   5.8997   6.3072   6.5094
     6.8939   8.1467   8.7941   8.9931   9.4209  10.0573

          k = 0.2857 0.0000 0.0000 (  6873 PWs)   bands (ev):

   -45.1679 -21.8477 -21.8095 -21.7685  -6.8066  -5.9314  -5.6916  -4.4667
    -4.4095  -4.4076  -4.2601  -4.1317   3.8693   6.6349   7.0285   7.0665
     8.5103   8.5428   8.8378   8.8383   9.2609   9.9028

          k = 0.2857 0.0000 0.1911 (  6871 PWs)   bands (ev):

   -45.1677 -21.8637 -21.8087 -21.7678  -6.7016  -5.9059  -5.6312  -4.4490
    -4.4218  -4.4087  -4.2505  -4.1329   3.5718   6.4747   7.1176   7.1254
     8.0839   8.3639   8.5351   8.9356   9.2484  10.1340

          k = 0.2857 0.0000 0.3822 (  6877 PWs)   bands (ev):

   -45.1673 -21.8893 -21.8073 -21.7667  -6.5509  -5.8459  -5.5134  -4.4432
    -4.4132  -4.4088  -4.2726  -4.1101   3.1584   6.1267   6.9544   7.1773
     7.7575   8.0411   8.2385   9.0088   9.6377  10.2658

          k = 0.2857 0.1440 0.0000 (  6867 PWs)   bands (ev):

   -45.1676 -21.8471 -21.8086 -21.7844  -6.7007  -5.9041  -5.7083  -4.4652
    -4.4197  -4.3892  -4.2269  -4.1221   3.6915   6.6020   7.0075   7.1510
     7.9169   8.2882   8.7459   9.1636   9.3761  10.0943

          k = 0.2857 0.1440 0.1911 (  6866 PWs)   bands (ev):

   -45.1674 -21.8629 -21.8079 -21.7837  -6.5955  -5.8935  -5.6538  -4.4497
    -4.4260  -4.3792  -4.2120  -4.1125   3.5192   6.4369   6.6043   7.1919
     7.6989   8.2135   8.8551   9.1271   9.3646  10.0574

          k = 0.2857 0.1440 0.3822 (  6878 PWs)   bands (ev):

   -45.1670 -21.8885 -21.8065 -21.7826  -6.4474  -5.8661  -5.5395  -4.4488
    -4.4074  -4.3463  -4.2186  -4.0864   3.2200   6.0681   6.5047   6.8367
     7.2845   8.0260   8.8922   9.1848   9.6562   9.9695

          k = 0.2857 0.2880 0.0000 (  6853 PWs)   bands (ev):

   -45.1669 -21.8456 -21.8198 -21.8068  -6.4577  -5.8428  -5.7434  -4.4554
    -4.4155  -4.3461  -4.1667  -4.1168   3.3216   6.5768   6.6884   7.3513
     7.5090   7.8054   8.5785   9.1376   9.6720  10.1743

          k = 0.2857 0.2880 0.1911 (  6865 PWs)   bands (ev):

   -45.1667 -21.8612 -21.8192 -21.8061  -6.3553  -5.8620  -5.7034  -4.4297
    -4.4160  -4.3189  -4.1413  -4.0789   3.3556   6.2637   6.2943   6.7435
     7.4152   7.8054   9.0600   9.2576   9.6979   9.8042

          k = 0.2857 0.2880 0.3822 (  6867 PWs)   bands (ev):

   -45.1663 -21.8866 -21.8180 -21.8048  -6.2282  -5.8921  -5.5882  -4.4127
    -4.3886  -4.2610  -4.1077  -4.0221   3.3424   5.7943   5.9311   6.4243
     7.0779   7.2818   8.9824   9.5966   9.6480   9.8630

          k = 0.2857 0.4320 0.0000 (  6862 PWs)   bands (ev):

   -45.1663 -21.8490 -21.8434 -21.8053  -6.2620  -5.7909  -5.7668  -4.4481
    -4.3936  -4.2817  -4.1514  -4.1235   3.0577   6.1248   6.7245   7.1846
     7.6395   7.8763   8.1184   9.1436   9.7585  10.1205

          k = 0.2857 0.4320 0.1911 (  6848 PWs)   bands (ev):

   -45.1661 -21.8597 -21.8476 -21.8046  -6.1727  -5.8096  -5.7528  -4.4201
    -4.3865  -4.2364  -4.1172  -4.0618   3.1971   6.0444   6.1732   6.4008
     7.1622   7.9212   8.8337   9.3026   9.5080   9.8694

          k = 0.2857 0.4320 0.3822 (  6852 PWs)   bands (ev):

   -45.1657 -21.8849 -21.8463 -21.8035  -6.1205  -5.8322  -5.6273  -4.3918
    -4.3553  -4.1748  -4.0648  -3.9478   3.4181   5.5387   5.6962   6.0862
     6.7014   7.2773   8.1985   9.7078   9.7945  10.0653

          k = 0.4286 0.0000 0.0000 (  6838 PWs)   bands (ev):

   -45.1674 -21.8464 -21.8356 -21.7674  -6.5825  -5.8700  -5.6836  -4.4891
    -4.4280  -4.4062  -4.2417  -4.1588   3.5451   6.1531   7.2848   7.3410
     7.9547   8.0741   8.7384   8.8820   9.3145  10.8067

          k = 0.4286 0.0000 0.1911 (  6859 PWs)   bands (ev):

   -45.1672 -21.8622 -21.8347 -21.7667  -6.5255  -5.8247  -5.6159  -4.4643
    -4.4286  -4.4201  -4.2130  -4.1410   3.3220   6.1285   7.1271   7.4456
     7.4946   7.9579   8.6626   8.8907   9.2411  10.5721

          k = 0.4286 0.0000 0.3822 (  6877 PWs)   bands (ev):

   -45.1668 -21.8876 -21.8332 -21.7655  -6.4752  -5.7364  -5.4499  -4.4425
    -4.4294  -4.4170  -4.2612  -4.0374   2.9952   5.9452   6.5964   7.3995
     7.5045   7.9202   7.9241   8.8995   9.8430  10.1289

          k = 0.4286 0.1440 0.0000 (  6858 PWs)   bands (ev):

   -45.1671 -21.8458 -21.8347 -21.7832  -6.4814  -5.8461  -5.7222  -4.4761
    -4.4106  -4.3751  -4.2129  -4.1495   3.3962   6.1669   7.0839   7.4823
     7.5094   8.1051   8.4898   9.1555   9.4186  10.6120

          k = 0.4286 0.1440 0.1911 (  6854 PWs)   bands (ev):

   -45.1669 -21.8615 -21.8339 -21.7825  -6.4185  -5.8215  -5.6655  -4.4542
    -4.4144  -4.3620  -4.1808  -4.1201   3.3039   6.1332   6.5247   6.9854
     7.5559   8.3543   8.5191   9.1384   9.3833  10.2454

          k = 0.4286 0.1440 0.3822 (  6860 PWs)   bands (ev):

   -45.1665 -21.8868 -21.8324 -21.7814  -6.3677  -5.7717  -5.5121  -4.4433
    -4.3853  -4.3376  -4.2011  -4.0171   3.1169   5.9086   6.3349   6.5428
     6.8984   8.1624   8.8659   9.0215   9.4460  10.0363

          k = 0.4286 0.2880 0.0000 (  6888 PWs)   bands (ev):

   -45.1664 -21.8443 -21.8327 -21.8185  -6.2693  -5.7956  -5.7727  -4.4479
    -4.3941  -4.2866  -4.1440  -4.1300   3.0607   6.1845   6.6826   7.1884
     7.6587   7.8748   8.1138   9.1474   9.8226  10.0634

          k = 0.4286 0.2880 0.1911 (  6861 PWs)   bands (ev):

   -45.1662 -21.8598 -21.8319 -21.8179  -6.1789  -5.8176  -5.7549  -4.4193
    -4.3882  -4.2396  -4.1069  -4.0747   3.1963   6.0873   6.1868   6.3756
     7.1534   7.9214   8.8772   9.3031   9.5041   9.8752

          k = 0.4286 0.2880 0.3822 (  6845 PWs)   bands (ev):

   -45.1658 -21.8850 -21.8306 -21.8168  -6.1208  -5.8452  -5.6280  -4.3905
    -4.3586  -4.1760  -4.0501  -3.9693   3.4073   5.5525   5.6799   6.1134
     6.7268   7.2578   8.2301   9.7341   9.8206  10.0480

          k = 0.4286 0.4320 0.0000 (  6875 PWs)   bands (ev):

   -45.1658 -21.8475 -21.8421 -21.8311  -6.1500  -5.7589  -5.7459  -4.4327
    -4.3474  -4.2140  -4.1650  -4.0617   2.7974   6.0036   6.4119   7.3623
     7.4639   7.8523   8.0327   8.8779   9.4422  10.2506

          k = 0.4286 0.4320 0.1911 (  6853 PWs)   bands (ev):

   -45.1656 -21.8583 -21.8462 -21.8304  -6.0141  -5.8079  -5.7929  -4.4019
    -4.3414  -4.1322  -4.0755  -4.0291   3.0463   5.9548   6.1674   6.2193
     6.6045   7.8886   8.4936   9.2158   9.2380  10.2407

          k = 0.4286 0.4320 0.3822 (  6862 PWs)   bands (ev):

   -45.1652 -21.8834 -21.8450 -21.8292  -5.9304  -5.8832  -5.7103  -4.3522
    -4.3354  -4.0329  -3.9477  -3.9264   3.6095   5.3466   5.4573   5.8812
     6.5185   6.8200   7.1579  10.0422  10.0687  10.2271

     highest occupied level (ev):    10.8342

!    total energy              =    -380.57760721 Ry
     estimated scf accuracy    <          3.9E-09 Ry

     The total energy is the sum of the following terms:
     one-electron contribution =     -79.71242144 Ry
     hartree contribution      =      69.93438723 Ry
     xc contribution           =    -102.67759957 Ry
     ewald contribution        =    -268.12197343 Ry

     convergence has been achieved in  15 iterations

     negative rho (up, down):  1.581E-02 0.000E+00

     Forces acting on atoms (cartesian axes, Ry/au):

     atom    1 type  1   force =     0.00000000    0.00000000   -0.00005469
     atom    2 type  2   force =     0.00000000    0.00000000    0.00029959
     atom    3 type  3   force =     0.00000000    0.00000000   -0.00013614
     atom    4 type  3   force =     0.00000000    0.00000000    0.00078784
     atom    5 type  3   force =     0.00000000    0.00000000   -0.00089660

     Total force =     0.001239     Total SCF correction =     0.000360
     SCF correction compared to forces is large: reduce conv_thr to get better values


     Computing stress (Cartesian axis) and pressure


     negative rho (up, down):  1.581E-02 0.000E+00
          total   stress  (Ry/bohr**3)                   (kbar)     P=        1.64
  -0.00003753   0.00000000   0.00000000           -5.52        0.00        0.00
   0.00000000   0.00006509   0.00000000            0.00        9.57        0.00
   0.00000000   0.00000000   0.00000580            0.00        0.00        0.85

     Energy error            =      7.7E-05 Ry
     Gradient error          =      9.0E-04 Ry/Bohr

     bfgs converged in   2 scf cycles and   1 bfgs steps
     (criteria: energy <  1.0E-04 Ry, force <  1.0E-03 Ry/Bohr)

     End of BFGS Geometry Optimization

     Final energy             =    -380.5776072083 Ry

     File ./PTO2.bfgs deleted, as requested
Begin final coordinates

ATOMIC_POSITIONS (crystal)
Pb            0.0000000000        0.0000000000        1.0051904083
Ti            0.5000000000        0.5000000000        0.5395123895
O             0.5000000000        0.5000000000        0.0994787311
O             0.5000000000        0.0000000000        0.6115513795
O             0.0000000000        0.5000000000        0.6115513795
End final coordinates



     Writing all to output data dir ./PTO2.save/
 
     init_run     :     16.93s CPU     17.33s WALL (       1 calls)
     electrons    :    856.25s CPU    884.67s WALL (       1 calls)
     forces       :      3.48s CPU      3.57s WALL (       1 calls)
     stress       :     21.52s CPU     21.76s WALL (       1 calls)

     Called by init_run:
     wfcinit      :     11.73s CPU     12.00s WALL (       1 calls)
     potinit      :      0.18s CPU      0.19s WALL (       1 calls)
     hinit0       :      4.14s CPU      4.16s WALL (       1 calls)

     Called by electrons:
     c_bands      :    774.85s CPU    800.15s WALL (      15 calls)
     sum_band     :     69.69s CPU     71.65s WALL (      15 calls)
     v_of_rho     :      0.44s CPU      0.45s WALL (      16 calls)
     newd         :     11.71s CPU     12.85s WALL (      16 calls)
     mix_rho      :      0.27s CPU      0.30s WALL (      15 calls)

     Called by c_bands:
     init_us_2    :     19.54s CPU     19.65s WALL (    1584 calls)
     init_us_2:cp :     19.49s CPU     19.62s WALL (    1584 calls)
     ccgdiagg     :    671.25s CPU    693.64s WALL (     720 calls)
     wfcrot       :    103.06s CPU    104.87s WALL (     720 calls)

     Called by *cgdiagg:
     h_psi        :    529.45s CPU    543.11s WALL (   59125 calls)
     s_psi        :    126.17s CPU    133.05s WALL (  117530 calls)

     Called by h_psi:
     h_psi:calbec :     65.27s CPU     67.46s WALL (   59125 calls)
     vloc_psi     :    393.85s CPU    402.83s WALL (   59125 calls)
     add_vuspsi   :     64.69s CPU     67.81s WALL (   59125 calls)
     hs_1psi      :    502.68s CPU    517.24s WALL (   58405 calls)
     s_1psi       :    125.93s CPU    130.47s WALL (   58405 calls)

     General routines
     calbec       :    126.63s CPU    133.32s WALL (  118490 calls)
     fft          :      0.16s CPU      0.16s WALL (      72 calls)
     ffts         :      0.03s CPU      0.03s WALL (      15 calls)
     fftw         :    359.73s CPU    366.61s WALL (  165194 calls)
 
     Parallel routines
 
     PWSCF        :  14m59.60s CPU  15m30.37s WALL

 
   This run was terminated on:   9:52:32  11Apr2022            

=------------------------------------------------------------------------------=
   JOB DONE.
=------------------------------------------------------------------------------=
