
     Program PWSCF v.7.0 starts on 11Apr2022 at  8:55:29 

     This program is part of the open-source Quantum ESPRESSO suite
     for quantum simulation of materials; please cite
         "P. Giannozzi et al., J. Phys.:Condens. Matter 21 395502 (2009);
         "P. Giannozzi et al., J. Phys.:Condens. Matter 29 465901 (2017);
         "P. Giannozzi et al., J. Chem. Phys. 152 154105 (2020);
          URL http://www.quantum-espresso.org", 
     in publications or presentations arising from this work. More details at
     http://www.quantum-espresso.org/quote

     Parallel version (MPI), running on     1 processors

     MPI processes distributed on     1 nodes
     89963 MiB available memory on the printing compute node when the environment starts
 
     Waiting for input...
     Reading input from standard input
Warning: card &CELL ignored
Warning: card  CELL_DYNAMICS = 'BFGS', ignored
Warning: card  PRESS=0.1D0, ignored
Warning: card / ignored

     Current dimensions of program PWSCF are:
     Max number of different atomic species (ntypx) = 10
     Max number of k-points (npk) =  40000
     Max angular momentum in pseudopotentials (lmaxx) =  4
     Message from routine setup:
     using ibrav=0 with symmetry is DISCOURAGED, use correct ibrav instead

     Subspace diagonalization in iterative solution of the eigenvalue problem:
     a serial algorithm will be used

 
     G-vector sticks info
     --------------------
     sticks:   dense  smooth     PW     G-vecs:    dense   smooth      PW
     Sum        1689    1689    481                54905    54905    8221
 
     Using Slab Decomposition
 


     bravais-lattice index     =            0
     lattice parameter (alat)  =       7.2719  a.u.
     unit-cell volume          =     406.4705 (a.u.)^3
     number of atoms/cell      =            5
     number of atomic types    =            3
     number of electrons       =        44.00
     number of Kohn-Sham states=           22
     kinetic-energy cutoff     =     100.0000  Ry
     charge density cutoff     =     400.0000  Ry
     scf convergence threshold =      1.0E-08
     mixing beta               =       0.7000
     number of iterations used =            8  plain     mixing
     energy convergence thresh.=      1.0E-04
     force convergence thresh. =      1.0E-03
     Exchange-correlation= SLA  PZ   NOGX NOGC
                           (   1   1   0   0   0   0   0)
     nstep                     =           50


     celldm(1)=   7.271855  celldm(2)=   0.000000  celldm(3)=   0.000000
     celldm(4)=   0.000000  celldm(5)=   0.000000  celldm(6)=   0.000000

     crystal axes: (cart. coord. in units of alat)
               a(1) = (   1.000000   0.000000   0.000000 )  
               a(2) = (   0.000000   1.004002   0.000000 )  
               a(3) = (   0.000000   0.000000   1.052831 )  

     reciprocal axes: (cart. coord. in units 2 pi/alat)
               b(1) = (  1.000000  0.000000  0.000000 )  
               b(2) = (  0.000000  0.996014  0.000000 )  
               b(3) = (  0.000000  0.000000  0.949820 )  


     PseudoPot. # 1 for Pb read from file:
     ./Pb_LDA.UPF
     MD5 check sum: 062a37469794d955244864f8fe2e5624
     Pseudo is Ultrasoft + core correction, Zval = 14.0
     Generated by new atomic code, or converted to UPF format
     Using radial grid of  899 points,  6 beta functions with: 
                l(1) =   0
                l(2) =   0
                l(3) =   1
                l(4) =   1
                l(5) =   2
                l(6) =   2
     Q(r) pseudized with  6 coefficients,  rinner =    1.000   1.000   1.000
                                                       1.000   1.000

     PseudoPot. # 2 for Ti read from file:
     ./Ti_LDA.UPF
     MD5 check sum: 0d9f225c038fe889ca2a701dcc8d72cb
     Pseudo is Ultrasoft + core correction, Zval = 12.0
     Generated by new atomic code, or converted to UPF format
     Using radial grid of  851 points,  6 beta functions with: 
                l(1) =   0
                l(2) =   0
                l(3) =   1
                l(4) =   1
                l(5) =   2
                l(6) =   2
     Q(r) pseudized with  6 coefficients,  rinner =    1.000   1.000   1.000
                                                       1.000   1.000

     PseudoPot. # 3 for O  read from file:
     ./O_LDA.UPF
     MD5 check sum: 194b818514d2a7dbb603bb78519a4f40
     Pseudo is Ultrasoft + core correction, Zval =  6.0
     Generated by new atomic code, or converted to UPF format
     Using radial grid of  737 points,  5 beta functions with: 
                l(1) =   0
                l(2) =   0
                l(3) =   1
                l(4) =   1
                l(5) =   2
     Q(r) pseudized with  8 coefficients,  rinner =    0.900   0.900   0.900
                                                       0.900   0.900

     atomic species   valence    mass     pseudopotential
        Pb            14.00   207.20000     Pb( 1.00)
        Ti            12.00    47.88000     Ti( 1.00)
        O              6.00    16.00000     O ( 1.00)

      4 Sym. Ops. (no inversion) found



   Cartesian axes

     site n.     atom                  positions (alat units)
         1           Pb  tau(   1) = (   0.0000000   0.0000000   1.0582959  )
         2           Ti  tau(   2) = (   0.5000000   0.5020010   0.5680155  )
         3           O   tau(   3) = (   0.5000000   0.5020010   0.1047343  )
         4           O   tau(   4) = (   0.5000000   0.0000000   0.6438604  )
         5           O   tau(   5) = (   0.0000000   0.5020010   0.6438604  )

     number of k points=    48
                       cart. coord. in units 2pi/alat
        k(    1) = (   0.0000000   0.0000000   0.0000000), wk =   0.0081633
        k(    2) = (   0.0000000   0.0000000   0.1899640), wk =   0.0163265
        k(    3) = (   0.0000000   0.0000000   0.3799279), wk =   0.0163265
        k(    4) = (   0.0000000   0.1422877   0.0000000), wk =   0.0163265
        k(    5) = (   0.0000000   0.1422877   0.1899640), wk =   0.0326531
        k(    6) = (   0.0000000   0.1422877   0.3799279), wk =   0.0326531
        k(    7) = (   0.0000000   0.2845754   0.0000000), wk =   0.0163265
        k(    8) = (   0.0000000   0.2845754   0.1899640), wk =   0.0326531
        k(    9) = (   0.0000000   0.2845754   0.3799279), wk =   0.0326531
        k(   10) = (   0.0000000   0.4268631   0.0000000), wk =   0.0163265
        k(   11) = (   0.0000000   0.4268631   0.1899640), wk =   0.0326531
        k(   12) = (   0.0000000   0.4268631   0.3799279), wk =   0.0326531
        k(   13) = (   0.1428571   0.0000000   0.0000000), wk =   0.0163265
        k(   14) = (   0.1428571   0.0000000   0.1899640), wk =   0.0326531
        k(   15) = (   0.1428571   0.0000000   0.3799279), wk =   0.0326531
        k(   16) = (   0.1428571   0.1422877   0.0000000), wk =   0.0326531
        k(   17) = (   0.1428571   0.1422877   0.1899640), wk =   0.0653061
        k(   18) = (   0.1428571   0.1422877   0.3799279), wk =   0.0653061
        k(   19) = (   0.1428571   0.2845754   0.0000000), wk =   0.0326531
        k(   20) = (   0.1428571   0.2845754   0.1899640), wk =   0.0653061
        k(   21) = (   0.1428571   0.2845754   0.3799279), wk =   0.0653061
        k(   22) = (   0.1428571   0.4268631   0.0000000), wk =   0.0326531
        k(   23) = (   0.1428571   0.4268631   0.1899640), wk =   0.0653061
        k(   24) = (   0.1428571   0.4268631   0.3799279), wk =   0.0653061
        k(   25) = (   0.2857143   0.0000000   0.0000000), wk =   0.0163265
        k(   26) = (   0.2857143   0.0000000   0.1899640), wk =   0.0326531
        k(   27) = (   0.2857143   0.0000000   0.3799279), wk =   0.0326531
        k(   28) = (   0.2857143   0.1422877   0.0000000), wk =   0.0326531
        k(   29) = (   0.2857143   0.1422877   0.1899640), wk =   0.0653061
        k(   30) = (   0.2857143   0.1422877   0.3799279), wk =   0.0653061
        k(   31) = (   0.2857143   0.2845754   0.0000000), wk =   0.0326531
        k(   32) = (   0.2857143   0.2845754   0.1899640), wk =   0.0653061
        k(   33) = (   0.2857143   0.2845754   0.3799279), wk =   0.0653061
        k(   34) = (   0.2857143   0.4268631   0.0000000), wk =   0.0326531
        k(   35) = (   0.2857143   0.4268631   0.1899640), wk =   0.0653061
        k(   36) = (   0.2857143   0.4268631   0.3799279), wk =   0.0653061
        k(   37) = (   0.4285714   0.0000000   0.0000000), wk =   0.0163265
        k(   38) = (   0.4285714   0.0000000   0.1899640), wk =   0.0326531
        k(   39) = (   0.4285714   0.0000000   0.3799279), wk =   0.0326531
        k(   40) = (   0.4285714   0.1422877   0.0000000), wk =   0.0326531
        k(   41) = (   0.4285714   0.1422877   0.1899640), wk =   0.0653061
        k(   42) = (   0.4285714   0.1422877   0.3799279), wk =   0.0653061
        k(   43) = (   0.4285714   0.2845754   0.0000000), wk =   0.0326531
        k(   44) = (   0.4285714   0.2845754   0.1899640), wk =   0.0653061
        k(   45) = (   0.4285714   0.2845754   0.3799279), wk =   0.0653061
        k(   46) = (   0.4285714   0.4268631   0.0000000), wk =   0.0326531
        k(   47) = (   0.4285714   0.4268631   0.1899640), wk =   0.0653061
        k(   48) = (   0.4285714   0.4268631   0.3799279), wk =   0.0653061

     Dense  grid:    54905 G-vectors     FFT dimensions: (  48,  48,  50)

     Estimated max dynamical RAM per process >     328.06 MB

     Check: negative core charge=   -0.000003

     Initial potential from superposition of free atoms

     starting charge      42.9982, renormalised to      44.0000

     negative rho (up, down):  1.705E-02 0.000E+00
     Starting wfcs are   31 randomized atomic wfcs

     total cpu time spent up to now is       18.5 secs

     Self-consistent Calculation

     iteration #  1     ecut=   100.00 Ry     beta= 0.70
     CG style diagonalization
     ethr =  1.00E-02,  avg # of iterations =  2.2

     negative rho (up, down):  1.433E-02 0.000E+00

     total cpu time spent up to now is       52.9 secs

     total energy              =    -380.06187610 Ry
     estimated scf accuracy    <       1.02531089 Ry

     iteration #  2     ecut=   100.00 Ry     beta= 0.70
     CG style diagonalization
     ethr =  2.33E-03,  avg # of iterations =  4.9

     negative rho (up, down):  1.504E-02 0.000E+00

     total cpu time spent up to now is      116.4 secs

     total energy              =    -379.77154034 Ry
     estimated scf accuracy    <       3.85651691 Ry

     iteration #  3     ecut=   100.00 Ry     beta= 0.70
     CG style diagonalization
     ethr =  2.33E-03,  avg # of iterations =  4.5

     negative rho (up, down):  1.563E-02 0.000E+00

     total cpu time spent up to now is      174.7 secs

     total energy              =    -380.54769413 Ry
     estimated scf accuracy    <       0.25125119 Ry

     iteration #  4     ecut=   100.00 Ry     beta= 0.70
     CG style diagonalization
     ethr =  5.71E-04,  avg # of iterations =  3.4

     negative rho (up, down):  1.566E-02 0.000E+00

     total cpu time spent up to now is      220.4 secs

     total energy              =    -380.56133110 Ry
     estimated scf accuracy    <       0.05172762 Ry

     iteration #  5     ecut=   100.00 Ry     beta= 0.70
     CG style diagonalization
     ethr =  1.18E-04,  avg # of iterations =  3.8

     negative rho (up, down):  1.566E-02 0.000E+00

     total cpu time spent up to now is      270.2 secs

     total energy              =    -380.57573199 Ry
     estimated scf accuracy    <       0.00499694 Ry

     iteration #  6     ecut=   100.00 Ry     beta= 0.70
     CG style diagonalization
     ethr =  1.14E-05,  avg # of iterations =  4.1

     negative rho (up, down):  1.565E-02 0.000E+00

     total cpu time spent up to now is      325.3 secs

     total energy              =    -380.57754316 Ry
     estimated scf accuracy    <       0.00728032 Ry

     iteration #  7     ecut=   100.00 Ry     beta= 0.70
     CG style diagonalization
     ethr =  1.14E-05,  avg # of iterations =  3.2

     negative rho (up, down):  1.567E-02 0.000E+00

     total cpu time spent up to now is      367.1 secs

     total energy              =    -380.57707805 Ry
     estimated scf accuracy    <       0.00261287 Ry

     iteration #  8     ecut=   100.00 Ry     beta= 0.70
     CG style diagonalization
     ethr =  5.94E-06,  avg # of iterations =  3.7

     negative rho (up, down):  1.569E-02 0.000E+00

     total cpu time spent up to now is      413.9 secs

     total energy              =    -380.57761056 Ry
     estimated scf accuracy    <       0.00001298 Ry

     iteration #  9     ecut=   100.00 Ry     beta= 0.70
     CG style diagonalization
     c_bands:  1 eigenvalues not converged
     c_bands:  1 eigenvalues not converged
     ethr =  2.95E-08,  avg # of iterations =  7.5

     negative rho (up, down):  1.572E-02 0.000E+00

     total cpu time spent up to now is      509.1 secs

     total energy              =    -380.57766828 Ry
     estimated scf accuracy    <       0.00001128 Ry

     iteration # 10     ecut=   100.00 Ry     beta= 0.70
     CG style diagonalization
     ethr =  2.56E-08,  avg # of iterations =  3.4

     negative rho (up, down):  1.579E-02 0.000E+00

     total cpu time spent up to now is      551.9 secs

     total energy              =    -380.57766710 Ry
     estimated scf accuracy    <       0.00000689 Ry

     iteration # 11     ecut=   100.00 Ry     beta= 0.70
     CG style diagonalization
     ethr =  1.57E-08,  avg # of iterations =  3.9

     negative rho (up, down):  1.580E-02 0.000E+00

     total cpu time spent up to now is      601.6 secs

     total energy              =    -380.57766819 Ry
     estimated scf accuracy    <       0.00000072 Ry

     iteration # 12     ecut=   100.00 Ry     beta= 0.70
     CG style diagonalization
     ethr =  1.64E-09,  avg # of iterations =  7.4

     negative rho (up, down):  1.580E-02 0.000E+00

     total cpu time spent up to now is      697.1 secs

     total energy              =    -380.57766964 Ry
     estimated scf accuracy    <       0.00000037 Ry

     iteration # 13     ecut=   100.00 Ry     beta= 0.70
     CG style diagonalization
     ethr =  8.48E-10,  avg # of iterations =  5.1

     negative rho (up, down):  1.581E-02 0.000E+00

     total cpu time spent up to now is      763.8 secs

     total energy              =    -380.57766991 Ry
     estimated scf accuracy    <       0.00000002 Ry

     iteration # 14     ecut=   100.00 Ry     beta= 0.70
     CG style diagonalization
     c_bands:  1 eigenvalues not converged
     c_bands:  1 eigenvalues not converged
     ethr =  5.24E-11,  avg # of iterations =  9.5

     negative rho (up, down):  1.581E-02 0.000E+00

     total cpu time spent up to now is      886.5 secs

     End of self-consistent calculation

          k = 0.0000 0.0000 0.0000 (  6885 PWs)   bands (ev):

   -45.1691 -21.8500 -21.7685 -21.7643  -7.1654  -6.0128  -5.7574  -4.4141
    -4.4128  -4.3739  -4.2565  -4.1422   4.8412   6.7191   6.7505   7.1090
     8.7071   8.7141   8.9507   9.2869   9.4380   9.4445

          k = 0.0000 0.0000 0.1900 (  6856 PWs)   bands (ev):

   -45.1688 -21.8662 -21.7678 -21.7637  -7.0234  -5.9706  -5.7087  -4.4264
    -4.4252  -4.3729  -4.2481  -4.1948   4.1925   6.7608   6.7883   7.4190
     8.5165   8.5289   8.8928   9.1737   9.5288   9.5327

          k = 0.0000 0.0000 0.3799 (  6856 PWs)   bands (ev):

   -45.1684 -21.8923 -21.7668 -21.7626  -6.7763  -5.8966  -5.6359  -4.4461
    -4.4449  -4.3712  -4.2862  -4.2353   3.5267   6.7522   6.8090   6.8283
     8.3131   8.3369   8.8029   9.6224   9.6240  10.3267

          k = 0.0000 0.1423 0.0000 (  6881 PWs)   bands (ev):

   -45.1688 -21.8494 -21.7793 -21.7679  -7.0584  -5.9877  -5.7344  -4.4330
    -4.4117  -4.3849  -4.2588  -4.1332   4.4552   6.7773   6.8323   7.1771
     8.6367   8.7330   8.9593   9.1475   9.1833   9.5486

          k = 0.0000 0.1423 0.1900 (  6877 PWs)   bands (ev):

   -45.1685 -21.8655 -21.7786 -21.7672  -6.9239  -5.9537  -5.6835  -4.4357
    -4.4243  -4.3842  -4.2522  -4.1678   3.9757   6.6511   6.8760   7.4641
     8.2795   8.5207   8.8906   9.0763   9.2692   9.7344

          k = 0.0000 0.1423 0.3799 (  6891 PWs)   bands (ev):

   -45.1682 -21.8915 -21.7775 -21.7661  -6.6966  -5.8937  -5.6006  -4.4446
    -4.4373  -4.3831  -4.2519  -4.2205   3.4065   6.3966   6.9219   7.0831
     8.0183   8.3305   8.9797   9.1175   9.3717  10.4358

          k = 0.0000 0.2846 0.0000 (  6865 PWs)   bands (ev):

   -45.1681 -21.8480 -21.8128 -21.7665  -6.8018  -5.9294  -5.6908  -4.4662
    -4.4101  -4.4083  -4.2592  -4.1309   3.8692   6.6300   7.0269   7.0510
     8.5144   8.5358   8.8386   8.8405   9.2600   9.9042

          k = 0.0000 0.2846 0.1900 (  6863 PWs)   bands (ev):

   -45.1679 -21.8639 -21.8120 -21.7658  -6.6964  -5.9047  -5.6306  -4.4484
    -4.4224  -4.4094  -4.2509  -4.1300   3.5738   6.4737   7.1121   7.1125
     8.0822   8.3574   8.5308   8.9319   9.2530  10.1383

          k = 0.0000 0.2846 0.3799 (  6887 PWs)   bands (ev):

   -45.1675 -21.8895 -21.8106 -21.7647  -6.5453  -5.8462  -5.5130  -4.4438
    -4.4127  -4.4095  -4.2735  -4.1051   3.1627   6.1291   6.9495   7.1695
     7.7495   8.0361   8.2265   9.0027   9.6477  10.2590

          k = 0.0000 0.4269 0.0000 (  6836 PWs)   bands (ev):

   -45.1676 -21.8467 -21.8395 -21.7653  -6.5749  -5.8663  -5.6827  -4.4886
    -4.4290  -4.4068  -4.2389  -4.1587   3.5444   6.1398   7.2816   7.3237
     7.9589   8.0692   8.7387   8.8816   9.3137  10.8134

          k = 0.0000 0.4269 0.1900 (  6856 PWs)   bands (ev):

   -45.1674 -21.8624 -21.8387 -21.7646  -6.5181  -5.8217  -5.6154  -4.4637
    -4.4296  -4.4207  -4.2129  -4.1369   3.3245   6.1167   7.1247   7.4302
     7.4912   7.9531   8.6595   8.8866   9.2424  10.5752

          k = 0.0000 0.4269 0.3799 (  6867 PWs)   bands (ev):

   -45.1670 -21.8878 -21.8371 -21.7635  -6.4687  -5.7343  -5.4493  -4.4431
    -4.4304  -4.4164  -4.2612  -4.0309   3.0018   5.9419   6.5877   7.3914
     7.4993   7.9106   7.9144   8.8918   9.8376  10.1287

          k = 0.1429 0.0000 0.0000 (  6879 PWs)   bands (ev):

   -45.1687 -21.8493 -21.7842 -21.7637  -7.0555  -5.9864  -5.7338  -4.4318
    -4.4129  -4.3853  -4.2587  -4.1322   4.4568   6.7945   6.8013   7.1747
     8.6453   8.7243   8.9625   9.1502   9.1801   9.5480

          k = 0.1429 0.0000 0.1900 (  6867 PWs)   bands (ev):

   -45.1685 -21.8655 -21.7835 -21.7630  -6.9208  -5.9530  -5.6831  -4.4346
    -4.4255  -4.3846  -4.2534  -4.1649   3.9781   6.6678   6.8491   7.4598
     8.2784   8.5083   8.8923   9.0858   9.2677   9.7361

          k = 0.1429 0.0000 0.3799 (  6886 PWs)   bands (ev):

   -45.1681 -21.8914 -21.7823 -21.7620  -6.6928  -5.8944  -5.6004  -4.4457
    -4.4368  -4.3834  -4.2549  -4.2141   3.4096   6.4079   6.9037   7.0800
     8.0264   8.3067   8.9740   9.1308   9.3676  10.4343

          k = 0.1429 0.1423 0.0000 (  6868 PWs)   bands (ev):

   -45.1685 -21.8487 -21.7835 -21.7786  -6.9497  -5.9607  -5.7231  -4.4362
    -4.4263  -4.3918  -4.2437  -4.1238   4.1783   6.7321   6.9186   7.2401
     8.2839   8.5086   9.0011   9.0454   9.4039   9.6903

          k = 0.1429 0.1423 0.1900 (  6874 PWs)   bands (ev):

   -45.1682 -21.8648 -21.7828 -21.7779  -6.8207  -5.9366  -5.6725  -4.4408
    -4.4266  -4.3905  -4.2364  -4.1433   3.8314   6.6209   6.6959   7.4746
     8.1499   8.2804   8.8203   9.1546   9.4345   9.7510

          k = 0.1429 0.1423 0.3799 (  6869 PWs)   bands (ev):

   -45.1679 -21.8906 -21.7817 -21.7768  -6.6076  -5.8965  -5.5838  -4.4601
    -4.4010  -4.3859  -4.2357  -4.1804   3.3554   6.4316   6.4543   7.1540
     8.0618   8.0841   8.7400   9.2294   9.4739  10.3085

          k = 0.1429 0.2846 0.0000 (  6863 PWs)   bands (ev):

   -45.1678 -21.8473 -21.8120 -21.7820  -6.6975  -5.9026  -5.7078  -4.4652
    -4.4199  -4.3894  -4.2263  -4.1218   3.6911   6.5961   7.0023   7.1470
     7.9191   8.2879   8.7475   9.1572   9.3761  10.0967

          k = 0.1429 0.2846 0.1900 (  6869 PWs)   bands (ev):

   -45.1676 -21.8632 -21.8112 -21.7813  -6.5921  -5.8926  -5.6535  -4.4495
    -4.4262  -4.3794  -4.2125  -4.1106   3.5203   6.4358   6.5976   7.1894
     7.6989   8.2079   8.8484   9.1246   9.3661  10.0614

          k = 0.1429 0.2846 0.3799 (  6875 PWs)   bands (ev):

   -45.1672 -21.8887 -21.8099 -21.7802  -6.4436  -5.8661  -5.5394  -4.4487
    -4.4076  -4.3465  -4.2201  -4.0823   3.2230   6.0704   6.4993   6.8350
     7.2780   8.0208   8.8850   9.1768   9.6647   9.9647

          k = 0.1429 0.4269 0.0000 (  6855 PWs)   bands (ev):

   -45.1673 -21.8461 -21.8386 -21.7808  -6.4757  -5.8428  -5.7215  -4.4759
    -4.4107  -4.3754  -4.2108  -4.1498   3.3951   6.1530   7.0782   7.4779
     7.5107   8.1061   8.4888   9.1488   9.4164  10.6191

          k = 0.1429 0.4269 0.1900 (  6862 PWs)   bands (ev):

   -45.1671 -21.8617 -21.8378 -21.7801  -6.4129  -5.8187  -5.6652  -4.4540
    -4.4144  -4.3624  -4.1815  -4.1165   3.3054   6.1210   6.5183   6.9882
     7.5559   8.3456   8.5092   9.1351   9.3831  10.2481

          k = 0.1429 0.4269 0.3799 (  6859 PWs)   bands (ev):

   -45.1667 -21.8870 -21.8364 -21.7790  -6.3631  -5.7692  -5.5118  -4.4432
    -4.3852  -4.3380  -4.2027  -4.0109   3.1224   5.9067   6.3279   6.5342
     6.8969   8.1584   8.8481   9.0142   9.4397  10.0410

          k = 0.2857 0.0000 0.0000 (  6851 PWs)   bands (ev):

   -45.1681 -21.8480 -21.8192 -21.7622  -6.7923  -5.9254  -5.6887  -4.4652
    -4.4113  -4.4095  -4.2575  -4.1287   3.8695   6.6196   7.0204   7.0243
     8.5219   8.5228   8.8409   8.8446   9.2587   9.9074

          k = 0.2857 0.0000 0.1900 (  6866 PWs)   bands (ev):

   -45.1678 -21.8638 -21.8184 -21.7615  -6.6865  -5.9023  -5.6288  -4.4472
    -4.4235  -4.4106  -4.2518  -4.1237   3.5783   6.4713   7.0858   7.1026
     8.0792   8.3448   8.5225   8.9250   9.2623  10.1475

          k = 0.2857 0.0000 0.3799 (  6891 PWs)   bands (ev):

   -45.1675 -21.8894 -21.8171 -21.7604  -6.5346  -5.8466  -5.5115  -4.4447
    -4.4115  -4.4107  -4.2751  -4.0948   3.1716   6.1341   6.9399   7.1537
     7.7334   8.0262   8.2033   8.9909   9.6677  10.2466

          k = 0.2857 0.1423 0.0000 (  6859 PWs)   bands (ev):

   -45.1678 -21.8473 -21.8184 -21.7770  -6.6911  -5.8997  -5.7063  -4.4648
    -4.4201  -4.3897  -4.2254  -4.1205   3.6905   6.5839   6.9915   7.1400
     7.9235   8.2882   8.7510   9.1446   9.3764  10.1019

          k = 0.2857 0.1423 0.1900 (  6869 PWs)   bands (ev):

   -45.1676 -21.8631 -21.8177 -21.7763  -6.5853  -5.8907  -5.6522  -4.4492
    -4.4264  -4.3796  -4.2137  -4.1060   3.5229   6.4324   6.5852   7.1847
     7.6990   8.1972   8.8352   9.1195   9.3694  10.0700

          k = 0.2857 0.1423 0.3799 (  6870 PWs)   bands (ev):

   -45.1672 -21.8886 -21.8164 -21.7752  -6.4366  -5.8659  -5.5383  -4.4483
    -4.4077  -4.3469  -4.2231  -4.0738   3.2293   6.0747   6.4886   6.8318
     7.2655   8.0103   8.8710   9.1604   9.6821   9.9564

          k = 0.2857 0.2846 0.0000 (  6865 PWs)   bands (ev):

   -45.1671 -21.8459 -21.8167 -21.8102  -6.4578  -5.8428  -5.7436  -4.4555
    -4.4156  -4.3462  -4.1664  -4.1174   3.3214   6.5791   6.6864   7.3513
     7.5089   7.8049   8.5785   9.1374   9.6729  10.1732

          k = 0.2857 0.2846 0.1900 (  6864 PWs)   bands (ev):

   -45.1669 -21.8615 -21.8160 -21.8095  -6.3554  -5.8619  -5.7037  -4.4298
    -4.4161  -4.3190  -4.1410  -4.0795   3.3555   6.2688   6.2895   6.7431
     7.4152   7.8049   9.0606   9.2575   9.6997   9.8018

          k = 0.2857 0.2846 0.3799 (  6874 PWs)   bands (ev):

   -45.1665 -21.8868 -21.8148 -21.8082  -6.2282  -5.8921  -5.5886  -4.4128
    -4.3887  -4.2610  -4.1072  -4.0229   3.3423   5.7948   5.9308   6.4240
     7.0781   7.2811   8.9827   9.5967   9.6476   9.8626

          k = 0.2857 0.4269 0.0000 (  6881 PWs)   bands (ev):

   -45.1666 -21.8446 -21.8366 -21.8153  -6.2677  -5.7941  -5.7719  -4.4480
    -4.3940  -4.2854  -4.1460  -4.1287   3.0598   6.1696   6.6932   7.1873
     7.6542   7.8748   8.1145   9.1462   9.8072  10.0772

          k = 0.2857 0.4269 0.1900 (  6854 PWs)   bands (ev):

   -45.1664 -21.8600 -21.8360 -21.8147  -6.1774  -5.8156  -5.7548  -4.4196
    -4.3879  -4.2388  -4.1096  -4.0717   3.1963   6.0772   6.1834   6.3813
     7.1553   7.9210   8.8666   9.3030   9.5054   9.8732

          k = 0.2857 0.4269 0.3799 (  6847 PWs)   bands (ev):

   -45.1660 -21.8853 -21.8346 -21.8135  -6.1206  -5.8421  -5.6282  -4.3909
    -4.3579  -4.1757  -4.0539  -3.9642   3.4099   5.5491   5.6842   6.1066
     6.7200   7.2625   8.2221   9.7275   9.8144  10.0521

          k = 0.4286 0.0000 0.0000 (  6826 PWs)   bands (ev):

   -45.1675 -21.8484 -21.8454 -21.7610  -6.5601  -5.8586  -5.6805  -4.4875
    -4.4310  -4.4078  -4.2334  -4.1580   3.5434   6.1130   7.2752   7.2894
     7.9675   8.0596   8.7389   8.8814   9.3124  10.8271

          k = 0.4286 0.0000 0.1900 (  6852 PWs)   bands (ev):

   -45.1673 -21.8622 -21.8464 -21.7603  -6.5037  -5.8154  -5.6136  -4.4624
    -4.4315  -4.4217  -4.2127  -4.1281   3.3300   6.0928   7.1197   7.3993
     7.4848   7.9444   8.6534   8.8791   9.2451  10.5817

          k = 0.4286 0.0000 0.3799 (  6877 PWs)   bands (ev):

   -45.1669 -21.8876 -21.8448 -21.7592  -6.4562  -5.7294  -5.4472  -4.4440
    -4.4324  -4.4151  -4.2610  -4.0176   3.0153   5.9347   6.5715   7.3747
     7.4882   7.8850   7.9027   8.8769   9.8239  10.1319

          k = 0.4286 0.1423 0.0000 (  6853 PWs)   bands (ev):

   -45.1672 -21.8476 -21.8446 -21.7758  -6.4644  -5.8359  -5.7196  -4.4754
    -4.4109  -4.3759  -4.2067  -4.1499   3.3933   6.1250   7.0665   7.4665
     7.5158   8.1085   8.4877   9.1352   9.4125  10.6340

          k = 0.4286 0.1423 0.1900 (  6856 PWs)   bands (ev):

   -45.1670 -21.8616 -21.8456 -21.7751  -6.4021  -5.8127  -5.6639  -4.4535
    -4.4143  -4.3631  -4.1829  -4.1086   3.3089   6.0965   6.5056   6.9940
     7.5564   8.3268   8.4912   9.1288   9.3825  10.2543

          k = 0.4286 0.1423 0.3799 (  6859 PWs)   bands (ev):

   -45.1666 -21.8869 -21.8441 -21.7739  -6.3545  -5.7637  -5.5105  -4.4428
    -4.3847  -4.3386  -4.2055  -3.9982   3.1338   5.9023   6.3141   6.5175
     6.8947   8.1504   8.8122   8.9999   9.4271  10.0517

          k = 0.4286 0.2846 0.0000 (  6870 PWs)   bands (ev):

   -45.1666 -21.8459 -21.8430 -21.8087  -6.2641  -5.7917  -5.7688  -4.4481
    -4.3938  -4.2829  -4.1496  -4.1254   3.0582   6.1399   6.7140   7.1854
     7.6447   7.8756   8.1168   9.1443   9.7751  10.1058

          k = 0.4286 0.2846 0.1900 (  6851 PWs)   bands (ev):

   -45.1664 -21.8600 -21.8438 -21.8081  -6.1744  -5.8115  -5.7537  -4.4200
    -4.3870  -4.2372  -4.1148  -4.0653   3.1967   6.0558   6.1766   6.3939
     7.1597   7.9209   8.8450   9.3026   9.5073   9.8703

          k = 0.4286 0.2846 0.3799 (  6854 PWs)   bands (ev):

   -45.1660 -21.8852 -21.8425 -21.8069  -6.1206  -5.8354  -5.6279  -4.3916
    -4.3563  -4.1751  -4.0612  -3.9535   3.4153   5.5422   5.6923   6.0930
     6.7073   7.2721   8.2063   9.7142   9.8014  10.0609

          k = 0.4286 0.4269 0.0000 (  6872 PWs)   bands (ev):

   -45.1661 -21.8444 -21.8416 -21.8350  -6.1504  -5.7570  -5.7480  -4.4328
    -4.3475  -4.2136  -4.1657  -4.0618   2.7972   6.0055   6.4100   7.3620
     7.4636   7.8545   8.0306   8.8775   9.4436  10.2496

          k = 0.4286 0.4269 0.1900 (  6859 PWs)   bands (ev):

   -45.1659 -21.8585 -21.8423 -21.8344  -6.0144  -5.8057  -5.7954  -4.4019
    -4.3415  -4.1316  -4.0761  -4.0295   3.0462   5.9570   6.1658   6.2192
     6.6038   7.8882   8.4939   9.2164   9.2371  10.2410

          k = 0.4286 0.4269 0.3799 (  6855 PWs)   bands (ev):

   -45.1655 -21.8837 -21.8411 -21.8332  -5.9295  -5.8843  -5.7106  -4.3521
    -4.3356  -4.0328  -3.9430  -3.9316   3.6093   5.3469   5.4569   5.8816
     6.5186   6.8189   7.1577  10.0445  10.0664  10.2279

     highest occupied level (ev):    10.8271

!    total energy              =    -380.57767004 Ry
     estimated scf accuracy    <          4.0E-09 Ry

     The total energy is the sum of the following terms:
     one-electron contribution =     -79.71100238 Ry
     hartree contribution      =      69.93322193 Ry
     xc contribution           =    -102.67742525 Ry
     ewald contribution        =    -268.12246433 Ry

     convergence has been achieved in  14 iterations

     negative rho (up, down):  1.581E-02 0.000E+00

     Forces acting on atoms (cartesian axes, Ry/au):

     atom    1 type  1   force =     0.00000000    0.00000000    0.00006452
     atom    2 type  2   force =     0.00000000    0.00000000    0.00030790
     atom    3 type  3   force =     0.00000000    0.00000000   -0.00016908
     atom    4 type  3   force =     0.00000000    0.00000000   -0.00052261
     atom    5 type  3   force =     0.00000000    0.00000000    0.00031927

     Total force =     0.000709     Total SCF correction =     0.000074
     SCF correction compared to forces is large: reduce conv_thr to get better values


     Computing stress (Cartesian axis) and pressure


     negative rho (up, down):  1.581E-02 0.000E+00
          total   stress  (Ry/bohr**3)                   (kbar)     P=        1.36
   0.00003737   0.00000000   0.00000000            5.50        0.00        0.00
   0.00000000  -0.00001406   0.00000000            0.00       -2.07        0.00
   0.00000000   0.00000000   0.00000434            0.00        0.00        0.64


     BFGS Geometry Optimization
     Energy error            =      0.0E+00 Ry
     Gradient error          =      5.2E-04 Ry/Bohr

     bfgs converged in   1 scf cycles and   0 bfgs steps
     (criteria: energy <  1.0E-04 Ry, force <  1.0E-03 Ry/Bohr)

     End of BFGS Geometry Optimization

     Final energy             =    -380.5776700375 Ry
Begin final coordinates

ATOMIC_POSITIONS (crystal)
Pb            0.0000000000        0.0000000000        1.0051904083
Ti            0.5000000000        0.5000000000        0.5395123895
O             0.5000000000        0.5000000000        0.0994787311
O             0.5000000000        0.0000000000        0.6115513795
O             0.0000000000        0.5000000000        0.6115513795
End final coordinates



     Writing all to output data dir ./PTO2.save/
 
     init_run     :     16.77s CPU     17.15s WALL (       1 calls)
     electrons    :    841.24s CPU    868.08s WALL (       1 calls)
     forces       :      3.51s CPU      3.60s WALL (       1 calls)
     stress       :     22.11s CPU     22.34s WALL (       1 calls)

     Called by init_run:
     wfcinit      :     11.76s CPU     12.01s WALL (       1 calls)
     potinit      :      0.18s CPU      0.18s WALL (       1 calls)
     hinit0       :      3.95s CPU      3.97s WALL (       1 calls)

     Called by electrons:
     c_bands      :    763.21s CPU    786.96s WALL (      14 calls)
     sum_band     :     66.83s CPU     68.77s WALL (      14 calls)
     v_of_rho     :      0.43s CPU      0.44s WALL (      15 calls)
     newd         :     11.20s CPU     12.38s WALL (      15 calls)
     mix_rho      :      0.26s CPU      0.28s WALL (      14 calls)

     Called by c_bands:
     init_us_2    :     18.75s CPU     18.84s WALL (    1488 calls)
     init_us_2:cp :     18.70s CPU     18.81s WALL (    1488 calls)
     ccgdiagg     :    666.23s CPU    687.25s WALL (     672 calls)
     wfcrot       :     97.01s CPU     98.65s WALL (     672 calls)

     Called by *cgdiagg:
     h_psi        :    517.58s CPU    530.57s WALL (   57194 calls)
     s_psi        :    126.56s CPU    132.95s WALL (  113716 calls)

     Called by h_psi:
     h_psi:calbec :     65.35s CPU     67.47s WALL (   57194 calls)
     vloc_psi     :    381.72s CPU    390.21s WALL (   57194 calls)
     add_vuspsi   :     65.14s CPU     68.14s WALL (   57194 calls)
     hs_1psi      :    496.49s CPU    510.11s WALL (   56522 calls)
     s_1psi       :    126.44s CPU    130.80s WALL (   56522 calls)

     General routines
     calbec       :    126.96s CPU    133.43s WALL (  114628 calls)
     fft          :      0.15s CPU      0.16s WALL (      68 calls)
     ffts         :      0.03s CPU      0.03s WALL (      14 calls)
     fftw         :    348.63s CPU    355.16s WALL (  158260 calls)
 
     Parallel routines
 
     PWSCF        :  14m45.06s CPU  15m14.23s WALL

 
   This run was terminated on:   9:10:43  11Apr2022            

=------------------------------------------------------------------------------=
   JOB DONE.
=------------------------------------------------------------------------------=
