
     Program PWSCF v.7.0 starts on 11Apr2022 at  8:56:28 

     This program is part of the open-source Quantum ESPRESSO suite
     for quantum simulation of materials; please cite
         "P. Giannozzi et al., J. Phys.:Condens. Matter 21 395502 (2009);
         "P. Giannozzi et al., J. Phys.:Condens. Matter 29 465901 (2017);
         "P. Giannozzi et al., J. Chem. Phys. 152 154105 (2020);
          URL http://www.quantum-espresso.org", 
     in publications or presentations arising from this work. More details at
     http://www.quantum-espresso.org/quote

     Parallel version (MPI), running on     1 processors

     MPI processes distributed on     1 nodes
     91136 MiB available memory on the printing compute node when the environment starts
 
     Waiting for input...
     Reading input from standard input
Warning: card &CELL ignored
Warning: card  CELL_DYNAMICS = 'BFGS', ignored
Warning: card  PRESS=0.1D0, ignored
Warning: card / ignored

     Current dimensions of program PWSCF are:
     Max number of different atomic species (ntypx) = 10
     Max number of k-points (npk) =  40000
     Max angular momentum in pseudopotentials (lmaxx) =  4
     Message from routine setup:
     using ibrav=0 with symmetry is DISCOURAGED, use correct ibrav instead

     Subspace diagonalization in iterative solution of the eigenvalue problem:
     a serial algorithm will be used

 
     G-vector sticks info
     --------------------
     sticks:   dense  smooth     PW     G-vecs:    dense   smooth      PW
     Sum        1685    1685    481                55053    55053    8225
 
     Using Slab Decomposition
 


     bravais-lattice index     =            0
     lattice parameter (alat)  =       7.2864  a.u.
     unit-cell volume          =     407.2847 (a.u.)^3
     number of atoms/cell      =            5
     number of atomic types    =            3
     number of electrons       =        44.00
     number of Kohn-Sham states=           22
     kinetic-energy cutoff     =     100.0000  Ry
     charge density cutoff     =     400.0000  Ry
     scf convergence threshold =      1.0E-08
     mixing beta               =       0.7000
     number of iterations used =            8  plain     mixing
     energy convergence thresh.=      1.0E-04
     force convergence thresh. =      1.0E-03
     Exchange-correlation= SLA  PZ   NOGX NOGC
                           (   1   1   0   0   0   0   0)
     nstep                     =           50


     celldm(1)=   7.286406  celldm(2)=   0.000000  celldm(3)=   0.000000
     celldm(4)=   0.000000  celldm(5)=   0.000000  celldm(6)=   0.000000

     crystal axes: (cart. coord. in units of alat)
               a(1) = (   1.000000   0.000000   0.000000 )  
               a(2) = (   0.000000   1.000000   0.000000 )  
               a(3) = (   0.000000   0.000000   1.052830 )  

     reciprocal axes: (cart. coord. in units 2 pi/alat)
               b(1) = (  1.000000  0.000000  0.000000 )  
               b(2) = (  0.000000  1.000000  0.000000 )  
               b(3) = (  0.000000  0.000000  0.949821 )  


     PseudoPot. # 1 for Pb read from file:
     ./Pb_LDA.UPF
     MD5 check sum: 062a37469794d955244864f8fe2e5624
     Pseudo is Ultrasoft + core correction, Zval = 14.0
     Generated by new atomic code, or converted to UPF format
     Using radial grid of  899 points,  6 beta functions with: 
                l(1) =   0
                l(2) =   0
                l(3) =   1
                l(4) =   1
                l(5) =   2
                l(6) =   2
     Q(r) pseudized with  6 coefficients,  rinner =    1.000   1.000   1.000
                                                       1.000   1.000

     PseudoPot. # 2 for Ti read from file:
     ./Ti_LDA.UPF
     MD5 check sum: 0d9f225c038fe889ca2a701dcc8d72cb
     Pseudo is Ultrasoft + core correction, Zval = 12.0
     Generated by new atomic code, or converted to UPF format
     Using radial grid of  851 points,  6 beta functions with: 
                l(1) =   0
                l(2) =   0
                l(3) =   1
                l(4) =   1
                l(5) =   2
                l(6) =   2
     Q(r) pseudized with  6 coefficients,  rinner =    1.000   1.000   1.000
                                                       1.000   1.000

     PseudoPot. # 3 for O  read from file:
     ./O_LDA.UPF
     MD5 check sum: 194b818514d2a7dbb603bb78519a4f40
     Pseudo is Ultrasoft + core correction, Zval =  6.0
     Generated by new atomic code, or converted to UPF format
     Using radial grid of  737 points,  5 beta functions with: 
                l(1) =   0
                l(2) =   0
                l(3) =   1
                l(4) =   1
                l(5) =   2
     Q(r) pseudized with  8 coefficients,  rinner =    0.900   0.900   0.900
                                                       0.900   0.900

     atomic species   valence    mass     pseudopotential
        Pb            14.00   207.20000     Pb( 1.00)
        Ti            12.00    47.88000     Ti( 1.00)
        O              6.00    16.00000     O ( 1.00)

      8 Sym. Ops. (no inversion) found



   Cartesian axes

     site n.     atom                  positions (alat units)
         1           Pb  tau(   1) = (   0.0000000   0.0000000   1.0582941  )
         2           Ti  tau(   2) = (   0.5000000   0.5000000   0.5680146  )
         3           O   tau(   3) = (   0.5000000   0.5000000   0.1047341  )
         4           O   tau(   4) = (   0.5000000   0.0000000   0.6438593  )
         5           O   tau(   5) = (   0.0000000   0.5000000   0.6438593  )

     number of k points=    30
                       cart. coord. in units 2pi/alat
        k(    1) = (   0.0000000   0.0000000   0.0000000), wk =   0.0081633
        k(    2) = (   0.0000000   0.0000000   0.1899643), wk =   0.0163265
        k(    3) = (   0.0000000   0.0000000   0.3799286), wk =   0.0163265
        k(    4) = (   0.0000000   0.1428571   0.0000000), wk =   0.0326531
        k(    5) = (   0.0000000   0.1428571   0.1899643), wk =   0.0653061
        k(    6) = (   0.0000000   0.1428571   0.3799286), wk =   0.0653061
        k(    7) = (   0.0000000   0.2857143   0.0000000), wk =   0.0326531
        k(    8) = (   0.0000000   0.2857143   0.1899643), wk =   0.0653061
        k(    9) = (   0.0000000   0.2857143   0.3799286), wk =   0.0653061
        k(   10) = (   0.0000000   0.4285714   0.0000000), wk =   0.0326531
        k(   11) = (   0.0000000   0.4285714   0.1899643), wk =   0.0653061
        k(   12) = (   0.0000000   0.4285714   0.3799286), wk =   0.0653061
        k(   13) = (   0.1428571   0.1428571   0.0000000), wk =   0.0326531
        k(   14) = (   0.1428571   0.1428571   0.1899643), wk =   0.0653061
        k(   15) = (   0.1428571   0.1428571   0.3799286), wk =   0.0653061
        k(   16) = (   0.1428571   0.2857143   0.0000000), wk =   0.0653061
        k(   17) = (   0.1428571   0.2857143   0.1899643), wk =   0.1306122
        k(   18) = (   0.1428571   0.2857143   0.3799286), wk =   0.1306122
        k(   19) = (   0.1428571   0.4285714   0.0000000), wk =   0.0653061
        k(   20) = (   0.1428571   0.4285714   0.1899643), wk =   0.1306122
        k(   21) = (   0.1428571   0.4285714   0.3799286), wk =   0.1306122
        k(   22) = (   0.2857143   0.2857143   0.0000000), wk =   0.0326531
        k(   23) = (   0.2857143   0.2857143   0.1899643), wk =   0.0653061
        k(   24) = (   0.2857143   0.2857143   0.3799286), wk =   0.0653061
        k(   25) = (   0.2857143   0.4285714   0.0000000), wk =   0.0653061
        k(   26) = (   0.2857143   0.4285714   0.1899643), wk =   0.1306122
        k(   27) = (   0.2857143   0.4285714   0.3799286), wk =   0.1306122
        k(   28) = (   0.4285714   0.4285714   0.0000000), wk =   0.0326531
        k(   29) = (   0.4285714   0.4285714   0.1899643), wk =   0.0653061
        k(   30) = (   0.4285714   0.4285714   0.3799286), wk =   0.0653061

     Dense  grid:    55053 G-vectors     FFT dimensions: (  48,  48,  50)

     Estimated max dynamical RAM per process >     287.27 MB

     Check: negative core charge=   -0.000003

     Initial potential from superposition of free atoms

     starting charge      42.9982, renormalised to      44.0000

     negative rho (up, down):  1.705E-02 0.000E+00
     Starting wfcs are   31 randomized atomic wfcs

     total cpu time spent up to now is       13.4 secs

     Self-consistent Calculation

     iteration #  1     ecut=   100.00 Ry     beta= 0.70
     CG style diagonalization
     ethr =  1.00E-02,  avg # of iterations =  2.1

     negative rho (up, down):  1.433E-02 0.000E+00

     total cpu time spent up to now is       34.4 secs

     total energy              =    -380.05862111 Ry
     estimated scf accuracy    <       1.02881777 Ry

     iteration #  2     ecut=   100.00 Ry     beta= 0.70
     CG style diagonalization
     ethr =  2.34E-03,  avg # of iterations =  4.9

     negative rho (up, down):  1.503E-02 0.000E+00

     total cpu time spent up to now is       73.6 secs

     total energy              =    -379.75969279 Ry
     estimated scf accuracy    <       3.92901856 Ry

     iteration #  3     ecut=   100.00 Ry     beta= 0.70
     CG style diagonalization
     ethr =  2.34E-03,  avg # of iterations =  4.5

     negative rho (up, down):  1.563E-02 0.000E+00

     total cpu time spent up to now is      109.8 secs

     total energy              =    -380.54747025 Ry
     estimated scf accuracy    <       0.25338709 Ry

     iteration #  4     ecut=   100.00 Ry     beta= 0.70
     CG style diagonalization
     ethr =  5.76E-04,  avg # of iterations =  3.4

     negative rho (up, down):  1.566E-02 0.000E+00

     total cpu time spent up to now is      137.6 secs

     total energy              =    -380.56070476 Ry
     estimated scf accuracy    <       0.05315501 Ry

     iteration #  5     ecut=   100.00 Ry     beta= 0.70
     CG style diagonalization
     ethr =  1.21E-04,  avg # of iterations =  3.8

     negative rho (up, down):  1.566E-02 0.000E+00

     total cpu time spent up to now is      167.9 secs

     total energy              =    -380.57599966 Ry
     estimated scf accuracy    <       0.00482516 Ry

     iteration #  6     ecut=   100.00 Ry     beta= 0.70
     CG style diagonalization
     ethr =  1.10E-05,  avg # of iterations =  4.0

     negative rho (up, down):  1.565E-02 0.000E+00

     total cpu time spent up to now is      200.5 secs

     total energy              =    -380.57758862 Ry
     estimated scf accuracy    <       0.00729551 Ry

     iteration #  7     ecut=   100.00 Ry     beta= 0.70
     CG style diagonalization
     ethr =  1.10E-05,  avg # of iterations =  3.2

     negative rho (up, down):  1.566E-02 0.000E+00

     total cpu time spent up to now is      226.5 secs

     total energy              =    -380.57708497 Ry
     estimated scf accuracy    <       0.00273083 Ry

     iteration #  8     ecut=   100.00 Ry     beta= 0.70
     CG style diagonalization
     ethr =  6.21E-06,  avg # of iterations =  3.6

     negative rho (up, down):  1.568E-02 0.000E+00

     total cpu time spent up to now is      255.9 secs

     total energy              =    -380.57762424 Ry
     estimated scf accuracy    <       0.00000780 Ry

     iteration #  9     ecut=   100.00 Ry     beta= 0.70
     CG style diagonalization
     c_bands:  1 eigenvalues not converged
     c_bands:  1 eigenvalues not converged
     c_bands:  1 eigenvalues not converged
     ethr =  1.77E-08,  avg # of iterations =  8.5

     negative rho (up, down):  1.572E-02 0.000E+00

     total cpu time spent up to now is      323.3 secs

     total energy              =    -380.57768168 Ry
     estimated scf accuracy    <       0.00000938 Ry

     iteration # 10     ecut=   100.00 Ry     beta= 0.70
     CG style diagonalization
     ethr =  1.77E-08,  avg # of iterations =  3.4

     negative rho (up, down):  1.580E-02 0.000E+00

     total cpu time spent up to now is      350.4 secs

     total energy              =    -380.57767923 Ry
     estimated scf accuracy    <       0.00000644 Ry

     iteration # 11     ecut=   100.00 Ry     beta= 0.70
     CG style diagonalization
     ethr =  1.46E-08,  avg # of iterations =  3.9

     negative rho (up, down):  1.580E-02 0.000E+00

     total cpu time spent up to now is      381.5 secs

     total energy              =    -380.57768050 Ry
     estimated scf accuracy    <       0.00000021 Ry

     iteration # 12     ecut=   100.00 Ry     beta= 0.70
     CG style diagonalization
     ethr =  4.75E-10,  avg # of iterations =  9.7

     negative rho (up, down):  1.580E-02 0.000E+00

     total cpu time spent up to now is      457.5 secs

     total energy              =    -380.57768173 Ry
     estimated scf accuracy    <       0.00000003 Ry

     iteration # 13     ecut=   100.00 Ry     beta= 0.70
     CG style diagonalization
     ethr =  7.82E-11,  avg # of iterations =  7.1

     negative rho (up, down):  1.581E-02 0.000E+00

     total cpu time spent up to now is      512.7 secs

     End of self-consistent calculation

          k = 0.0000 0.0000 0.0000 (  6917 PWs)   bands (ev):

   -45.2100 -21.8863 -21.8066 -21.8066  -7.1876  -6.0391  -5.7820  -4.4488
    -4.4488  -4.4089  -4.2897  -4.1808   4.8013   6.7127   6.7127   7.0755
     8.6841   8.6841   8.9185   9.2550   9.4137   9.4137

          k = 0.0000 0.0000 0.1900 (  6893 PWs)   bands (ev):

   -45.2098 -21.9021 -21.8059 -21.8059  -7.0475  -5.9975  -5.7348  -4.4608
    -4.4608  -4.4078  -4.2819  -4.2329   4.1587   6.7525   6.7525   7.3884
     8.4980   8.4980   8.8614   9.1403   9.5019   9.5019

          k = 0.0000 0.0000 0.3799 (  6896 PWs)   bands (ev):

   -45.2094 -21.9275 -21.8049 -21.8049  -6.8034  -5.9245  -5.6645  -4.4801
    -4.4801  -4.4062  -4.3227  -4.2707   3.4980   6.7352   6.7974   6.7974
     8.3007   8.3007   8.7730   9.5932   9.5932  10.2820

          k = 0.0000 0.1429 0.0000 (  6891 PWs)   bands (ev):

   -45.2097 -21.8857 -21.8219 -21.8059  -7.0793  -6.0135  -5.7585  -4.4675
    -4.4476  -4.4200  -4.2923  -4.1710   4.4210   6.7564   6.7944   7.1431
     8.6141   8.7034   8.9330   9.1202   9.1513   9.5164

          k = 0.0000 0.1429 0.1900 (  6890 PWs)   bands (ev):

   -45.2095 -21.9014 -21.8212 -21.8053  -6.9465  -5.9803  -5.7091  -4.4703
    -4.4599  -4.4193  -4.2869  -4.2041   3.9449   6.6344   6.8401   7.4297
     8.2549   8.4908   8.8632   9.0517   9.2388   9.7011

          k = 0.0000 0.1429 0.3799 (  6907 PWs)   bands (ev):

   -45.2091 -21.9267 -21.8201 -21.8043  -6.7218  -5.9218  -5.6290  -4.4797
    -4.4721  -4.4182  -4.2889  -4.2537   3.3798   6.3836   6.8912   7.0587
     7.9985   8.2950   8.9475   9.0963   9.3391  10.3919

          k = 0.0000 0.2857 0.0000 (  6881 PWs)   bands (ev):

   -45.2090 -21.8843 -21.8560 -21.8045  -6.8199  -5.9541  -5.7137  -4.5005
    -4.4458  -4.4440  -4.2926  -4.1674   3.8387   6.5935   6.9924   7.0126
     8.4896   8.5043   8.8113   8.8134   9.2268   9.8752

          k = 0.0000 0.2857 0.1900 (  6876 PWs)   bands (ev):

   -45.2088 -21.8998 -21.8552 -21.8038  -6.7161  -5.9305  -5.6549  -4.4829
    -4.4580  -4.4449  -4.2861  -4.1642   3.5467   6.4440   7.0755   7.0771
     8.0557   8.3282   8.4992   8.8991   9.2262  10.1092

          k = 0.0000 0.2857 0.3799 (  6903 PWs)   bands (ev):

   -45.2084 -21.9247 -21.8539 -21.8028  -6.5669  -5.8742  -5.5403  -4.4788
    -4.4478  -4.4450  -4.3097  -4.1372   3.1399   6.1108   6.9181   7.1391
     7.7197   8.0054   8.1917   8.9667   9.6302  10.2126

          k = 0.0000 0.4286 0.0000 (  6850 PWs)   bands (ev):

   -45.2085 -21.8846 -21.8817 -21.8033  -6.5911  -5.8891  -5.7050  -4.5227
    -4.4648  -4.4426  -4.2714  -4.1951   3.5147   6.0960   7.2470   7.2830
     7.9296   8.0382   8.7098   8.8556   9.2801  10.7879

          k = 0.0000 0.4286 0.1900 (  6864 PWs)   bands (ev):

   -45.2083 -21.8982 -21.8825 -21.8027  -6.5362  -5.8456  -5.6387  -4.4981
    -4.4654  -4.4562  -4.2487  -4.1692   3.2990   6.0746   7.0945   7.3901
     7.4619   7.9247   8.6279   8.8562   9.2090  10.5481

          k = 0.0000 0.4286 0.3799 (  6886 PWs)   bands (ev):

   -45.2079 -21.9229 -21.8810 -21.8015  -6.4891  -5.7600  -5.4757  -4.4781
    -4.4662  -4.4517  -4.2968  -4.0621   2.9818   5.9133   6.5564   7.3604
     7.4711   7.8722   7.8844   8.8570   9.7945  10.1015

          k = 0.1429 0.1429 0.0000 (  6885 PWs)   bands (ev):

   -45.2094 -21.8851 -21.8214 -21.8210  -6.9722  -5.9874  -5.7475  -4.4711
    -4.4616  -4.4268  -4.2774  -4.1618   4.1463   6.7083   6.8862   7.2074
     8.2560   8.4825   8.9737   9.0150   9.3767   9.6589

          k = 0.1429 0.1429 0.1900 (  6885 PWs)   bands (ev):

   -45.2092 -21.9007 -21.8207 -21.8204  -6.8451  -5.9637  -5.6982  -4.4758
    -4.4617  -4.4254  -4.2705  -4.1810   3.8007   6.5989   6.6692   7.4426
     8.1232   8.2546   8.7951   9.1245   9.4072   9.7168

          k = 0.1429 0.1429 0.3799 (  6878 PWs)   bands (ev):

   -45.2088 -21.9258 -21.8195 -21.8193  -6.6347  -5.9242  -5.6121  -4.4948
    -4.4363  -4.4211  -4.2706  -4.2174   3.3275   6.4127   6.4345   7.1274
     8.0345   8.0613   8.7143   9.2002   9.4466  10.2669

          k = 0.1429 0.2857 0.0000 (  6877 PWs)   bands (ev):

   -45.2087 -21.8837 -21.8552 -21.8197  -6.7170  -5.9282  -5.7313  -4.4997
    -4.4552  -4.4245  -4.2599  -4.1586   3.6625   6.5607   6.9684   7.1108
     7.8930   8.2615   8.7174   9.1235   9.3455  10.0696

          k = 0.1429 0.2857 0.1900 (  6886 PWs)   bands (ev):

   -45.2085 -21.8991 -21.8545 -21.8190  -6.6134  -5.9188  -5.6783  -4.4844
    -4.4613  -4.4145  -4.2477  -4.1457   3.4932   6.4070   6.5667   7.1588
     7.6718   8.1742   8.8132   9.0937   9.3391  10.0334

          k = 0.1429 0.2857 0.3799 (  6877 PWs)   bands (ev):

   -45.2081 -21.9239 -21.8532 -21.8179  -6.4671  -5.8936  -5.5670  -4.4833
    -4.4429  -4.3823  -4.2567  -4.1155   3.1990   6.0518   6.4723   6.8109
     7.2446   7.9871   8.8561   9.1407   9.6455   9.9226

          k = 0.1429 0.4286 0.0000 (  6860 PWs)   bands (ev):

   -45.2082 -21.8838 -21.8810 -21.8184  -6.4933  -5.8663  -5.7448  -4.5103
    -4.4460  -4.4103  -4.2435  -4.1865   3.3676   6.1087   7.0455   7.4398
     7.4837   8.0755   8.4628   9.1156   9.3812  10.5924

          k = 0.1429 0.4286 0.1900 (  6876 PWs)   bands (ev):

   -45.2080 -21.8976 -21.8817 -21.8177  -6.4328  -5.8429  -5.6894  -4.4888
    -4.4494  -4.3974  -4.2180  -4.1492   3.2802   6.0789   6.4882   6.9651
     7.5289   8.3078   8.4702   9.1043   9.3513  10.2199

          k = 0.1429 0.4286 0.3799 (  6878 PWs)   bands (ev):

   -45.2076 -21.9222 -21.8803 -21.8166  -6.3855  -5.7944  -5.5390  -4.4779
    -4.4205  -4.3731  -4.2400  -4.0424   3.1014   5.8808   6.2978   6.5009
     6.8767   8.1249   8.8022   8.9844   9.4013  10.0150

          k = 0.2857 0.2857 0.0000 (  6876 PWs)   bands (ev):

   -45.2081 -21.8823 -21.8535 -21.8534  -6.4803  -5.8703  -5.7688  -4.4901
    -4.4507  -4.3812  -4.2000  -4.1545   3.2972   6.5510   6.6548   7.3175
     7.4793   7.7794   8.5463   9.1040   9.6469  10.1405

          k = 0.2857 0.2857 0.1900 (  6877 PWs)   bands (ev):

   -45.2079 -21.8975 -21.8529 -21.8527  -6.3801  -5.8894  -5.7295  -4.4648
    -4.4511  -4.3540  -4.1751  -4.1170   3.3298   6.2466   6.2618   6.7140
     7.3874   7.7752   9.0277   9.2256   9.6736   9.7705

          k = 0.2857 0.2857 0.3799 (  6890 PWs)   bands (ev):

   -45.2075 -21.9221 -21.8517 -21.8515  -6.2553  -5.9195  -5.6170  -4.4477
    -4.4243  -4.2964  -4.1424  -4.0608   3.3153   5.7752   5.9086   6.4026
     7.0518   7.2512   8.9547   9.5674   9.6193   9.8338

          k = 0.2857 0.4286 0.0000 (  6888 PWs)   bands (ev):

   -45.2076 -21.8821 -21.8793 -21.8520  -6.2880  -5.8202  -5.7971  -4.4826
    -4.4289  -4.3192  -4.1838  -4.1609   3.0371   6.1245   6.6734   7.1574
     7.6163   7.8504   8.0827   9.1114   9.7632  10.0533

          k = 0.2857 0.4286 0.1900 (  6862 PWs)   bands (ev):

   -45.2073 -21.8960 -21.8798 -21.8514  -6.2009  -5.8410  -5.7805  -4.4548
    -4.4224  -4.2728  -4.1481  -4.1042   3.1730   6.0398   6.1539   6.3614
     7.1291   7.8936   8.8176   9.2715   9.4748   9.8442

          k = 0.2857 0.4286 0.3799 (  6866 PWs)   bands (ev):

   -45.2070 -21.9205 -21.8786 -21.8503  -6.1476  -5.8664  -5.6565  -4.4265
    -4.3928  -4.2099  -4.0942  -3.9965   3.3863   5.5248   5.6687   6.0721
     6.6917   7.2400   8.1839   9.6930   9.7806  10.0247

          k = 0.4286 0.4286 0.0000 (  6886 PWs)   bands (ev):

   -45.2070 -21.8810 -21.8791 -21.8772  -6.1713  -5.7841  -5.7774  -4.4673
    -4.3826  -4.2490  -4.2017  -4.0944   2.7783   5.9762   6.3782   7.3345
     7.4384   7.8228   7.9977   8.8431   9.3969  10.2220

          k = 0.4286 0.4286 0.1900 (  6876 PWs)   bands (ev):

   -45.2068 -21.8945 -21.8784 -21.8783  -6.0384  -5.8325  -5.8241  -4.4370
    -4.3766  -4.1671  -4.1130  -4.0630   3.0256   5.9285   6.1406   6.1954
     6.5750   7.8614   8.4517   9.1830   9.2040  10.2140

          k = 0.4286 0.4286 0.3799 (  6872 PWs)   bands (ev):

   -45.2065 -21.9190 -21.8772 -21.8772  -5.9564  -5.9120  -5.7393  -4.3881
    -4.3709  -4.0671  -3.9766  -3.9732   3.5843   5.3277   5.4389   5.8534
     6.4873   6.8002   7.1273  10.0135  10.0333  10.2011

     highest occupied level (ev):    10.7879

!    total energy              =    -380.57768181 Ry
     estimated scf accuracy    <          7.1E-09 Ry

     The total energy is the sum of the following terms:
     one-electron contribution =     -79.98766473 Ry
     hartree contribution      =      70.01602442 Ry
     xc contribution           =    -102.66982098 Ry
     ewald contribution        =    -267.93622052 Ry

     convergence has been achieved in  13 iterations

     negative rho (up, down):  1.581E-02 0.000E+00

     Forces acting on atoms (cartesian axes, Ry/au):

     atom    1 type  1   force =     0.00000000    0.00000000   -0.00037268
     atom    2 type  2   force =     0.00000000    0.00000000   -0.00182387
     atom    3 type  3   force =     0.00000000    0.00000000    0.00225523
     atom    4 type  3   force =     0.00000000    0.00000000   -0.00002934
     atom    5 type  3   force =     0.00000000    0.00000000   -0.00002934

     Total force =     0.002925     Total SCF correction =     0.000152


     Computing stress (Cartesian axis) and pressure


     negative rho (up, down):  1.581E-02 0.000E+00
          total   stress  (Ry/bohr**3)                   (kbar)     P=       -2.33
  -0.00000509   0.00000000   0.00000000           -0.75        0.00        0.00
   0.00000000  -0.00000509   0.00000000            0.00       -0.75        0.00
   0.00000000   0.00000000  -0.00003725            0.00        0.00       -5.48


     BFGS Geometry Optimization
     Energy error            =      0.0E+00 Ry
     Gradient error          =      2.3E-03 Ry/Bohr

     number of scf cycles    =   1
     number of bfgs steps    =   0

     energy             new  =    -380.5776818075 Ry

     new trust radius        =       0.0022552262 bohr
     new conv_thr            =       0.0000000100 Ry


ATOMIC_POSITIONS (crystal)
Pb            0.0000000000        0.0000000000        1.0051418270
Ti            0.5000000000        0.5000000000        0.5392746389
O             0.5000000000        0.5000000000        0.0997727117
O             0.5000000000        0.0000000000        0.6115475552
O             0.0000000000        0.5000000000        0.6115475552



     Writing config-only to output data dir ./PTO2.save/
     NEW-OLD atomic charge density approx. for the potential

     Check: negative core charge=   -0.000003

     negative rho (up, down):  1.582E-02 0.000E+00

     total cpu time spent up to now is      532.1 secs

     Self-consistent Calculation

     iteration #  1     ecut=   100.00 Ry     beta= 0.70
     CG style diagonalization
     ethr =  1.00E-06,  avg # of iterations =  2.9

     Threshold (ethr) on eigenvalues was too large:
     Diagonalizing with lowered threshold

     CG style diagonalization
     c_bands:  1 eigenvalues not converged
     c_bands:  1 eigenvalues not converged
     c_bands:  1 eigenvalues not converged
     c_bands:  2 eigenvalues not converged
     c_bands:  1 eigenvalues not converged
     c_bands:  1 eigenvalues not converged
     c_bands:  2 eigenvalues not converged
     c_bands:  1 eigenvalues not converged
     c_bands:  1 eigenvalues not converged
     c_bands:  3 eigenvalues not converged
     c_bands:  1 eigenvalues not converged
     c_bands:  1 eigenvalues not converged
     c_bands:  2 eigenvalues not converged
     c_bands:  1 eigenvalues not converged
     ethr =  7.85E-09,  avg # of iterations =  6.4

     negative rho (up, down):  1.581E-02 0.000E+00

     total cpu time spent up to now is      612.3 secs

     total energy              =    -380.57768732 Ry
     estimated scf accuracy    <       0.00000318 Ry

     iteration #  2     ecut=   100.00 Ry     beta= 0.70
     CG style diagonalization
     ethr =  7.23E-09,  avg # of iterations =  4.6

     negative rho (up, down):  1.582E-02 0.000E+00

     total cpu time spent up to now is      648.6 secs

     total energy              =    -380.57768741 Ry
     estimated scf accuracy    <       0.00000547 Ry

     iteration #  3     ecut=   100.00 Ry     beta= 0.70
     CG style diagonalization
     ethr =  7.23E-09,  avg # of iterations =  4.2

     negative rho (up, down):  1.582E-02 0.000E+00

     total cpu time spent up to now is      681.8 secs

     total energy              =    -380.57768862 Ry
     estimated scf accuracy    <       0.00000083 Ry

     iteration #  4     ecut=   100.00 Ry     beta= 0.70
     CG style diagonalization
     ethr =  1.88E-09,  avg # of iterations =  3.7

     negative rho (up, down):  1.582E-02 0.000E+00

     total cpu time spent up to now is      710.8 secs

     total energy              =    -380.57768878 Ry
     estimated scf accuracy    <       0.00000006 Ry

     iteration #  5     ecut=   100.00 Ry     beta= 0.70
     CG style diagonalization
     ethr =  1.46E-10,  avg # of iterations =  4.7

     negative rho (up, down):  1.581E-02 0.000E+00

     total cpu time spent up to now is      748.7 secs

     total energy              =    -380.57768883 Ry
     estimated scf accuracy    <       0.00000001 Ry

     iteration #  6     ecut=   100.00 Ry     beta= 0.70
     CG style diagonalization
     ethr =  3.39E-11,  avg # of iterations =  4.0

     negative rho (up, down):  1.582E-02 0.000E+00

     total cpu time spent up to now is      780.4 secs

     End of self-consistent calculation

          k = 0.0000 0.0000 0.0000 (  6917 PWs)   bands (ev):

   -45.2050 -21.8845 -21.8014 -21.8014  -7.1868  -6.0376  -5.7834  -4.4493
    -4.4493  -4.4097  -4.2907  -4.1810   4.8002   6.7134   6.7134   7.0785
     8.6749   8.6749   8.9188   9.2477   9.4153   9.4153

          k = 0.0000 0.0000 0.1900 (  6893 PWs)   bands (ev):

   -45.2048 -21.9003 -21.8008 -21.8008  -7.0463  -5.9959  -5.7364  -4.4613
    -4.4613  -4.4087  -4.2829  -4.2331   4.1570   6.7522   6.7522   7.3907
     8.4915   8.4915   8.8617   9.1364   9.5031   9.5031

          k = 0.0000 0.0000 0.3799 (  6896 PWs)   bands (ev):

   -45.2044 -21.9258 -21.7998 -21.7998  -6.8016  -5.9228  -5.6666  -4.4807
    -4.4807  -4.4071  -4.3230  -4.2718   3.4950   6.7368   6.7952   6.7952
     8.2978   8.2978   8.7732   9.5945   9.5945  10.2821

          k = 0.0000 0.1429 0.0000 (  6891 PWs)   bands (ev):

   -45.2047 -21.8839 -21.8167 -21.8008  -7.0786  -6.0121  -5.7600  -4.4681
    -4.4481  -4.4209  -4.2931  -4.1712   4.4204   6.7571   6.7952   7.1443
     8.6094   8.6942   8.9318   9.1217   9.1488   9.5135

          k = 0.0000 0.1429 0.1900 (  6890 PWs)   bands (ev):

   -45.2045 -21.8996 -21.8160 -21.8001  -6.9455  -5.9788  -5.7108  -4.4709
    -4.4605  -4.4202  -4.2878  -4.2043   3.9436   6.6342   6.8400   7.4309
     8.2516   8.4846   8.8623   9.0498   9.2397   9.7006

          k = 0.0000 0.1429 0.3799 (  6907 PWs)   bands (ev):

   -45.2041 -21.9249 -21.8149 -21.7991  -6.7200  -5.9203  -5.6312  -4.4803
    -4.4727  -4.4191  -4.2898  -4.2541   3.3774   6.3819   6.8891   7.0602
     7.9968   8.2922   8.9489   9.0945   9.3403  10.3926

          k = 0.0000 0.2857 0.0000 (  6881 PWs)   bands (ev):

   -45.2040 -21.8825 -21.8509 -21.7993  -6.8192  -5.9529  -5.7153  -4.5012
    -4.4465  -4.4447  -4.2932  -4.1676   3.8384   6.5944   6.9925   7.0138
     8.4892   8.5050   8.8026   8.8137   9.2226   9.8728

          k = 0.0000 0.2857 0.1900 (  6876 PWs)   bands (ev):

   -45.2038 -21.8980 -21.8501 -21.7987  -6.7150  -5.9294  -5.6568  -4.4835
    -4.4585  -4.4457  -4.2868  -4.1644   3.5460   6.4442   7.0759   7.0772
     8.0559   8.3255   8.4984   8.8959   9.2243  10.1081

          k = 0.0000 0.2857 0.3799 (  6903 PWs)   bands (ev):

   -45.2034 -21.9229 -21.8488 -21.7976  -6.5652  -5.8730  -5.5427  -4.4794
    -4.4484  -4.4458  -4.3104  -4.1373   3.1387   6.1085   6.9203   7.1373
     7.7196   8.0071   8.1900   8.9664   9.6265  10.2136

          k = 0.0000 0.4286 0.0000 (  6850 PWs)   bands (ev):

   -45.2035 -21.8815 -21.8778 -21.7982  -6.5903  -5.8881  -5.7068  -4.5232
    -4.4656  -4.4431  -4.2716  -4.1955   3.5143   6.0986   7.2460   7.2848
     7.9309   8.0394   8.7101   8.8456   9.2754  10.7859

          k = 0.0000 0.4286 0.1900 (  6864 PWs)   bands (ev):

   -45.2033 -21.8964 -21.8774 -21.7975  -6.5350  -5.8447  -5.6409  -4.4986
    -4.4662  -4.4567  -4.2492  -4.1694   3.2985   6.0767   7.0942   7.3915
     7.4617   7.9239   8.6270   8.8501   9.2083  10.5459

          k = 0.0000 0.4286 0.3799 (  6886 PWs)   bands (ev):

   -45.2029 -21.9211 -21.8759 -21.7964  -6.4875  -5.7590  -5.4785  -4.4786
    -4.4670  -4.4522  -4.2974  -4.0621   2.9813   5.9128   6.5571   7.3606
     7.4693   7.8724   7.8864   8.8546   9.7937  10.0985

          k = 0.1429 0.1429 0.0000 (  6885 PWs)   bands (ev):

   -45.2044 -21.8833 -21.8162 -21.8159  -6.9715  -5.9859  -5.7489  -4.4717
    -4.4622  -4.4276  -4.2782  -4.1620   4.1459   6.7095   6.8872   7.2072
     8.2494   8.4826   8.9686   9.0146   9.3786   9.6530

          k = 0.1429 0.1429 0.1900 (  6885 PWs)   bands (ev):

   -45.2042 -21.8989 -21.8155 -21.8152  -6.8440  -5.9622  -5.6999  -4.4765
    -4.4623  -4.4262  -4.2714  -4.1812   3.7997   6.5987   6.6692   7.4427
     8.1200   8.2544   8.7902   9.1234   9.4085   9.7153

          k = 0.1429 0.1429 0.3799 (  6878 PWs)   bands (ev):

   -45.2038 -21.9241 -21.8143 -21.8142  -6.6331  -5.9227  -5.6144  -4.4955
    -4.4369  -4.4217  -4.2715  -4.2176   3.3254   6.4107   6.4332   7.1293
     8.0344   8.0595   8.7120   9.1991   9.4476  10.2677

          k = 0.1429 0.2857 0.0000 (  6877 PWs)   bands (ev):

   -45.2037 -21.8819 -21.8501 -21.8145  -6.7165  -5.9269  -5.7328  -4.5003
    -4.4558  -4.4253  -4.2606  -4.1588   3.6624   6.5623   6.9676   7.1120
     7.8930   8.2549   8.7183   9.1218   9.3446  10.0655

          k = 0.1429 0.2857 0.1900 (  6886 PWs)   bands (ev):

   -45.2035 -21.8973 -21.8493 -21.8138  -6.6125  -5.9176  -5.6801  -4.4850
    -4.4618  -4.4153  -4.2484  -4.1459   3.4927   6.4071   6.5666   7.1593
     7.6709   8.1734   8.8111   9.0924   9.3377  10.0321

          k = 0.1429 0.2857 0.3799 (  6877 PWs)   bands (ev):

   -45.2032 -21.9221 -21.8481 -21.8127  -6.4656  -5.8924  -5.5694  -4.4840
    -4.4436  -4.3830  -4.2575  -4.1155   3.1978   6.0497   6.4718   6.8121
     7.2459   7.9880   8.8517   9.1424   9.6421   9.9235

          k = 0.1429 0.4286 0.0000 (  6860 PWs)   bands (ev):

   -45.2032 -21.8808 -21.8770 -21.8133  -6.4928  -5.8653  -5.7462  -4.5108
    -4.4466  -4.4113  -4.2439  -4.1868   3.3675   6.1113   7.0441   7.4420
     7.4844   8.0771   8.4540   9.1156   9.3786  10.5905

          k = 0.1429 0.4286 0.1900 (  6876 PWs)   bands (ev):

   -45.2030 -21.8957 -21.8765 -21.8126  -6.4318  -5.8420  -5.6913  -4.4893
    -4.4500  -4.3983  -4.2185  -4.1493   3.2799   6.0810   6.4882   6.9649
     7.5285   8.3070   8.4697   9.1006   9.3509  10.2180

          k = 0.1429 0.4286 0.3799 (  6878 PWs)   bands (ev):

   -45.2026 -21.9204 -21.8751 -21.8115  -6.3841  -5.7934  -5.5415  -4.4786
    -4.4211  -4.3741  -4.2405  -4.0424   3.1009   5.8798   6.2985   6.5020
     6.8765   8.1265   8.8031   8.9805   9.4012  10.0119

          k = 0.2857 0.2857 0.0000 (  6876 PWs)   bands (ev):

   -45.2031 -21.8804 -21.8484 -21.8482  -6.4803  -5.8691  -5.7699  -4.4906
    -4.4514  -4.3819  -4.2009  -4.1547   3.2973   6.5538   6.6552   7.3190
     7.4769   7.7724   8.5501   9.1020   9.6476  10.1374

          k = 0.2857 0.2857 0.1900 (  6877 PWs)   bands (ev):

   -45.2029 -21.8957 -21.8478 -21.8475  -6.3796  -5.8883  -5.7311  -4.4653
    -4.4518  -4.3548  -4.1760  -4.1171   3.3296   6.2468   6.2611   6.7151
     7.3875   7.7751   9.0252   9.2253   9.6740   9.7682

          k = 0.2857 0.2857 0.3799 (  6890 PWs)   bands (ev):

   -45.2025 -21.9203 -21.8465 -21.8464  -6.2541  -5.9184  -5.6193  -4.4484
    -4.4249  -4.2973  -4.1432  -4.0609   3.3146   5.7739   5.9087   6.4025
     7.0533   7.2539   8.9528   9.5647   9.6206   9.8314

          k = 0.2857 0.4286 0.0000 (  6888 PWs)   bands (ev):

   -45.2026 -21.8793 -21.8751 -21.8469  -6.2886  -5.8196  -5.7972  -4.4831
    -4.4296  -4.3199  -4.1842  -4.1617   3.0373   6.1270   6.6758   7.1542
     7.6181   7.8430   8.0853   9.1108   9.7632  10.0533

          k = 0.2857 0.4286 0.1900 (  6862 PWs)   bands (ev):

   -45.2023 -21.8941 -21.8747 -21.8463  -6.2007  -5.8402  -5.7816  -4.4553
    -4.4231  -4.2737  -4.1485  -4.1046   3.1731   6.0407   6.1540   6.3619
     7.1300   7.8928   8.8178   9.2692   9.4724   9.8452

          k = 0.2857 0.4286 0.3799 (  6866 PWs)   bands (ev):

   -45.2020 -21.9187 -21.8734 -21.8452  -6.1465  -5.8655  -5.6586  -4.4272
    -4.3934  -4.2112  -4.0946  -3.9967   3.3861   5.5251   5.6670   6.0740
     6.6928   7.2422   8.1833   9.6898   9.7817  10.0220

          k = 0.4286 0.4286 0.0000 (  6886 PWs)   bands (ev):

   -45.2020 -21.8781 -21.8740 -21.8732  -6.1732  -5.7834  -5.7764  -4.4678
    -4.3834  -4.2492  -4.2019  -4.0959   2.7786   5.9781   6.3825   7.3304
     7.4331   7.8240   7.9998   8.8426   9.3975  10.2235

          k = 0.4286 0.4286 0.1900 (  6876 PWs)   bands (ev):

   -45.2018 -21.8927 -21.8733 -21.8732  -6.0398  -5.8317  -5.8239  -4.4375
    -4.3774  -4.1676  -4.1131  -4.0644   3.0260   5.9302   6.1409   6.1943
     6.5774   7.8611   8.4524   9.1812   9.2017  10.2155

          k = 0.4286 0.4286 0.3799 (  6872 PWs)   bands (ev):

   -45.2015 -21.9172 -21.8721 -21.8721  -5.9556  -5.9112  -5.7412  -4.3885
    -4.3717  -4.0686  -3.9771  -3.9732   3.5847   5.3271   5.4378   5.8552
     6.4917   6.8002   7.1273  10.0105  10.0307  10.2025

     highest occupied level (ev):    10.7859

!    total energy              =    -380.57768883 Ry
     estimated scf accuracy    <          3.7E-09 Ry

     The total energy is the sum of the following terms:
     one-electron contribution =     -80.00610807 Ry
     hartree contribution      =      70.02632596 Ry
     xc contribution           =    -102.67093458 Ry
     ewald contribution        =    -267.92697214 Ry

     convergence has been achieved in   6 iterations

     negative rho (up, down):  1.582E-02 0.000E+00

     Forces acting on atoms (cartesian axes, Ry/au):

     atom    1 type  1   force =     0.00000000    0.00000000   -0.00062779
     atom    2 type  2   force =     0.00000000    0.00000000   -0.00057275
     atom    3 type  3   force =     0.00000000    0.00000000    0.00095211
     atom    4 type  3   force =     0.00000000    0.00000000    0.00012421
     atom    5 type  3   force =     0.00000000    0.00000000    0.00012421

     Total force =     0.001288     Total SCF correction =     0.000229
     SCF correction compared to forces is large: reduce conv_thr to get better values


     Computing stress (Cartesian axis) and pressure


     negative rho (up, down):  1.582E-02 0.000E+00
          total   stress  (Ry/bohr**3)                   (kbar)     P=       -1.85
  -0.00000547   0.00000000   0.00000000           -0.81        0.00        0.00
   0.00000000  -0.00000547   0.00000000            0.00       -0.81        0.00
   0.00000000   0.00000000  -0.00002675            0.00        0.00       -3.93


     BFGS Geometry Optimization
     Energy error            =      0.0E+00 Ry
     Gradient error          =      9.5E-04 Ry/Bohr

     bfgs converged in   1 scf cycles and   0 bfgs steps
     (criteria: energy <  1.0E-04 Ry, force <  1.0E-03 Ry/Bohr)

     End of BFGS Geometry Optimization

     Final energy             =    -380.5776888321 Ry
Begin final coordinates

ATOMIC_POSITIONS (crystal)
Pb            0.0000000000        0.0000000000        1.0051418270
Ti            0.5000000000        0.5000000000        0.5392746389
O             0.5000000000        0.5000000000        0.0997727117
O             0.5000000000        0.0000000000        0.6115475552
O             0.0000000000        0.5000000000        0.6115475552
End final coordinates



     Writing all to output data dir ./PTO2.save/
 
     init_run     :     11.75s CPU     12.05s WALL (       1 calls)
     electrons    :    723.04s CPU    747.64s WALL (       2 calls)
     update_pot   :      0.41s CPU      0.41s WALL (       1 calls)
     forces       :      4.54s CPU      4.70s WALL (       2 calls)
     stress       :     31.48s CPU     31.95s WALL (       2 calls)

     Called by init_run:
     wfcinit      :      7.36s CPU      7.54s WALL (       1 calls)
     potinit      :      0.10s CPU      0.11s WALL (       1 calls)
     hinit0       :      3.59s CPU      3.62s WALL (       1 calls)

     Called by electrons:
     c_bands      :    649.97s CPU    671.00s WALL (      20 calls)
     sum_band     :     61.35s CPU     63.45s WALL (      20 calls)
     v_of_rho     :      0.58s CPU      0.59s WALL (      21 calls)
     newd         :     11.98s CPU     13.48s WALL (      21 calls)
     mix_rho      :      0.29s CPU      0.31s WALL (      20 calls)

     Called by c_bands:
     init_us_2    :     16.83s CPU     16.91s WALL (    1350 calls)
     init_us_2:cp :     16.78s CPU     16.88s WALL (    1350 calls)
     ccgdiagg     :    570.77s CPU    589.58s WALL (     600 calls)
     wfcrot       :     76.68s CPU     78.00s WALL (     540 calls)

     Called by *cgdiagg:
     h_psi        :    440.75s CPU    451.87s WALL (   50425 calls)
     s_psi        :    104.94s CPU    110.67s WALL (  100310 calls)

     Called by h_psi:
     h_psi:calbec :     54.82s CPU     56.61s WALL (   50425 calls)
     vloc_psi     :    327.17s CPU    334.34s WALL (   50425 calls)
     add_vuspsi   :     54.06s CPU     56.72s WALL (   50425 calls)
     hs_1psi      :    426.65s CPU    438.89s WALL (   49885 calls)
     s_1psi       :    106.20s CPU    110.00s WALL (   49885 calls)

     General routines
     calbec       :    107.17s CPU    112.80s WALL (  101210 calls)
     fft          :      0.22s CPU      0.23s WALL (     102 calls)
     ffts         :      0.05s CPU      0.05s WALL (      20 calls)
     fftw         :    298.64s CPU    304.16s WALL (  137270 calls)
 
     Parallel routines
 
     PWSCF        :  12m53.19s CPU  13m19.94s WALL

 
   This run was terminated on:   9: 9:48  11Apr2022            

=------------------------------------------------------------------------------=
   JOB DONE.
=------------------------------------------------------------------------------=
