
     Program PWSCF v.7.0 starts on 11Apr2022 at  9:16:26 

     This program is part of the open-source Quantum ESPRESSO suite
     for quantum simulation of materials; please cite
         "P. Giannozzi et al., J. Phys.:Condens. Matter 21 395502 (2009);
         "P. Giannozzi et al., J. Phys.:Condens. Matter 29 465901 (2017);
         "P. Giannozzi et al., J. Chem. Phys. 152 154105 (2020);
          URL http://www.quantum-espresso.org", 
     in publications or presentations arising from this work. More details at
     http://www.quantum-espresso.org/quote

     Parallel version (MPI), running on     1 processors

     MPI processes distributed on     1 nodes
     90646 MiB available memory on the printing compute node when the environment starts
 
     Waiting for input...
     Reading input from standard input
Warning: card &CELL ignored
Warning: card  CELL_DYNAMICS = 'BFGS', ignored
Warning: card  PRESS=0.1D0, ignored
Warning: card / ignored

     Current dimensions of program PWSCF are:
     Max number of different atomic species (ntypx) = 10
     Max number of k-points (npk) =  40000
     Max angular momentum in pseudopotentials (lmaxx) =  4
     Message from routine setup:
     using ibrav=0 with symmetry is DISCOURAGED, use correct ibrav instead

     Subspace diagonalization in iterative solution of the eigenvalue problem:
     a serial algorithm will be used

 
     G-vector sticks info
     --------------------
     sticks:   dense  smooth     PW     G-vecs:    dense   smooth      PW
     Sum        1689    1689    481                55013    55013    8237
 
     Using Slab Decomposition
 


     bravais-lattice index     =            0
     lattice parameter (alat)  =       7.3010  a.u.
     unit-cell volume          =     407.2838 (a.u.)^3
     number of atoms/cell      =            5
     number of atomic types    =            3
     number of electrons       =        44.00
     number of Kohn-Sham states=           22
     kinetic-energy cutoff     =     100.0000  Ry
     charge density cutoff     =     400.0000  Ry
     scf convergence threshold =      1.0E-08
     mixing beta               =       0.7000
     number of iterations used =            8  plain     mixing
     energy convergence thresh.=      1.0E-04
     force convergence thresh. =      1.0E-03
     Exchange-correlation= SLA  PZ   NOGX NOGC
                           (   1   1   0   0   0   0   0)
     nstep                     =           50


     celldm(1)=   7.300957  celldm(2)=   0.000000  celldm(3)=   0.000000
     celldm(4)=   0.000000  celldm(5)=   0.000000  celldm(6)=   0.000000

     crystal axes: (cart. coord. in units of alat)
               a(1) = (   1.000000   0.000000   0.000000 )  
               a(2) = (   0.000000   0.998007   0.000000 )  
               a(3) = (   0.000000   0.000000   1.048635 )  

     reciprocal axes: (cart. coord. in units 2 pi/alat)
               b(1) = (  1.000000  0.000000  0.000000 )  
               b(2) = (  0.000000  1.001997  0.000000 )  
               b(3) = (  0.000000  0.000000  0.953621 )  


     PseudoPot. # 1 for Pb read from file:
     ./Pb_LDA.UPF
     MD5 check sum: 062a37469794d955244864f8fe2e5624
     Pseudo is Ultrasoft + core correction, Zval = 14.0
     Generated by new atomic code, or converted to UPF format
     Using radial grid of  899 points,  6 beta functions with: 
                l(1) =   0
                l(2) =   0
                l(3) =   1
                l(4) =   1
                l(5) =   2
                l(6) =   2
     Q(r) pseudized with  6 coefficients,  rinner =    1.000   1.000   1.000
                                                       1.000   1.000

     PseudoPot. # 2 for Ti read from file:
     ./Ti_LDA.UPF
     MD5 check sum: 0d9f225c038fe889ca2a701dcc8d72cb
     Pseudo is Ultrasoft + core correction, Zval = 12.0
     Generated by new atomic code, or converted to UPF format
     Using radial grid of  851 points,  6 beta functions with: 
                l(1) =   0
                l(2) =   0
                l(3) =   1
                l(4) =   1
                l(5) =   2
                l(6) =   2
     Q(r) pseudized with  6 coefficients,  rinner =    1.000   1.000   1.000
                                                       1.000   1.000

     PseudoPot. # 3 for O  read from file:
     ./O_LDA.UPF
     MD5 check sum: 194b818514d2a7dbb603bb78519a4f40
     Pseudo is Ultrasoft + core correction, Zval =  6.0
     Generated by new atomic code, or converted to UPF format
     Using radial grid of  737 points,  5 beta functions with: 
                l(1) =   0
                l(2) =   0
                l(3) =   1
                l(4) =   1
                l(5) =   2
     Q(r) pseudized with  8 coefficients,  rinner =    0.900   0.900   0.900
                                                       0.900   0.900

     atomic species   valence    mass     pseudopotential
        Pb            14.00   207.20000     Pb( 1.00)
        Ti            12.00    47.88000     Ti( 1.00)
        O              6.00    16.00000     O ( 1.00)

      4 Sym. Ops. (no inversion) found



   Cartesian axes

     site n.     atom                  positions (alat units)
         1           Pb  tau(   1) = (   0.0000000   0.0000000   1.0540775  )
         2           Ti  tau(   2) = (   0.5000000   0.4990035   0.5657514  )
         3           O   tau(   3) = (   0.5000000   0.4990035   0.1043168  )
         4           O   tau(   4) = (   0.5000000   0.0000000   0.6412940  )
         5           O   tau(   5) = (   0.0000000   0.4990035   0.6412940  )

     number of k points=    48
                       cart. coord. in units 2pi/alat
        k(    1) = (   0.0000000   0.0000000   0.0000000), wk =   0.0081633
        k(    2) = (   0.0000000   0.0000000   0.1907242), wk =   0.0163265
        k(    3) = (   0.0000000   0.0000000   0.3814484), wk =   0.0163265
        k(    4) = (   0.0000000   0.1431424   0.0000000), wk =   0.0163265
        k(    5) = (   0.0000000   0.1431424   0.1907242), wk =   0.0326531
        k(    6) = (   0.0000000   0.1431424   0.3814484), wk =   0.0326531
        k(    7) = (   0.0000000   0.2862849   0.0000000), wk =   0.0163265
        k(    8) = (   0.0000000   0.2862849   0.1907242), wk =   0.0326531
        k(    9) = (   0.0000000   0.2862849   0.3814484), wk =   0.0326531
        k(   10) = (   0.0000000   0.4294273   0.0000000), wk =   0.0163265
        k(   11) = (   0.0000000   0.4294273   0.1907242), wk =   0.0326531
        k(   12) = (   0.0000000   0.4294273   0.3814484), wk =   0.0326531
        k(   13) = (   0.1428571   0.0000000   0.0000000), wk =   0.0163265
        k(   14) = (   0.1428571   0.0000000   0.1907242), wk =   0.0326531
        k(   15) = (   0.1428571   0.0000000   0.3814484), wk =   0.0326531
        k(   16) = (   0.1428571   0.1431424   0.0000000), wk =   0.0326531
        k(   17) = (   0.1428571   0.1431424   0.1907242), wk =   0.0653061
        k(   18) = (   0.1428571   0.1431424   0.3814484), wk =   0.0653061
        k(   19) = (   0.1428571   0.2862849   0.0000000), wk =   0.0326531
        k(   20) = (   0.1428571   0.2862849   0.1907242), wk =   0.0653061
        k(   21) = (   0.1428571   0.2862849   0.3814484), wk =   0.0653061
        k(   22) = (   0.1428571   0.4294273   0.0000000), wk =   0.0326531
        k(   23) = (   0.1428571   0.4294273   0.1907242), wk =   0.0653061
        k(   24) = (   0.1428571   0.4294273   0.3814484), wk =   0.0653061
        k(   25) = (   0.2857143   0.0000000   0.0000000), wk =   0.0163265
        k(   26) = (   0.2857143   0.0000000   0.1907242), wk =   0.0326531
        k(   27) = (   0.2857143   0.0000000   0.3814484), wk =   0.0326531
        k(   28) = (   0.2857143   0.1431424   0.0000000), wk =   0.0326531
        k(   29) = (   0.2857143   0.1431424   0.1907242), wk =   0.0653061
        k(   30) = (   0.2857143   0.1431424   0.3814484), wk =   0.0653061
        k(   31) = (   0.2857143   0.2862849   0.0000000), wk =   0.0326531
        k(   32) = (   0.2857143   0.2862849   0.1907242), wk =   0.0653061
        k(   33) = (   0.2857143   0.2862849   0.3814484), wk =   0.0653061
        k(   34) = (   0.2857143   0.4294273   0.0000000), wk =   0.0326531
        k(   35) = (   0.2857143   0.4294273   0.1907242), wk =   0.0653061
        k(   36) = (   0.2857143   0.4294273   0.3814484), wk =   0.0653061
        k(   37) = (   0.4285714   0.0000000   0.0000000), wk =   0.0163265
        k(   38) = (   0.4285714   0.0000000   0.1907242), wk =   0.0326531
        k(   39) = (   0.4285714   0.0000000   0.3814484), wk =   0.0326531
        k(   40) = (   0.4285714   0.1431424   0.0000000), wk =   0.0326531
        k(   41) = (   0.4285714   0.1431424   0.1907242), wk =   0.0653061
        k(   42) = (   0.4285714   0.1431424   0.3814484), wk =   0.0653061
        k(   43) = (   0.4285714   0.2862849   0.0000000), wk =   0.0326531
        k(   44) = (   0.4285714   0.2862849   0.1907242), wk =   0.0653061
        k(   45) = (   0.4285714   0.2862849   0.3814484), wk =   0.0653061
        k(   46) = (   0.4285714   0.4294273   0.0000000), wk =   0.0326531
        k(   47) = (   0.4285714   0.4294273   0.1907242), wk =   0.0653061
        k(   48) = (   0.4285714   0.4294273   0.3814484), wk =   0.0653061

     Dense  grid:    55013 G-vectors     FFT dimensions: (  48,  48,  50)

     Estimated max dynamical RAM per process >     328.69 MB

     Check: negative core charge=   -0.000003

     Initial potential from superposition of free atoms

     starting charge      42.9982, renormalised to      44.0000

     negative rho (up, down):  1.706E-02 0.000E+00
     Starting wfcs are   31 randomized atomic wfcs

     total cpu time spent up to now is       18.5 secs

     Self-consistent Calculation

     iteration #  1     ecut=   100.00 Ry     beta= 0.70
     CG style diagonalization
     ethr =  1.00E-02,  avg # of iterations =  2.1

     negative rho (up, down):  1.434E-02 0.000E+00

     total cpu time spent up to now is       51.5 secs

     total energy              =    -380.05970089 Ry
     estimated scf accuracy    <       1.02757748 Ry

     iteration #  2     ecut=   100.00 Ry     beta= 0.70
     CG style diagonalization
     ethr =  2.34E-03,  avg # of iterations =  4.9

     negative rho (up, down):  1.504E-02 0.000E+00

     total cpu time spent up to now is      113.2 secs

     total energy              =    -379.75995872 Ry
     estimated scf accuracy    <       3.92504405 Ry

     iteration #  3     ecut=   100.00 Ry     beta= 0.70
     CG style diagonalization
     ethr =  2.34E-03,  avg # of iterations =  4.5

     negative rho (up, down):  1.563E-02 0.000E+00

     total cpu time spent up to now is      169.9 secs

     total energy              =    -380.54751277 Ry
     estimated scf accuracy    <       0.25304519 Ry

     iteration #  4     ecut=   100.00 Ry     beta= 0.70
     CG style diagonalization
     ethr =  5.75E-04,  avg # of iterations =  3.4

     negative rho (up, down):  1.567E-02 0.000E+00

     total cpu time spent up to now is      213.4 secs

     total energy              =    -380.56056240 Ry
     estimated scf accuracy    <       0.05349236 Ry

     iteration #  5     ecut=   100.00 Ry     beta= 0.70
     CG style diagonalization
     ethr =  1.22E-04,  avg # of iterations =  3.8

     negative rho (up, down):  1.567E-02 0.000E+00

     total cpu time spent up to now is      261.2 secs

     total energy              =    -380.57591926 Ry
     estimated scf accuracy    <       0.00483331 Ry

     iteration #  6     ecut=   100.00 Ry     beta= 0.70
     CG style diagonalization
     ethr =  1.10E-05,  avg # of iterations =  4.1

     negative rho (up, down):  1.566E-02 0.000E+00

     total cpu time spent up to now is      313.1 secs

     total energy              =    -380.57760450 Ry
     estimated scf accuracy    <       0.00742257 Ry

     iteration #  7     ecut=   100.00 Ry     beta= 0.70
     CG style diagonalization
     ethr =  1.10E-05,  avg # of iterations =  3.2

     negative rho (up, down):  1.567E-02 0.000E+00

     total cpu time spent up to now is      354.4 secs

     total energy              =    -380.57708403 Ry
     estimated scf accuracy    <       0.00279863 Ry

     iteration #  8     ecut=   100.00 Ry     beta= 0.70
     CG style diagonalization
     ethr =  6.36E-06,  avg # of iterations =  3.7

     negative rho (up, down):  1.569E-02 0.000E+00

     total cpu time spent up to now is      400.1 secs

     total energy              =    -380.57762981 Ry
     estimated scf accuracy    <       0.00000756 Ry

     iteration #  9     ecut=   100.00 Ry     beta= 0.70
     CG style diagonalization
     c_bands:  1 eigenvalues not converged
     c_bands:  1 eigenvalues not converged
     c_bands:  1 eigenvalues not converged
     ethr =  1.72E-08,  avg # of iterations =  8.5

     negative rho (up, down):  1.573E-02 0.000E+00

     total cpu time spent up to now is      504.5 secs

     total energy              =    -380.57768652 Ry
     estimated scf accuracy    <       0.00000803 Ry

     iteration # 10     ecut=   100.00 Ry     beta= 0.70
     CG style diagonalization
     ethr =  1.72E-08,  avg # of iterations =  3.4

     negative rho (up, down):  1.579E-02 0.000E+00

     total cpu time spent up to now is      546.2 secs

     total energy              =    -380.57768529 Ry
     estimated scf accuracy    <       0.00000506 Ry

     iteration # 11     ecut=   100.00 Ry     beta= 0.70
     CG style diagonalization
     ethr =  1.15E-08,  avg # of iterations =  3.9

     negative rho (up, down):  1.581E-02 0.000E+00

     total cpu time spent up to now is      594.2 secs

     total energy              =    -380.57768592 Ry
     estimated scf accuracy    <       0.00000084 Ry

     iteration # 12     ecut=   100.00 Ry     beta= 0.70
     CG style diagonalization
     ethr =  1.91E-09,  avg # of iterations =  6.4

     negative rho (up, down):  1.581E-02 0.000E+00

     total cpu time spent up to now is      673.5 secs

     total energy              =    -380.57768697 Ry
     estimated scf accuracy    <       0.00000028 Ry

     iteration # 13     ecut=   100.00 Ry     beta= 0.70
     CG style diagonalization
     ethr =  6.39E-10,  avg # of iterations =  5.9

     negative rho (up, down):  1.581E-02 0.000E+00

     total cpu time spent up to now is      746.2 secs

     total energy              =    -380.57768727 Ry
     estimated scf accuracy    <       0.00000003 Ry

     iteration # 14     ecut=   100.00 Ry     beta= 0.70
     CG style diagonalization
     ethr =  5.87E-11,  avg # of iterations =  8.7

     negative rho (up, down):  1.582E-02 0.000E+00

     total cpu time spent up to now is      853.7 secs

     End of self-consistent calculation

          k = 0.0000 0.0000 0.0000 (  6893 PWs)   bands (ev):

   -45.2078 -21.8877 -21.8043 -21.8023  -7.1850  -6.0365  -5.7842  -4.4495
    -4.4489  -4.4102  -4.2936  -4.1769   4.8072   6.6998   6.7155   7.0849
     8.6809   8.6844   8.9262   9.2556   9.4088   9.4121

          k = 0.0000 0.0000 0.1907 (  6882 PWs)   bands (ev):

   -45.2075 -21.9039 -21.8037 -21.8016  -7.0429  -5.9943  -5.7356  -4.4618
    -4.4612  -4.4092  -4.2850  -4.2295   4.1626   6.7410   6.7546   7.3885
     8.4910   8.4971   8.8677   9.1433   9.4986   9.5006

          k = 0.0000 0.0000 0.3814 (  6876 PWs)   bands (ev):

   -45.2072 -21.9300 -21.8026 -21.8006  -6.7957  -5.9202  -5.6629  -4.4815
    -4.4809  -4.4075  -4.3206  -4.2723   3.4991   6.7196   6.7879   6.7975
     8.2892   8.3010   8.7770   9.5915   9.5923  10.2934

          k = 0.0000 0.1431 0.0000 (  6883 PWs)   bands (ev):

   -45.2075 -21.8871 -21.8196 -21.8016  -7.0765  -6.0108  -5.7610  -4.4677
    -4.4483  -4.4214  -4.2958  -4.1674   4.4244   6.7657   6.7820   7.1502
     8.6136   8.6982   8.9348   9.1197   9.1511   9.5172

          k = 0.0000 0.1431 0.1907 (  6889 PWs)   bands (ev):

   -45.2073 -21.9032 -21.8189 -21.8010  -6.9418  -5.9772  -5.7104  -4.4704
    -4.4609  -4.4207  -4.2900  -4.2006   3.9485   6.6380   6.8290   7.4326
     8.2485   8.4828   8.8619   9.0564   9.2377   9.7047

          k = 0.0000 0.1431 0.3814 (  6901 PWs)   bands (ev):

   -45.2069 -21.9291 -21.8178 -21.7999  -6.7138  -5.9182  -5.6278  -4.4811
    -4.4723  -4.4195  -4.2906  -4.2511   3.3822   6.3773   6.8822   7.0514
     7.9952   8.2831   8.9452   9.0993   9.3379  10.4012

          k = 0.0000 0.2863 0.0000 (  6871 PWs)   bands (ev):

   -45.2068 -21.8857 -21.8538 -21.8002  -6.8164  -5.9513  -5.7170  -4.5008
    -4.4469  -4.4450  -4.2946  -4.1648   3.8399   6.5971   7.0016   7.0047
     8.4929   8.4957   8.8118   8.8175   9.2282   9.8713

          k = 0.0000 0.2863 0.1907 (  6875 PWs)   bands (ev):

   -45.2066 -21.9016 -21.8530 -21.7995  -6.7104  -5.9280  -5.6573  -4.4828
    -4.4589  -4.4462  -4.2882  -4.1608   3.5499   6.4473   7.0658   7.0809
     8.0505   8.3198   8.4952   8.8962   9.2330  10.1099

          k = 0.0000 0.2863 0.3814 (  6901 PWs)   bands (ev):

   -45.2062 -21.9271 -21.8517 -21.7984  -6.5585  -5.8716  -5.5401  -4.4802
    -4.4470  -4.4463  -4.3113  -4.1332   3.1445   6.1064   6.9158   7.1310
     7.7079   8.0012   8.1813   8.9624   9.6319  10.2150

          k = 0.0000 0.4294 0.0000 (  6850 PWs)   bands (ev):

   -45.2063 -21.8847 -21.8808 -21.7990  -6.5865  -5.8867  -5.7092  -4.5230
    -4.4661  -4.4433  -4.2709  -4.1945   3.5149   6.0974   7.2564   7.2736
     7.9405   8.0310   8.7127   8.8522   9.2826  10.7828

          k = 0.0000 0.4294 0.1907 (  6862 PWs)   bands (ev):

   -45.2061 -21.9000 -21.8803 -21.7983  -6.5295  -5.8433  -5.6426  -4.4979
    -4.4667  -4.4572  -4.2492  -4.1662   3.3021   6.0763   7.0966   7.3821
     7.4604   7.9173   8.6258   8.8499   9.2192  10.5389

          k = 0.0000 0.4294 0.3814 (  6885 PWs)   bands (ev):

   -45.2057 -21.9254 -21.8787 -21.7972  -6.4811  -5.7571  -5.4768  -4.4794
    -4.4675  -4.4506  -4.2975  -4.0571   2.9879   5.9118   6.5503   7.3525
     7.4636   7.8655   7.8777   8.8478   9.7943  10.0954

          k = 0.1429 0.0000 0.0000 (  6887 PWs)   bands (ev):

   -45.2075 -21.8871 -21.8172 -21.8037  -7.0779  -6.0114  -5.7613  -4.4682
    -4.4477  -4.4212  -4.2958  -4.1679   4.4236   6.7571   6.7974   7.1515
     8.6094   8.7025   8.9332   9.1183   9.1527   9.5175

          k = 0.1429 0.0000 0.1907 (  6889 PWs)   bands (ev):

   -45.2073 -21.9032 -21.8165 -21.8030  -6.9433  -5.9776  -5.7106  -4.4709
    -4.4603  -4.4205  -4.2894  -4.2021   3.9473   6.6297   6.8424   7.4348
     8.2490   8.4890   8.8611   9.0517   9.2384   9.7038

          k = 0.1429 0.0000 0.3814 (  6903 PWs)   bands (ev):

   -45.2069 -21.9291 -21.8154 -21.8020  -6.7156  -5.9179  -5.6280  -4.4805
    -4.4725  -4.4193  -4.2891  -4.2542   3.3806   6.3717   6.8912   7.0530
     7.9912   8.2949   8.9481   9.0927   9.3399  10.4019

          k = 0.1429 0.1431 0.0000 (  6881 PWs)   bands (ev):

   -45.2072 -21.8865 -21.8190 -21.8165  -6.9707  -5.9851  -5.7504  -4.4718
    -4.4619  -4.4279  -4.2808  -4.1590   4.1475   6.7065   6.8951   7.2137
     8.2584   8.4805   8.9678   9.0187   9.3734   9.6584

          k = 0.1429 0.1431 0.1907 (  6889 PWs)   bands (ev):

   -45.2070 -21.9025 -21.8183 -21.8159  -6.8416  -5.9610  -5.6999  -4.4763
    -4.4623  -4.4265  -4.2734  -4.1785   3.8029   6.5967   6.6702   7.4465
     8.1230   8.2488   8.7900   9.1275   9.4042   9.7186

          k = 0.1429 0.1431 0.3814 (  6880 PWs)   bands (ev):

   -45.2066 -21.9283 -21.8171 -21.8147  -6.6283  -5.9208  -5.6114  -4.4955
    -4.4368  -4.4217  -4.2725  -4.2157   3.3292   6.4089   6.4238   7.1272
     8.0331   8.0529   8.7088   9.2015   9.4438  10.2744

          k = 0.1429 0.2863 0.0000 (  6864 PWs)   bands (ev):

   -45.2065 -21.8851 -21.8530 -21.8150  -6.7152  -5.9256  -5.7343  -4.5003
    -4.4557  -4.4255  -4.2626  -4.1566   3.6617   6.5626   6.9694   7.1192
     7.8965   8.2614   8.7227   9.1177   9.3454  10.0640

          k = 0.1429 0.2863 0.1907 (  6881 PWs)   bands (ev):

   -45.2063 -21.9009 -21.8523 -21.8143  -6.6093  -5.9164  -5.6805  -4.4847
    -4.4620  -4.4155  -4.2503  -4.1429   3.4949   6.4096   6.5656   7.1585
     7.6723   8.1700   8.8093   9.0917   9.3403  10.0318

          k = 0.1429 0.2863 0.3814 (  6883 PWs)   bands (ev):

   -45.2059 -21.9264 -21.8510 -21.8132  -6.4604  -5.8912  -5.5668  -4.4839
    -4.4434  -4.3825  -4.2591  -4.1118   3.2027   6.0491   6.4662   6.8058
     7.2422   7.9827   8.8423   9.1357   9.6457   9.9255

          k = 0.1429 0.4294 0.0000 (  6866 PWs)   bands (ev):

   -45.2060 -21.8840 -21.8800 -21.8138  -6.4909  -5.8639  -5.7478  -4.5109
    -4.4467  -4.4118  -4.2441  -4.1862   3.3656   6.1097   7.0468   7.4479
     7.4880   8.0814   8.4597   9.1101   9.3828  10.5907

          k = 0.1429 0.4294 0.1907 (  6868 PWs)   bands (ev):

   -45.2058 -21.8994 -21.8795 -21.8131  -6.4279  -5.8407  -5.6925  -4.4890
    -4.4501  -4.3990  -4.2191  -4.1467   3.2813   6.0802   6.4874   6.9678
     7.5272   8.3030   8.4678   9.1009   9.3559  10.2135

          k = 0.1429 0.4294 0.3814 (  6876 PWs)   bands (ev):

   -45.2054 -21.9246 -21.8780 -21.8119  -6.3793  -5.7916  -5.5395  -4.4784
    -4.4207  -4.3745  -4.2411  -4.0377   3.1065   5.8793   6.2956   6.4979
     6.8665   8.1223   8.7922   8.9723   9.3943  10.0191

          k = 0.2857 0.0000 0.0000 (  6877 PWs)   bands (ev):

   -45.2069 -21.8857 -21.8506 -21.8023  -6.8211  -5.9533  -5.7180  -4.5013
    -4.4463  -4.4444  -4.2954  -4.1659   3.8398   6.6022   7.0060   7.0168
     8.4887   8.5026   8.8106   8.8154   9.2288   9.8697

          k = 0.2857 0.0000 0.1907 (  6875 PWs)   bands (ev):

   -45.2066 -21.9016 -21.8498 -21.8016  -6.7154  -5.9291  -5.6582  -4.4834
    -4.4584  -4.4456  -4.2878  -4.1640   3.5477   6.4485   7.0789   7.0859
     8.0520   8.3260   8.4994   8.8996   9.2284  10.1054

          k = 0.2857 0.0000 0.3814 (  6905 PWs)   bands (ev):

   -45.2062 -21.9272 -21.8485 -21.8005  -6.5638  -5.8714  -5.5408  -4.4797
    -4.4475  -4.4456  -4.3105  -4.1383   3.1400   6.1039   6.9207   7.1388
     7.7159   8.0062   8.1928   8.9682   9.6218  10.2213

          k = 0.2857 0.1431 0.0000 (  6869 PWs)   bands (ev):

   -45.2066 -21.8851 -21.8498 -21.8175  -6.7184  -5.9271  -5.7351  -4.5005
    -4.4556  -4.4254  -4.2630  -4.1572   3.6620   6.5687   6.9750   7.1225
     7.8943   8.2613   8.7209   9.1240   9.3453  10.0614

          k = 0.2857 0.1431 0.1907 (  6883 PWs)   bands (ev):

   -45.2063 -21.9009 -21.8491 -21.8168  -6.6126  -5.9173  -5.6811  -4.4849
    -4.4619  -4.4153  -4.2497  -4.1452   3.4936   6.4112   6.5718   7.1608
     7.6722   8.1754   8.8158   9.0943   9.3385  10.0275

          k = 0.2857 0.1431 0.3814 (  6884 PWs)   bands (ev):

   -45.2060 -21.9264 -21.8478 -21.8156  -6.4639  -5.8913  -5.5673  -4.4841
    -4.4434  -4.3823  -4.2576  -4.1161   3.1995   6.0469   6.4715   6.8074
     7.2484   7.9879   8.8493   9.1439   9.6369   9.9297

          k = 0.2857 0.2863 0.0000 (  6873 PWs)   bands (ev):

   -45.2059 -21.8837 -21.8513 -21.8481  -6.4822  -5.8685  -5.7710  -4.4911
    -4.4513  -4.3822  -4.2038  -4.1535   3.2937   6.5572   6.6594   7.3293
     7.4855   7.7794   8.5537   9.1054   9.6426  10.1357

          k = 0.2857 0.2863 0.1907 (  6874 PWs)   bands (ev):

   -45.2057 -21.8993 -21.8506 -21.8474  -6.3795  -5.8877  -5.7315  -4.4655
    -4.4519  -4.3550  -4.1782  -4.1157   3.3285   6.2488   6.2669   6.7154
     7.3898   7.7761   9.0317   9.2307   9.6697   9.7649

          k = 0.2857 0.2863 0.3814 (  6891 PWs)   bands (ev):

   -45.2053 -21.9246 -21.8494 -21.8462  -6.2521  -5.9179  -5.6168  -4.4486
    -4.4245  -4.2972  -4.1442  -4.0591   3.3170   5.7737   5.9094   6.3949
     7.0497   7.2556   8.9457   9.5670   9.6178   9.8325

          k = 0.2857 0.4294 0.0000 (  6890 PWs)   bands (ev):

   -45.2054 -21.8825 -21.8781 -21.8467  -6.2908  -5.8187  -5.7967  -4.4838
    -4.4298  -4.3197  -4.1853  -4.1636   3.0318   6.1242   6.6853   7.1634
     7.6250   7.8493   8.0920   9.1139   9.7511  10.0639

          k = 0.2857 0.4294 0.1907 (  6869 PWs)   bands (ev):

   -45.2052 -21.8978 -21.8777 -21.8460  -6.2005  -5.8392  -5.7816  -4.4557
    -4.4232  -4.2741  -4.1502  -4.1038   3.1702   6.0400   6.1567   6.3675
     7.1330   7.8907   8.8236   9.2749   9.4735   9.8402

          k = 0.2857 0.4294 0.3814 (  6869 PWs)   bands (ev):

   -45.2048 -21.9230 -21.8764 -21.8449  -6.1455  -5.8639  -5.6560  -4.4273
    -4.3928  -4.2122  -4.0960  -3.9929   3.3888   5.5246   5.6689   6.0706
     6.6833   7.2424   8.1761   9.6871   9.7741  10.0294

          k = 0.4286 0.0000 0.0000 (  6844 PWs)   bands (ev):

   -45.2063 -21.8845 -21.8773 -21.8012  -6.5938  -5.8905  -5.7103  -4.5235
    -4.4652  -4.4429  -4.2736  -4.1948   3.5155   6.1107   7.2596   7.2906
     7.9362   8.0358   8.7127   8.8523   9.2833  10.7759

          k = 0.4286 0.0000 0.1907 (  6874 PWs)   bands (ev):

   -45.2061 -21.9001 -21.8765 -21.8005  -6.5366  -5.8464  -5.6435  -4.4986
    -4.4657  -4.4567  -4.2493  -4.1706   3.2994   6.0882   7.0991   7.3974
     7.4636   7.9217   8.6288   8.8536   9.2179  10.5357

          k = 0.4286 0.0000 0.3814 (  6883 PWs)   bands (ev):

   -45.2057 -21.9255 -21.8749 -21.7993  -6.4873  -5.7594  -5.4778  -4.4790
    -4.4665  -4.4513  -4.2976  -4.0637   2.9812   5.9153   6.5585   7.3609
     7.4690   7.8784   7.8836   8.8552   9.8011  10.0938

          k = 0.4286 0.1431 0.0000 (  6871 PWs)   bands (ev):

   -45.2060 -21.8838 -21.8764 -21.8163  -6.4964  -5.8673  -5.7487  -4.5112
    -4.4466  -4.4115  -4.2461  -4.1862   3.3666   6.1236   7.0526   7.4536
     7.4854   8.0801   8.4602   9.1169   9.3848  10.5833

          k = 0.4286 0.1431 0.1907 (  6877 PWs)   bands (ev):

   -45.2058 -21.8994 -21.8757 -21.8156  -6.4333  -5.8436  -5.6931  -4.4893
    -4.4502  -4.3987  -4.2184  -4.1506   3.2796   6.0925   6.4938   6.9650
     7.5269   8.3122   8.4770   9.1041   9.3561  10.2104

          k = 0.4286 0.1431 0.3814 (  6871 PWs)   bands (ev):

   -45.2054 -21.9247 -21.8742 -21.8144  -6.3836  -5.7944  -5.5402  -4.4786
    -4.4209  -4.3742  -4.2397  -4.0440   3.1009   5.8815   6.3025   6.5062
     6.8676   8.1262   8.8101   8.9794   9.4004  10.0139

          k = 0.4286 0.2863 0.0000 (  6896 PWs)   bands (ev):

   -45.2054 -21.8823 -21.8745 -21.8499  -6.2926  -5.8199  -5.7982  -4.4837
    -4.4299  -4.3209  -4.1834  -4.1653   3.0326   6.1390   6.6750   7.1643
     7.6297   7.8489   8.0909   9.1149   9.7672  10.0495

          k = 0.4286 0.2863 0.1907 (  6867 PWs)   bands (ev):

   -45.2052 -21.8978 -21.8738 -21.8493  -6.2020  -5.8412  -5.7821  -4.4555
    -4.4237  -4.2749  -4.1477  -4.1070   3.1700   6.0508   6.1601   6.3611
     7.1308   7.8908   8.8344   9.2751   9.4725   9.8416

          k = 0.4286 0.2863 0.3814 (  6867 PWs)   bands (ev):

   -45.2048 -21.9230 -21.8725 -21.8481  -6.1455  -5.8672  -5.6562  -4.4270
    -4.3937  -4.2125  -4.0923  -3.9983   3.3861   5.5280   5.6649   6.0772
     6.6897   7.2376   8.1840   9.6937   9.7806  10.0250

          k = 0.4286 0.4294 0.0000 (  6891 PWs)   bands (ev):

   -45.2049 -21.8811 -21.8766 -21.8729  -6.1776  -5.7831  -5.7756  -4.4687
    -4.3840  -4.2497  -4.2020  -4.1005   2.7715   5.9815   6.3893   7.3385
     7.4392   7.8325   8.0077   8.8463   9.4120  10.2172

          k = 0.4286 0.4294 0.1907 (  6874 PWs)   bands (ev):

   -45.2046 -21.8963 -21.8762 -21.8723  -6.0415  -5.8319  -5.8234  -4.4379
    -4.3780  -4.1680  -4.1125  -4.0679   3.0208   5.9336   6.1447   6.1972
     6.5819   7.8572   8.4639   9.1909   9.2105  10.2090

          k = 0.4286 0.4294 0.3814 (  6867 PWs)   bands (ev):

   -45.2043 -21.9215 -21.8750 -21.8712  -5.9559  -5.9116  -5.7383  -4.3883
    -4.3722  -4.0707  -3.9781  -3.9705   3.5846   5.3273   5.4362   5.8556
     6.4979   6.7889   7.1272  10.0158  10.0366  10.1960

     highest occupied level (ev):    10.7828

!    total energy              =    -380.57768737 Ry
     estimated scf accuracy    <          4.7E-09 Ry

     The total energy is the sum of the following terms:
     one-electron contribution =     -79.96461995 Ry
     hartree contribution      =      70.00482806 Ry
     xc contribution           =    -102.66977728 Ry
     ewald contribution        =    -267.94811820 Ry

     convergence has been achieved in  14 iterations

     negative rho (up, down):  1.582E-02 0.000E+00

     Forces acting on atoms (cartesian axes, Ry/au):

     atom    1 type  1   force =     0.00000000    0.00000000   -0.00040980
     atom    2 type  2   force =     0.00000000    0.00000000    0.00057094
     atom    3 type  3   force =     0.00000000    0.00000000    0.00018718
     atom    4 type  3   force =     0.00000000    0.00000000    0.00003146
     atom    5 type  3   force =     0.00000000    0.00000000   -0.00037979

     Total force =     0.000821     Total SCF correction =     0.000046


     Computing stress (Cartesian axis) and pressure


     negative rho (up, down):  1.582E-02 0.000E+00
          total   stress  (Ry/bohr**3)                   (kbar)     P=       -2.57
  -0.00003218   0.00000000   0.00000000           -4.73        0.00        0.00
   0.00000000  -0.00000680   0.00000000            0.00       -1.00        0.00
   0.00000000   0.00000000  -0.00001344            0.00        0.00       -1.98

     Energy error            =      1.6E-05 Ry
     Gradient error          =      5.7E-04 Ry/Bohr

     bfgs converged in   2 scf cycles and   1 bfgs steps
     (criteria: energy <  1.0E-04 Ry, force <  1.0E-03 Ry/Bohr)

     End of BFGS Geometry Optimization

     Final energy             =    -380.5776873749 Ry

     File ./PTO2.bfgs deleted, as requested
Begin final coordinates

ATOMIC_POSITIONS (crystal)
Pb            0.0000000000        0.0000000000        1.0051904083
Ti            0.5000000000        0.5000000000        0.5395123895
O             0.5000000000        0.5000000000        0.0994787311
O             0.5000000000        0.0000000000        0.6115513795
O             0.0000000000        0.5000000000        0.6115513795
End final coordinates



     Writing all to output data dir ./PTO2.save/
 
     init_run     :     16.79s CPU     17.19s WALL (       1 calls)
     electrons    :    807.43s CPU    835.23s WALL (       1 calls)
     forces       :      3.50s CPU      3.59s WALL (       1 calls)
     stress       :     22.25s CPU     22.47s WALL (       1 calls)

     Called by init_run:
     wfcinit      :     11.75s CPU     12.04s WALL (       1 calls)
     potinit      :      0.18s CPU      0.19s WALL (       1 calls)
     hinit0       :      3.95s CPU      3.97s WALL (       1 calls)

     Called by electrons:
     c_bands      :    731.79s CPU    756.69s WALL (      14 calls)
     sum_band     :     64.73s CPU     66.56s WALL (      14 calls)
     v_of_rho     :      0.41s CPU      0.43s WALL (      15 calls)
     newd         :     10.98s CPU     12.02s WALL (      15 calls)
     mix_rho      :      0.25s CPU      0.28s WALL (      14 calls)

     Called by c_bands:
     init_us_2    :     18.35s CPU     18.47s WALL (    1488 calls)
     init_us_2:cp :     18.30s CPU     18.44s WALL (    1488 calls)
     ccgdiagg     :    636.36s CPU    658.50s WALL (     672 calls)
     wfcrot       :     95.54s CPU     97.19s WALL (     672 calls)

     Called by *cgdiagg:
     h_psi        :    502.90s CPU    515.97s WALL (   56998 calls)
     s_psi        :    117.14s CPU    123.70s WALL (  113324 calls)

     Called by h_psi:
     h_psi:calbec :     60.92s CPU     62.95s WALL (   56998 calls)
     vloc_psi     :    376.02s CPU    384.57s WALL (   56998 calls)
     add_vuspsi   :     60.64s CPU     63.78s WALL (   56998 calls)
     hs_1psi      :    477.94s CPU    492.03s WALL (   56326 calls)
     s_1psi       :    117.27s CPU    121.95s WALL (   56326 calls)

     General routines
     calbec       :    117.64s CPU    124.37s WALL (  114236 calls)
     fft          :      0.15s CPU      0.15s WALL (      68 calls)
     ffts         :      0.03s CPU      0.03s WALL (      14 calls)
     fftw         :    342.70s CPU    349.19s WALL (  157868 calls)
 
     Parallel routines
 
     PWSCF        :  14m11.41s CPU  14m41.53s WALL

 
   This run was terminated on:   9:31: 8  11Apr2022            

=------------------------------------------------------------------------------=
   JOB DONE.
=------------------------------------------------------------------------------=
