
     Program PWSCF v.7.0 starts on 11Apr2022 at  9:45:39 

     This program is part of the open-source Quantum ESPRESSO suite
     for quantum simulation of materials; please cite
         "P. Giannozzi et al., J. Phys.:Condens. Matter 21 395502 (2009);
         "P. Giannozzi et al., J. Phys.:Condens. Matter 29 465901 (2017);
         "P. Giannozzi et al., J. Chem. Phys. 152 154105 (2020);
          URL http://www.quantum-espresso.org", 
     in publications or presentations arising from this work. More details at
     http://www.quantum-espresso.org/quote

     Parallel version (MPI), running on     1 processors

     MPI processes distributed on     1 nodes
     90598 MiB available memory on the printing compute node when the environment starts
 
     Waiting for input...
     Reading input from standard input
Warning: card &CELL ignored
Warning: card  CELL_DYNAMICS = 'BFGS', ignored
Warning: card  PRESS=0.1D0, ignored
Warning: card / ignored

     Current dimensions of program PWSCF are:
     Max number of different atomic species (ntypx) = 10
     Max number of k-points (npk) =  40000
     Max angular momentum in pseudopotentials (lmaxx) =  4
     Message from routine setup:
     using ibrav=0 with symmetry is DISCOURAGED, use correct ibrav instead

     Subspace diagonalization in iterative solution of the eigenvalue problem:
     a serial algorithm will be used

 
     G-vector sticks info
     --------------------
     sticks:   dense  smooth     PW     G-vecs:    dense   smooth      PW
     Sum        1697    1697    485                55225    55225    8265
 
     Using Slab Decomposition
 


     bravais-lattice index     =            0
     lattice parameter (alat)  =       7.3301  a.u.
     unit-cell volume          =     408.9072 (a.u.)^3
     number of atoms/cell      =            5
     number of atomic types    =            3
     number of electrons       =        44.00
     number of Kohn-Sham states=           22
     kinetic-energy cutoff     =     100.0000  Ry
     charge density cutoff     =     400.0000  Ry
     scf convergence threshold =      1.0E-08
     mixing beta               =       0.7000
     number of iterations used =            8  plain     mixing
     energy convergence thresh.=      1.0E-04
     force convergence thresh. =      1.0E-03
     Exchange-correlation= SLA  PZ   NOGX NOGC
                           (   1   1   0   0   0   0   0)
     nstep                     =           50


     celldm(1)=   7.330059  celldm(2)=   0.000000  celldm(3)=   0.000000
     celldm(4)=   0.000000  celldm(5)=   0.000000  celldm(6)=   0.000000

     crystal axes: (cart. coord. in units of alat)
               a(1) = (   1.000000   0.000000   0.000000 )  
               a(2) = (   0.000000   0.994045   0.000000 )  
               a(3) = (   0.000000   0.000000   1.044471 )  

     reciprocal axes: (cart. coord. in units 2 pi/alat)
               b(1) = (  1.000000  0.000000  0.000000 )  
               b(2) = (  0.000000  1.005991  0.000000 )  
               b(3) = (  0.000000  0.000000  0.957422 )  


     PseudoPot. # 1 for Pb read from file:
     ./Pb_LDA.UPF
     MD5 check sum: 062a37469794d955244864f8fe2e5624
     Pseudo is Ultrasoft + core correction, Zval = 14.0
     Generated by new atomic code, or converted to UPF format
     Using radial grid of  899 points,  6 beta functions with: 
                l(1) =   0
                l(2) =   0
                l(3) =   1
                l(4) =   1
                l(5) =   2
                l(6) =   2
     Q(r) pseudized with  6 coefficients,  rinner =    1.000   1.000   1.000
                                                       1.000   1.000

     PseudoPot. # 2 for Ti read from file:
     ./Ti_LDA.UPF
     MD5 check sum: 0d9f225c038fe889ca2a701dcc8d72cb
     Pseudo is Ultrasoft + core correction, Zval = 12.0
     Generated by new atomic code, or converted to UPF format
     Using radial grid of  851 points,  6 beta functions with: 
                l(1) =   0
                l(2) =   0
                l(3) =   1
                l(4) =   1
                l(5) =   2
                l(6) =   2
     Q(r) pseudized with  6 coefficients,  rinner =    1.000   1.000   1.000
                                                       1.000   1.000

     PseudoPot. # 3 for O  read from file:
     ./O_LDA.UPF
     MD5 check sum: 194b818514d2a7dbb603bb78519a4f40
     Pseudo is Ultrasoft + core correction, Zval =  6.0
     Generated by new atomic code, or converted to UPF format
     Using radial grid of  737 points,  5 beta functions with: 
                l(1) =   0
                l(2) =   0
                l(3) =   1
                l(4) =   1
                l(5) =   2
     Q(r) pseudized with  8 coefficients,  rinner =    0.900   0.900   0.900
                                                       0.900   0.900

     atomic species   valence    mass     pseudopotential
        Pb            14.00   207.20000     Pb( 1.00)
        Ti            12.00    47.88000     Ti( 1.00)
        O              6.00    16.00000     O ( 1.00)

      4 Sym. Ops. (no inversion) found



   Cartesian axes

     site n.     atom                  positions (alat units)
         1           Pb  tau(   1) = (   0.0000000   0.0000000   1.0498926  )
         2           Ti  tau(   2) = (   0.5000000   0.4970224   0.5635052  )
         3           O   tau(   3) = (   0.5000000   0.4970224   0.1039027  )
         4           O   tau(   4) = (   0.5000000   0.0000000   0.6387479  )
         5           O   tau(   5) = (   0.0000000   0.4970224   0.6387479  )

     number of k points=    48
                       cart. coord. in units 2pi/alat
        k(    1) = (   0.0000000   0.0000000   0.0000000), wk =   0.0081633
        k(    2) = (   0.0000000   0.0000000   0.1914844), wk =   0.0163265
        k(    3) = (   0.0000000   0.0000000   0.3829689), wk =   0.0163265
        k(    4) = (   0.0000000   0.1437130   0.0000000), wk =   0.0163265
        k(    5) = (   0.0000000   0.1437130   0.1914844), wk =   0.0326531
        k(    6) = (   0.0000000   0.1437130   0.3829689), wk =   0.0326531
        k(    7) = (   0.0000000   0.2874260   0.0000000), wk =   0.0163265
        k(    8) = (   0.0000000   0.2874260   0.1914844), wk =   0.0326531
        k(    9) = (   0.0000000   0.2874260   0.3829689), wk =   0.0326531
        k(   10) = (   0.0000000   0.4311390   0.0000000), wk =   0.0163265
        k(   11) = (   0.0000000   0.4311390   0.1914844), wk =   0.0326531
        k(   12) = (   0.0000000   0.4311390   0.3829689), wk =   0.0326531
        k(   13) = (   0.1428571   0.0000000   0.0000000), wk =   0.0163265
        k(   14) = (   0.1428571   0.0000000   0.1914844), wk =   0.0326531
        k(   15) = (   0.1428571   0.0000000   0.3829689), wk =   0.0326531
        k(   16) = (   0.1428571   0.1437130   0.0000000), wk =   0.0326531
        k(   17) = (   0.1428571   0.1437130   0.1914844), wk =   0.0653061
        k(   18) = (   0.1428571   0.1437130   0.3829689), wk =   0.0653061
        k(   19) = (   0.1428571   0.2874260   0.0000000), wk =   0.0326531
        k(   20) = (   0.1428571   0.2874260   0.1914844), wk =   0.0653061
        k(   21) = (   0.1428571   0.2874260   0.3829689), wk =   0.0653061
        k(   22) = (   0.1428571   0.4311390   0.0000000), wk =   0.0326531
        k(   23) = (   0.1428571   0.4311390   0.1914844), wk =   0.0653061
        k(   24) = (   0.1428571   0.4311390   0.3829689), wk =   0.0653061
        k(   25) = (   0.2857143   0.0000000   0.0000000), wk =   0.0163265
        k(   26) = (   0.2857143   0.0000000   0.1914844), wk =   0.0326531
        k(   27) = (   0.2857143   0.0000000   0.3829689), wk =   0.0326531
        k(   28) = (   0.2857143   0.1437130   0.0000000), wk =   0.0326531
        k(   29) = (   0.2857143   0.1437130   0.1914844), wk =   0.0653061
        k(   30) = (   0.2857143   0.1437130   0.3829689), wk =   0.0653061
        k(   31) = (   0.2857143   0.2874260   0.0000000), wk =   0.0326531
        k(   32) = (   0.2857143   0.2874260   0.1914844), wk =   0.0653061
        k(   33) = (   0.2857143   0.2874260   0.3829689), wk =   0.0653061
        k(   34) = (   0.2857143   0.4311390   0.0000000), wk =   0.0326531
        k(   35) = (   0.2857143   0.4311390   0.1914844), wk =   0.0653061
        k(   36) = (   0.2857143   0.4311390   0.3829689), wk =   0.0653061
        k(   37) = (   0.4285714   0.0000000   0.0000000), wk =   0.0163265
        k(   38) = (   0.4285714   0.0000000   0.1914844), wk =   0.0326531
        k(   39) = (   0.4285714   0.0000000   0.3829689), wk =   0.0326531
        k(   40) = (   0.4285714   0.1437130   0.0000000), wk =   0.0326531
        k(   41) = (   0.4285714   0.1437130   0.1914844), wk =   0.0653061
        k(   42) = (   0.4285714   0.1437130   0.3829689), wk =   0.0653061
        k(   43) = (   0.4285714   0.2874260   0.0000000), wk =   0.0326531
        k(   44) = (   0.4285714   0.2874260   0.1914844), wk =   0.0653061
        k(   45) = (   0.4285714   0.2874260   0.3829689), wk =   0.0653061
        k(   46) = (   0.4285714   0.4311390   0.0000000), wk =   0.0326531
        k(   47) = (   0.4285714   0.4311390   0.1914844), wk =   0.0653061
        k(   48) = (   0.4285714   0.4311390   0.3829689), wk =   0.0653061

     Dense  grid:    55225 G-vectors     FFT dimensions: (  48,  48,  50)

     Estimated max dynamical RAM per process >     329.92 MB

     Check: negative core charge=   -0.000003

     Initial potential from superposition of free atoms

     starting charge      42.9982, renormalised to      44.0000

     negative rho (up, down):  1.708E-02 0.000E+00
     Starting wfcs are   31 randomized atomic wfcs

     total cpu time spent up to now is       18.5 secs

     Self-consistent Calculation

     iteration #  1     ecut=   100.00 Ry     beta= 0.70
     CG style diagonalization
     ethr =  1.00E-02,  avg # of iterations =  2.1

     negative rho (up, down):  1.434E-02 0.000E+00

     total cpu time spent up to now is       52.2 secs

     total energy              =    -380.05893053 Ry
     estimated scf accuracy    <       1.02805720 Ry

     iteration #  2     ecut=   100.00 Ry     beta= 0.70
     CG style diagonalization
     ethr =  2.34E-03,  avg # of iterations =  4.9

     negative rho (up, down):  1.504E-02 0.000E+00

     total cpu time spent up to now is      115.3 secs

     total energy              =    -379.73962717 Ry
     estimated scf accuracy    <       4.03781740 Ry

     iteration #  3     ecut=   100.00 Ry     beta= 0.70
     CG style diagonalization
     ethr =  2.34E-03,  avg # of iterations =  4.5

     negative rho (up, down):  1.564E-02 0.000E+00

     total cpu time spent up to now is      173.2 secs

     total energy              =    -380.54677502 Ry
     estimated scf accuracy    <       0.25998913 Ry

     iteration #  4     ecut=   100.00 Ry     beta= 0.70
     CG style diagonalization
     ethr =  5.91E-04,  avg # of iterations =  3.4

     negative rho (up, down):  1.568E-02 0.000E+00

     total cpu time spent up to now is      217.5 secs

     total energy              =    -380.56019216 Ry
     estimated scf accuracy    <       0.05586979 Ry

     iteration #  5     ecut=   100.00 Ry     beta= 0.70
     CG style diagonalization
     ethr =  1.27E-04,  avg # of iterations =  3.8

     negative rho (up, down):  1.567E-02 0.000E+00

     total cpu time spent up to now is      266.9 secs

     total energy              =    -380.57560754 Ry
     estimated scf accuracy    <       0.00459315 Ry

     iteration #  6     ecut=   100.00 Ry     beta= 0.70
     CG style diagonalization
     ethr =  1.04E-05,  avg # of iterations =  4.2

     negative rho (up, down):  1.567E-02 0.000E+00

     total cpu time spent up to now is      320.9 secs

     total energy              =    -380.57754088 Ry
     estimated scf accuracy    <       0.00743715 Ry

     iteration #  7     ecut=   100.00 Ry     beta= 0.70
     CG style diagonalization
     ethr =  1.04E-05,  avg # of iterations =  3.2

     negative rho (up, down):  1.567E-02 0.000E+00

     total cpu time spent up to now is      362.3 secs

     total energy              =    -380.57696436 Ry
     estimated scf accuracy    <       0.00290978 Ry

     iteration #  8     ecut=   100.00 Ry     beta= 0.70
     CG style diagonalization
     ethr =  6.61E-06,  avg # of iterations =  3.6

     negative rho (up, down):  1.570E-02 0.000E+00

     total cpu time spent up to now is      408.8 secs

     total energy              =    -380.57751595 Ry
     estimated scf accuracy    <       0.00000698 Ry

     iteration #  9     ecut=   100.00 Ry     beta= 0.70
     CG style diagonalization
     c_bands:  1 eigenvalues not converged
     c_bands:  1 eigenvalues not converged
     c_bands:  1 eigenvalues not converged
     ethr =  1.59E-08,  avg # of iterations =  8.8

     negative rho (up, down):  1.573E-02 0.000E+00

     total cpu time spent up to now is      520.6 secs

     total energy              =    -380.57757535 Ry
     estimated scf accuracy    <       0.00000896 Ry

     iteration # 10     ecut=   100.00 Ry     beta= 0.70
     CG style diagonalization
     ethr =  1.59E-08,  avg # of iterations =  3.5

     negative rho (up, down):  1.577E-02 0.000E+00

     total cpu time spent up to now is      565.6 secs

     total energy              =    -380.57757520 Ry
     estimated scf accuracy    <       0.00000464 Ry

     iteration # 11     ecut=   100.00 Ry     beta= 0.70
     CG style diagonalization
     ethr =  1.05E-08,  avg # of iterations =  3.5

     negative rho (up, down):  1.581E-02 0.000E+00

     total cpu time spent up to now is      609.6 secs

     total energy              =    -380.57757474 Ry
     estimated scf accuracy    <       0.00000316 Ry

     iteration # 12     ecut=   100.00 Ry     beta= 0.70
     CG style diagonalization
     ethr =  7.17E-09,  avg # of iterations =  4.2

     negative rho (up, down):  1.581E-02 0.000E+00

     total cpu time spent up to now is      663.4 secs

     total energy              =    -380.57757573 Ry
     estimated scf accuracy    <       0.00000023 Ry

     iteration # 13     ecut=   100.00 Ry     beta= 0.70
     CG style diagonalization
     ethr =  5.21E-10,  avg # of iterations =  7.9

     negative rho (up, down):  1.582E-02 0.000E+00

     total cpu time spent up to now is      763.7 secs

     total energy              =    -380.57757638 Ry
     estimated scf accuracy    <       0.00000004 Ry

     iteration # 14     ecut=   100.00 Ry     beta= 0.70
     CG style diagonalization
     ethr =  8.20E-11,  avg # of iterations =  7.6

     negative rho (up, down):  1.582E-02 0.000E+00

     total cpu time spent up to now is      860.4 secs

     End of self-consistent calculation

          k = 0.0000 0.0000 0.0000 (  6909 PWs)   bands (ev):

   -45.2846 -21.9625 -21.8795 -21.8736  -7.2244  -6.0841  -5.8374  -4.5212
    -4.5193  -4.4824  -4.3679  -4.2453   4.7395   6.6307   6.6770   7.0372
     8.6221   8.6324   8.8771   9.1937   9.3444   9.3544

          k = 0.0000 0.0000 0.1915 (  6914 PWs)   bands (ev):

   -45.2843 -21.9787 -21.8789 -21.8730  -7.0821  -6.0417  -5.7890  -4.5333
    -4.5315  -4.4814  -4.3591  -4.2977   4.1030   6.6746   6.7151   7.3278
     8.4282   8.4463   8.8175   9.0831   9.4349   9.4410

          k = 0.0000 0.0000 0.3830 (  6904 PWs)   bands (ev):

   -45.2839 -22.0046 -21.8778 -21.8719  -6.8348  -5.9672  -5.7164  -4.5529
    -4.5512  -4.4797  -4.3893  -4.3453   3.4442   6.6550   6.7273   6.7556
     8.2182   8.2534   8.7250   9.5286   9.5313  10.2277

          k = 0.0000 0.1437 0.0000 (  6913 PWs)   bands (ev):

   -45.2843 -21.9619 -21.8948 -21.8730  -7.1157  -6.0583  -5.8145  -4.5378
    -4.5200  -4.4935  -4.3696  -4.2360   4.3615   6.7132   6.7255   7.0990
     8.5591   8.6378   8.8831   9.0621   9.0905   9.4555

          k = 0.0000 0.1437 0.1915 (  6921 PWs)   bands (ev):

   -45.2840 -21.9780 -21.8941 -21.8723  -6.9806  -6.0249  -5.7642  -4.5404
    -4.5325  -4.4928  -4.3643  -4.2683   3.8920   6.5953   6.7628   7.3739
     8.1884   8.4200   8.8031   9.0074   9.1768   9.6441

          k = 0.0000 0.1437 0.3830 (  6921 PWs)   bands (ev):

   -45.2836 -22.0038 -21.8929 -21.8713  -6.7521  -5.9664  -5.6819  -4.5525
    -4.5423  -4.4916  -4.3645  -4.3181   3.3306   6.3276   6.8215   6.9914
     7.9416   8.2129   8.8825   9.0498   9.2751  10.3343

          k = 0.0000 0.2874 0.0000 (  6911 PWs)   bands (ev):

   -45.2836 -21.9605 -21.9288 -21.8716  -6.8550  -5.9991  -5.7710  -4.5706
    -4.5187  -4.5168  -4.3669  -4.2341   3.7813   6.5415   6.9340   6.9631
     8.4299   8.4416   8.7568   8.7678   9.1664   9.8029

          k = 0.0000 0.2874 0.1915 (  6909 PWs)   bands (ev):

   -45.2834 -21.9763 -21.9280 -21.8709  -6.7483  -5.9767  -5.7119  -4.5524
    -4.5305  -4.5181  -4.3616  -4.2282   3.4979   6.3969   7.0001   7.0278
     7.9905   8.2576   8.4329   8.8328   9.1839  10.0446

          k = 0.0000 0.2874 0.3830 (  6919 PWs)   bands (ev):

   -45.2830 -22.0018 -21.9267 -21.8698  -6.5955  -5.9221  -5.5952  -4.5516
    -4.5182  -4.5164  -4.3847  -4.1991   3.0993   6.0561   6.8581   7.0704
     7.6414   7.9417   8.1145   8.8948   9.5803  10.1404

          k = 0.0000 0.4311 0.0000 (  6888 PWs)   bands (ev):

   -45.2831 -21.9595 -21.9557 -21.8704  -6.6243  -5.9352  -5.7637  -4.5925
    -4.5380  -4.5150  -4.3399  -4.2660   3.4574   6.0394   7.2080   7.2124
     7.8955   7.9651   8.6608   8.7945   9.2224  10.7086

          k = 0.0000 0.4311 0.1915 (  6890 PWs)   bands (ev):

   -45.2828 -21.9748 -21.9552 -21.8697  -6.5665  -5.8927  -5.6984  -4.5673
    -4.5385  -4.5287  -4.3217  -4.2330   3.2520   6.0193   7.0456   7.3170
     7.4058   7.8551   8.5649   8.7852   9.1703  10.4608

          k = 0.0000 0.4311 0.3830 (  6909 PWs)   bands (ev):

   -45.2825 -22.0000 -21.9536 -21.8686  -6.5185  -5.8075  -5.5331  -4.5508
    -4.5392  -4.5200  -4.3698  -4.1222   2.9468   5.8587   6.4922   7.2917
     7.4034   7.8018   7.8166   8.7760   9.7194  10.0289

          k = 0.1429 0.0000 0.0000 (  6903 PWs)   bands (ev):

   -45.2843 -21.9620 -21.8879 -21.8789  -7.1199  -6.0601  -5.8154  -4.5395
    -4.5182  -4.4930  -4.3698  -4.2375   4.3592   6.6997   6.7588   7.1032
     8.5468   8.6505   8.8782   9.0576   9.0952   9.4566

          k = 0.1429 0.0000 0.1915 (  6915 PWs)   bands (ev):

   -45.2841 -21.9780 -21.8872 -21.8783  -6.9852  -6.0259  -5.7648  -4.5420
    -4.5307  -4.4922  -4.3626  -4.2726   3.8886   6.5709   6.8025   7.3804
     8.1898   8.4383   8.8009   8.9936   9.1786   9.6416

          k = 0.1429 0.0000 0.3830 (  6931 PWs)   bands (ev):

   -45.2837 -22.0038 -21.8860 -21.8772  -6.7577  -5.9653  -5.6823  -4.5509
    -4.5431  -4.4911  -4.3604  -4.3273   3.3260   6.3113   6.8481   6.9960
     7.9294   8.2481   8.8911   9.0303   9.2809  10.3367

          k = 0.1429 0.1437 0.0000 (  6916 PWs)   bands (ev):

   -45.2840 -21.9613 -21.8941 -21.8872  -7.0126  -6.0337  -5.8045  -4.5427
    -4.5326  -4.4995  -4.3548  -4.2286   4.0862   6.6540   6.8498   7.1612
     8.2074   8.4253   8.9009   8.9667   9.3126   9.5951

          k = 0.1429 0.1437 0.1915 (  6918 PWs)   bands (ev):

   -45.2838 -21.9773 -21.8934 -21.8865  -6.8833  -6.0096  -5.7544  -4.5470
    -4.5331  -4.4980  -4.3473  -4.2481   3.7462   6.5453   6.6224   7.3905
     8.0673   8.1885   8.7298   9.0740   9.3441   9.6545

          k = 0.1429 0.1437 0.3830 (  6914 PWs)   bands (ev):

   -45.2834 -22.0030 -21.8923 -21.8853  -6.6698  -5.9693  -5.6661  -4.5659
    -4.5080  -4.4928  -4.3462  -4.2853   3.2770   6.3546   6.3725   7.0739
     7.9739   7.9934   8.6471   9.1460   9.3838  10.2072

          k = 0.1429 0.2874 0.0000 (  6894 PWs)   bands (ev):

   -45.2833 -21.9599 -21.9280 -21.8856  -6.7569  -5.9744  -5.7885  -4.5706
    -4.5268  -4.4970  -4.3358  -4.2266   3.6038   6.5076   6.9139   7.0720
     7.8471   8.2088   8.6700   9.0519   9.2843   9.9944

          k = 0.1429 0.2874 0.1915 (  6910 PWs)   bands (ev):

   -45.2831 -21.9757 -21.9273 -21.8849  -6.6503  -5.9658  -5.7353  -4.5550
    -4.5330  -4.4869  -4.3243  -4.2114   3.4417   6.3598   6.5149   7.1018
     7.6192   8.1057   8.7447   9.0313   9.2859   9.9650

          k = 0.1429 0.2874 0.3830 (  6907 PWs)   bands (ev):

   -45.2827 -22.0010 -21.9260 -21.8838  -6.5008  -5.9417  -5.6222  -4.5543
    -4.5146  -4.4537  -4.3336  -4.1787   3.1559   6.0021   6.4109   6.7513
     7.1835   7.9177   8.7715   9.0700   9.5905   9.8567

          k = 0.1429 0.4311 0.0000 (  6880 PWs)   bands (ev):

   -45.2828 -21.9589 -21.9549 -21.8844  -6.5323  -5.9130  -5.8018  -4.5810
    -4.5179  -4.4836  -4.3145  -4.2581   3.3088   6.0510   6.9957   7.3985
     7.4391   8.0301   8.4033   9.0463   9.3203  10.5201

          k = 0.1429 0.4311 0.1915 (  6887 PWs)   bands (ev):

   -45.2826 -21.9741 -21.9544 -21.8837  -6.4685  -5.8905  -5.7478  -4.5592
    -4.5212  -4.4711  -4.2925  -4.2142   3.2299   6.0230   6.4386   6.9218
     7.4699   8.2365   8.4040   9.0393   9.3022  10.1391

          k = 0.1429 0.4311 0.3830 (  6906 PWs)   bands (ev):

   -45.2822 -21.9993 -21.9530 -21.8826  -6.4203  -5.8420  -5.5956  -4.5488
    -4.4917  -4.4465  -4.3148  -4.1034   3.0637   5.8285   6.2452   6.4423
     6.8087   8.0589   8.7161   8.9035   9.3169   9.9653

          k = 0.2857 0.0000 0.0000 (  6897 PWs)   bands (ev):

   -45.2837 -21.9606 -21.9196 -21.8776  -6.8690  -6.0049  -5.7741  -4.5720
    -4.5170  -4.5151  -4.3693  -4.2374   3.7810   6.5571   6.9675   6.9792
     8.4294   8.4504   8.7530   8.7615   9.1683   9.7980

          k = 0.2857 0.0000 0.1915 (  6902 PWs)   bands (ev):

   -45.2834 -21.9764 -21.9188 -21.8769  -6.7631  -5.9800  -5.7145  -4.5541
    -4.5289  -4.5163  -4.3604  -4.2376   3.4914   6.4008   7.0389   7.0428
     7.9952   8.2764   8.4451   8.8423   9.1701  10.0311

          k = 0.2857 0.0000 0.3830 (  6929 PWs)   bands (ev):

   -45.2831 -22.0019 -21.9175 -21.8758  -6.6114  -5.9210  -5.5974  -4.5501
    -4.5180  -4.5163  -4.3823  -4.2145   3.0862   6.0488   6.8731   7.0932
     7.6650   7.9565   8.1493   8.9116   9.5496  10.1598

          k = 0.2857 0.1437 0.0000 (  6905 PWs)   bands (ev):

   -45.2834 -21.9600 -21.9189 -21.8927  -6.7663  -5.9786  -5.7907  -4.5711
    -4.5264  -4.4966  -4.3371  -4.2286   3.6047   6.5260   6.9310   7.0813
     7.8406   8.2082   8.6647   9.0708   9.2836   9.9865

          k = 0.2857 0.1437 0.1915 (  6903 PWs)   bands (ev):

   -45.2832 -21.9758 -21.9181 -21.8920  -6.6603  -5.9684  -5.7371  -4.5555
    -4.5328  -4.4865  -4.3226  -4.2182   3.4380   6.3651   6.5333   7.1087
     7.6189   8.1215   8.7643   9.0391   9.2805   9.9519

          k = 0.2857 0.1437 0.3830 (  6910 PWs)   bands (ev):

   -45.2828 -22.0011 -21.9168 -21.8909  -6.5114  -5.9416  -5.6237  -4.5548
    -4.5144  -4.4531  -4.3292  -4.1915   3.1465   5.9956   6.4267   6.7562
     7.2025   7.9327   8.7922   9.0945   9.5639   9.8697

          k = 0.2857 0.2874 0.0000 (  6893 PWs)   bands (ev):

   -45.2827 -21.9585 -21.9264 -21.9171  -6.5306  -5.9199  -5.8253  -4.5619
    -4.5223  -4.4537  -4.2785  -4.2247   3.2388   6.5106   6.6081   7.2854
     7.4388   7.7292   8.5045   9.0417   9.5813  10.0624

          k = 0.2857 0.2874 0.1915 (  6903 PWs)   bands (ev):

   -45.2825 -21.9741 -21.9257 -21.9164  -6.4274  -5.9391  -5.7866  -4.5364
    -4.5230  -4.4267  -4.2527  -4.1869   3.2749   6.2020   6.2286   6.6609
     7.3394   7.7192   8.9736   9.1775   9.6078   9.6947

          k = 0.2857 0.2874 0.3830 (  6908 PWs)   bands (ev):

   -45.2821 -21.9993 -21.9245 -21.9152  -6.2997  -5.9693  -5.6725  -4.5198
    -4.4958  -4.3692  -4.2183  -4.1303   3.2668   5.7312   5.8669   6.3372
     6.9933   7.2056   8.8715   9.5076   9.5589   9.7731

          k = 0.2857 0.4311 0.0000 (  6920 PWs)   bands (ev):

   -45.2822 -21.9574 -21.9531 -21.9157  -6.3403  -5.8706  -5.8487  -4.5548
    -4.5011  -4.3905  -4.2600  -4.2358   2.9779   6.0633   6.6489   7.1177
     7.5761   7.7980   8.0453   9.0519   9.6705  10.0100

          k = 0.2857 0.4311 0.1915 (  6889 PWs)   bands (ev):

   -45.2820 -21.9726 -21.9527 -21.9150  -6.2492  -5.8905  -5.8356  -4.5271
    -4.4944  -4.3461  -4.2259  -4.1734   3.1180   5.9862   6.1103   6.3283
     7.0846   7.8311   8.7589   9.2195   9.4084   9.7779

          k = 0.2857 0.4311 0.3830 (  6897 PWs)   bands (ev):

   -45.2816 -21.9977 -21.9514 -21.9139  -6.1949  -5.9142  -5.7114  -4.4992
    -4.4639  -4.2856  -4.1723  -4.0602   3.3415   5.4827   5.6301   6.0126
     6.6232   7.1936   8.1006   9.6200   9.7063   9.9757

          k = 0.4286 0.0000 0.0000 (  6886 PWs)   bands (ev):

   -45.2832 -21.9593 -21.9451 -21.8765  -6.6464  -5.9460  -5.7671  -4.5941
    -4.5351  -4.5135  -4.3480  -4.2671   3.4592   6.0796   7.2220   7.2586
     7.8828   7.9791   8.6606   8.7944   9.2242  10.6877

          k = 0.4286 0.0000 0.1915 (  6895 PWs)   bands (ev):

   -45.2830 -21.9750 -21.9442 -21.8758  -6.5880  -5.9014  -5.7011  -4.5692
    -4.5357  -4.5273  -4.3218  -4.2462   3.2441   6.0552   7.0531   7.3622
     7.4156   7.8685   8.5738   8.7958   9.1663  10.4508

          k = 0.4286 0.0000 0.3830 (  6917 PWs)   bands (ev):

   -45.2826 -22.0003 -21.9426 -21.8747  -6.5371  -5.8139  -5.5361  -4.5494
    -4.5364  -4.5219  -4.3699  -4.1422   2.9269   5.8691   6.5174   7.3166
     7.4186   7.8338   7.8409   8.7974   9.7390  10.0246

          k = 0.4286 0.1437 0.0000 (  6902 PWs)   bands (ev):

   -45.2829 -21.9587 -21.9442 -21.8916  -6.5490  -5.9226  -5.8046  -4.5818
    -4.5176  -4.4828  -4.3206  -4.2581   3.3116   6.0929   7.0131   7.4155
     7.4313   8.0264   8.4047   9.0666   9.3259  10.4974

          k = 0.4286 0.1437 0.1915 (  6910 PWs)   bands (ev):

   -45.2827 -21.9743 -21.9434 -21.8909  -6.4847  -5.8987  -5.7497  -4.5599
    -4.5214  -4.4701  -4.2903  -4.2261   3.2249   6.0599   6.4576   6.9131
     7.4689   8.2628   8.4323   9.0486   9.3027  10.1296

          k = 0.4286 0.1437 0.3830 (  6902 PWs)   bands (ev):

   -45.2823 -21.9996 -21.9419 -21.8897  -6.4333  -5.8495  -5.5975  -4.5493
    -4.4923  -4.4457  -4.3103  -4.1225   3.0469   5.8350   6.2657   6.4677
     6.8121   8.0700   8.7698   8.9248   9.3341   9.9503

          k = 0.4286 0.2874 0.0000 (  6920 PWs)   bands (ev):

   -45.2823 -21.9572 -21.9423 -21.9251  -6.3458  -5.8739  -5.8530  -4.5547
    -4.5014  -4.3941  -4.2541  -4.2412   2.9801   6.1077   6.6179   7.1205
     7.5900   7.7967   8.0424   9.0546   9.7190   9.9664

          k = 0.4286 0.2874 0.1915 (  6903 PWs)   bands (ev):

   -45.2820 -21.9728 -21.9415 -21.9245  -6.2539  -5.8961  -5.8371  -4.5265
    -4.4957  -4.3484  -4.2181  -4.1832   3.1174   6.0191   6.1202   6.3088
     7.0781   7.8312   8.7915   9.2200   9.4048   9.7822

          k = 0.4286 0.2874 0.3830 (  6890 PWs)   bands (ev):

   -45.2817 -21.9979 -21.9402 -21.9233  -6.1953  -5.9235  -5.7119  -4.4982
    -4.4663  -4.2865  -4.1612  -4.0764   3.3335   5.4930   5.6183   6.0320
     6.6432   7.1786   8.1238   9.6398   9.7258   9.9625

          k = 0.4286 0.4311 0.0000 (  6915 PWs)   bands (ev):

   -45.2817 -21.9561 -21.9517 -21.9408  -6.2315  -5.8380  -5.8276  -4.5400
    -4.4563  -4.3218  -4.2735  -4.1774   2.7205   5.9316   6.3503   7.2920
     7.3911   7.7863   7.9644   8.7845   9.3475  10.1538

          k = 0.4286 0.4311 0.1915 (  6902 PWs)   bands (ev):

   -45.2815 -21.9713 -21.9513 -21.9401  -6.0952  -5.8872  -5.8754  -4.5095
    -4.4505  -4.2412  -4.1842  -4.1439   2.9703   5.8846   6.1044   6.1535
     6.5394   7.7958   8.4036   9.1394   9.1584  10.1448

          k = 0.4286 0.4311 0.3830 (  6898 PWs)   bands (ev):

   -45.2811 -21.9963 -21.9502 -21.9389  -6.0096  -5.9645  -5.7930  -4.4603
    -4.4447  -4.1464  -4.0561  -4.0387   3.5356   5.2879   5.3954   5.8032
     6.4564   6.7307   7.0667   9.9556   9.9803  10.1317

     highest occupied level (ev):    10.7086

!    total energy              =    -380.57757648 Ry
     estimated scf accuracy    <          5.6E-09 Ry

     The total energy is the sum of the following terms:
     one-electron contribution =     -80.47275492 Ry
     hartree contribution      =      70.14940467 Ry
     xc contribution           =    -102.65473628 Ry
     ewald contribution        =    -267.59948995 Ry

     convergence has been achieved in  14 iterations

     negative rho (up, down):  1.582E-02 0.000E+00

     Forces acting on atoms (cartesian axes, Ry/au):

     atom    1 type  1   force =     0.00000000    0.00000000   -0.00132507
     atom    2 type  2   force =     0.00000000    0.00000000    0.00101992
     atom    3 type  3   force =     0.00000000    0.00000000    0.00089463
     atom    4 type  3   force =     0.00000000    0.00000000    0.00029425
     atom    5 type  3   force =     0.00000000    0.00000000   -0.00088373

     Total force =     0.002113     Total SCF correction =     0.000245
     SCF correction compared to forces is large: reduce conv_thr to get better values


     Computing stress (Cartesian axis) and pressure


     negative rho (up, down):  1.582E-02 0.000E+00
          total   stress  (Ry/bohr**3)                   (kbar)     P=      -10.09
  -0.00011596   0.00000000   0.00000000          -17.06        0.00        0.00
   0.00000000  -0.00004220   0.00000000            0.00       -6.21        0.00
   0.00000000   0.00000000  -0.00004762            0.00        0.00       -7.01


     BFGS Geometry Optimization
     Energy error            =      0.0E+00 Ry
     Gradient error          =      1.3E-03 Ry/Bohr

     number of scf cycles    =   1
     number of bfgs steps    =   0

     energy             new  =    -380.5775764808 Ry

     new trust radius        =       0.0013250692 bohr
     new conv_thr            =       0.0000000100 Ry


ATOMIC_POSITIONS (crystal)
Pb            0.0000000000        0.0000000000        1.0050173332
Ti            0.5000000000        0.5000000000        0.5396456078
O             0.5000000000        0.5000000000        0.0995955841
O             0.5000000000        0.0000000000        0.6115898126
O             0.0000000000        0.5000000000        0.6114359501



     Writing config-only to output data dir ./PTO2.save/
     NEW-OLD atomic charge density approx. for the potential

     Check: negative core charge=   -0.000003

     negative rho (up, down):  1.585E-02 0.000E+00

     total cpu time spent up to now is      888.2 secs

     Self-consistent Calculation

     iteration #  1     ecut=   100.00 Ry     beta= 0.70
     CG style diagonalization
     ethr =  1.00E-06,  avg # of iterations =  2.7

     Threshold (ethr) on eigenvalues was too large:
     Diagonalizing with lowered threshold

     CG style diagonalization
     c_bands:  1 eigenvalues not converged
     c_bands:  1 eigenvalues not converged
     c_bands:  1 eigenvalues not converged
     c_bands:  1 eigenvalues not converged
     c_bands:  1 eigenvalues not converged
     c_bands:  2 eigenvalues not converged
     ethr =  2.66E-09,  avg # of iterations =  6.8

     negative rho (up, down):  1.585E-02 0.000E+00

     total cpu time spent up to now is     1020.0 secs

     total energy              =    -380.57758025 Ry
     estimated scf accuracy    <       0.00000026 Ry

     iteration #  2     ecut=   100.00 Ry     beta= 0.70
     CG style diagonalization
     ethr =  5.88E-10,  avg # of iterations =  5.0

     negative rho (up, down):  1.585E-02 0.000E+00

     total cpu time spent up to now is     1083.7 secs

     total energy              =    -380.57758048 Ry
     estimated scf accuracy    <       0.00000085 Ry

     iteration #  3     ecut=   100.00 Ry     beta= 0.70
     CG style diagonalization
     ethr =  5.88E-10,  avg # of iterations =  4.4

     negative rho (up, down):  1.584E-02 0.000E+00

     total cpu time spent up to now is     1140.4 secs

     total energy              =    -380.57758065 Ry
     estimated scf accuracy    <       0.00000002 Ry

     iteration #  4     ecut=   100.00 Ry     beta= 0.70
     CG style diagonalization
     ethr =  5.10E-11,  avg # of iterations =  4.1

     negative rho (up, down):  1.584E-02 0.000E+00

     total cpu time spent up to now is     1192.8 secs

     End of self-consistent calculation

          k = 0.0000 0.0000 0.0000 (  6909 PWs)   bands (ev):

   -45.2852 -21.9630 -21.8803 -21.8745  -7.2251  -6.0857  -5.8372  -4.5209
    -4.5190  -4.4820  -4.3679  -4.2448   4.7389   6.6304   6.6766   7.0391
     8.6239   8.6338   8.8772   9.1941   9.3433   9.3537

          k = 0.0000 0.0000 0.1915 (  6914 PWs)   bands (ev):

   -45.2850 -21.9791 -21.8796 -21.8738  -7.0831  -6.0434  -5.7886  -4.5330
    -4.5312  -4.4810  -4.3591  -4.2970   4.1031   6.6748   6.7150   7.3291
     8.4290   8.4469   8.8177   9.0831   9.4339   9.4400

          k = 0.0000 0.0000 0.3830 (  6904 PWs)   bands (ev):

   -45.2846 -22.0051 -21.8786 -21.8728  -6.8362  -5.9691  -5.7157  -4.5526
    -4.5509  -4.4793  -4.3886  -4.3451   3.4446   6.6555   6.7286   6.7561
     8.2174   8.2528   8.7252   9.5275   9.5299  10.2274

          k = 0.0000 0.1437 0.0000 (  6913 PWs)   bands (ev):

   -45.2849 -21.9624 -21.8955 -21.8738  -7.1164  -6.0599  -5.8144  -4.5375
    -4.5197  -4.4931  -4.3695  -4.2354   4.3614   6.7129   6.7249   7.1002
     8.5598   8.6393   8.8831   9.0617   9.0905   9.4554

          k = 0.0000 0.1437 0.1915 (  6921 PWs)   bands (ev):

   -45.2847 -21.9784 -21.8948 -21.8732  -6.9815  -6.0266  -5.7639  -4.5401
    -4.5322  -4.4924  -4.3641  -4.2678   3.8923   6.5951   6.7630   7.3747
     8.1883   8.4208   8.8027   9.0077   9.1759   9.6437

          k = 0.0000 0.1437 0.3830 (  6921 PWs)   bands (ev):

   -45.2843 -22.0042 -21.8937 -21.8721  -6.7534  -5.9682  -5.6812  -4.5522
    -4.5419  -4.4912  -4.3642  -4.3176   3.3311   6.3280   6.8227   6.9915
     7.9408   8.2121   8.8814   9.0502   9.2737  10.3339

          k = 0.0000 0.2874 0.0000 (  6911 PWs)   bands (ev):

   -45.2843 -21.9610 -21.9295 -21.8724  -6.8557  -6.0007  -5.7711  -4.5702
    -4.5183  -4.5165  -4.3665  -4.2335   3.7815   6.5405   6.9333   6.9631
     8.4294   8.4410   8.7586   8.7671   9.1669   9.8038

          k = 0.0000 0.2874 0.1915 (  6909 PWs)   bands (ev):

   -45.2840 -21.9768 -21.9288 -21.8717  -6.7492  -5.9783  -5.7118  -4.5520
    -4.5302  -4.5177  -4.3613  -4.2276   3.4984   6.3961   7.0000   7.0277
     7.9895   8.2580   8.4330   8.8324   9.1836  10.0451

          k = 0.0000 0.2874 0.3830 (  6919 PWs)   bands (ev):

   -45.2837 -22.0022 -21.9275 -21.8706  -6.5968  -5.9237  -5.5947  -4.5512
    -4.5178  -4.5158  -4.3843  -4.1986   3.1000   6.0561   6.8573   7.0714
     7.6405   7.9409   8.1140   8.8932   9.5806  10.1403

          k = 0.0000 0.4311 0.0000 (  6888 PWs)   bands (ev):

   -45.2837 -21.9600 -21.9564 -21.8712  -6.6249  -5.9367  -5.7640  -4.5920
    -4.5375  -4.5147  -4.3393  -4.2655   3.4580   6.0379   7.2066   7.2119
     7.8947   7.9653   8.6601   8.7962   9.2229  10.7094

          k = 0.0000 0.4311 0.1915 (  6890 PWs)   bands (ev):

   -45.2835 -21.9752 -21.9559 -21.8705  -6.5674  -5.8941  -5.6984  -4.5669
    -4.5380  -4.5284  -4.3212  -4.2325   3.2527   6.0178   7.0451   7.3160
     7.4049   7.8559   8.5649   8.7851   9.1697  10.4615

          k = 0.0000 0.4311 0.3830 (  6909 PWs)   bands (ev):

   -45.2831 -22.0005 -21.9544 -21.8694  -6.5198  -5.8091  -5.5325  -4.5505
    -4.5388  -4.5195  -4.3692  -4.1219   2.9477   5.8580   6.4914   7.2900
     7.4045   7.8012   7.8165   8.7744   9.7192  10.0294

          k = 0.1429 0.0000 0.0000 (  6903 PWs)   bands (ev):

   -45.2850 -21.9624 -21.8887 -21.8797  -7.1206  -6.0617  -5.8152  -4.5392
    -4.5179  -4.4926  -4.3696  -4.2369   4.3589   6.6991   6.7583   7.1046
     8.5476   8.6518   8.8786   9.0565   9.0948   9.4560

          k = 0.1429 0.0000 0.1915 (  6915 PWs)   bands (ev):

   -45.2847 -21.9785 -21.8880 -21.8790  -6.9861  -6.0275  -5.7645  -4.5417
    -4.5304  -4.4918  -4.3625  -4.2719   3.8886   6.5709   6.8023   7.3813
     8.1901   8.4387   8.7998   8.9941   9.1776   9.6409

          k = 0.1429 0.0000 0.3830 (  6931 PWs)   bands (ev):

   -45.2843 -22.0042 -21.8869 -21.8780  -6.7591  -5.9669  -5.6817  -4.5506
    -4.5427  -4.4907  -4.3601  -4.3266   3.3263   6.3119   6.8485   6.9965
     7.9285   8.2474   8.8894   9.0308   9.2798  10.3360

          k = 0.1429 0.1437 0.0000 (  6916 PWs)   bands (ev):

   -45.2847 -21.9618 -21.8949 -21.8880  -7.0133  -6.0353  -5.8044  -4.5424
    -4.5323  -4.4991  -4.3545  -4.2280   4.0860   6.6536   6.8491   7.1621
     8.2082   8.4246   8.9015   8.9668   9.3110   9.5958

          k = 0.1429 0.1437 0.1915 (  6918 PWs)   bands (ev):

   -45.2844 -21.9778 -21.8942 -21.8873  -6.8842  -6.0111  -5.7541  -4.5466
    -4.5327  -4.4977  -4.3470  -4.2475   3.7463   6.5455   6.6220   7.3912
     8.0670   8.1879   8.7300   9.0741   9.3428   9.6542

          k = 0.1429 0.1437 0.3830 (  6914 PWs)   bands (ev):

   -45.2841 -22.0034 -21.8931 -21.8862  -6.6711  -5.9709  -5.6655  -4.5656
    -4.5076  -4.4925  -4.3459  -4.2847   3.2774   6.3554   6.3729   7.0733
     7.9727   7.9931   8.6466   9.1460   9.3826  10.2066

          k = 0.1429 0.2874 0.0000 (  6894 PWs)   bands (ev):

   -45.2840 -21.9604 -21.9288 -21.8865  -6.7574  -5.9759  -5.7886  -4.5703
    -4.5265  -4.4967  -4.3354  -4.2260   3.6038   6.5066   6.9141   7.0713
     7.8468   8.2094   8.6693   9.0519   9.2835   9.9953

          k = 0.1429 0.2874 0.1915 (  6910 PWs)   bands (ev):

   -45.2838 -21.9761 -21.9281 -21.8858  -6.6511  -5.9674  -5.7352  -4.5546
    -4.5327  -4.4866  -4.3240  -4.2109   3.4419   6.3592   6.5144   7.1020
     7.6190   8.1048   8.7440   9.0313   9.2855   9.9652

          k = 0.1429 0.2874 0.3830 (  6907 PWs)   bands (ev):

   -45.2834 -22.0015 -21.9268 -21.8847  -6.5020  -5.9433  -5.6216  -4.5539
    -4.5142  -4.4533  -4.3331  -4.1783   3.1564   6.0021   6.4106   6.7509
     7.1825   7.9167   8.7715   9.0687   9.5907   9.8565

          k = 0.1429 0.4311 0.0000 (  6880 PWs)   bands (ev):

   -45.2835 -21.9594 -21.9556 -21.8853  -6.5327  -5.9145  -5.8022  -4.5806
    -4.5176  -4.4832  -4.3140  -4.2575   3.3089   6.0495   6.9953   7.3974
     7.4392   8.0290   8.4045   9.0456   9.3202  10.5206

          k = 0.1429 0.4311 0.1915 (  6887 PWs)   bands (ev):

   -45.2832 -21.9746 -21.9552 -21.8846  -6.4693  -5.8920  -5.7477  -4.5587
    -4.5209  -4.4707  -4.2920  -4.2137   3.2302   6.0216   6.4375   6.9221
     7.4700   8.2354   8.4029   9.0399   9.3015  10.1398

          k = 0.1429 0.4311 0.3830 (  6906 PWs)   bands (ev):

   -45.2829 -21.9998 -21.9537 -21.8834  -6.4215  -5.8435  -5.5949  -4.5485
    -4.4913  -4.4462  -4.3141  -4.1031   3.0643   5.8279   6.2437   6.4416
     6.8093   8.0574   8.7148   8.9038   9.3170   9.9655

          k = 0.2857 0.0000 0.0000 (  6897 PWs)   bands (ev):

   -45.2843 -21.9611 -21.9205 -21.8783  -6.8698  -6.0062  -5.7741  -4.5717
    -4.5166  -4.5148  -4.3687  -4.2368   3.7808   6.5561   6.9670   6.9784
     8.4273   8.4497   8.7539   8.7616   9.1684   9.7988

          k = 0.2857 0.0000 0.1915 (  6902 PWs)   bands (ev):

   -45.2841 -21.9769 -21.9197 -21.8777  -6.7641  -5.9813  -5.7144  -4.5538
    -4.5286  -4.5159  -4.3600  -4.2369   3.4913   6.4001   7.0384   7.0424
     7.9933   8.2761   8.4449   8.8421   9.1701  10.0313

          k = 0.2857 0.0000 0.3830 (  6929 PWs)   bands (ev):

   -45.2837 -22.0024 -21.9184 -21.8766  -6.6128  -5.9221  -5.5970  -4.5498
    -4.5177  -4.5159  -4.3820  -4.2137   3.0863   6.0490   6.8716   7.0934
     7.6645   7.9548   8.1484   8.9107   9.5503  10.1592

          k = 0.2857 0.1437 0.0000 (  6905 PWs)   bands (ev):

   -45.2841 -21.9604 -21.9197 -21.8935  -6.7670  -5.9799  -5.7907  -4.5708
    -4.5261  -4.4962  -4.3366  -4.2280   3.6044   6.5250   6.9309   7.0804
     7.8396   8.2090   8.6632   9.0706   9.2830   9.9874

          k = 0.2857 0.1437 0.1915 (  6903 PWs)   bands (ev):

   -45.2838 -21.9762 -21.9189 -21.8928  -6.6612  -5.9697  -5.7370  -4.5551
    -4.5324  -4.4862  -4.3222  -4.2175   3.4378   6.3646   6.5328   7.1084
     7.6176   8.1212   8.7634   9.0386   9.2803   9.9521

          k = 0.2857 0.1437 0.3830 (  6910 PWs)   bands (ev):

   -45.2835 -22.0016 -21.9176 -21.8916  -6.5127  -5.9428  -5.6231  -4.5545
    -4.5140  -4.4528  -4.3289  -4.1908   3.1466   5.9959   6.4264   6.7555
     7.2005   7.9318   8.7924   9.0929   9.5645   9.8693

          k = 0.2857 0.2874 0.0000 (  6893 PWs)   bands (ev):

   -45.2834 -21.9590 -21.9272 -21.9180  -6.5309  -5.9213  -5.8256  -4.5616
    -4.5220  -4.4533  -4.2780  -4.2241   3.2382   6.5096   6.6075   7.2844
     7.4387   7.7302   8.5026   9.0411   9.5801  10.0632

          k = 0.2857 0.2874 0.1915 (  6903 PWs)   bands (ev):

   -45.2832 -21.9746 -21.9265 -21.9172  -6.4280  -5.9404  -5.7865  -4.5360
    -4.5226  -4.4264  -4.2523  -4.1863   3.2744   6.2017   6.2282   6.6601
     7.3382   7.7188   8.9729   9.1769   9.6069   9.6954

          k = 0.2857 0.2874 0.3830 (  6908 PWs)   bands (ev):

   -45.2828 -21.9998 -21.9253 -21.9160  -6.3008  -5.9706  -5.6718  -4.5194
    -4.4954  -4.3689  -4.2179  -4.1298   3.2666   5.7315   5.8656   6.3376
     6.9919   7.2036   8.8719   9.5078   9.5576   9.7732

          k = 0.2857 0.4311 0.0000 (  6920 PWs)   bands (ev):

   -45.2829 -21.9579 -21.9539 -21.9166  -6.3401  -5.8717  -5.8497  -4.5544
    -4.5007  -4.3901  -4.2593  -4.2354   2.9772   6.0619   6.6480   7.1181
     7.5749   7.7993   8.0436   9.0511   9.6702  10.0096

          k = 0.2857 0.4311 0.1915 (  6889 PWs)   bands (ev):

   -45.2827 -21.9731 -21.9535 -21.9159  -6.2495  -5.8918  -5.8358  -4.5267
    -4.4940  -4.3458  -4.2253  -4.1730   3.1174   5.9853   6.1095   6.3283
     7.0832   7.8305   8.7581   9.2193   9.4094   9.7766

          k = 0.2857 0.4311 0.3830 (  6897 PWs)   bands (ev):

   -45.2823 -21.9982 -21.9522 -21.9147  -6.1958  -5.9156  -5.7106  -4.4988
    -4.4636  -4.2854  -4.1717  -4.0599   3.3411   5.4815   5.6300   6.0124
     6.6226   7.1911   8.1016   9.6204   9.7049   9.9758

          k = 0.4286 0.0000 0.0000 (  6886 PWs)   bands (ev):

   -45.2839 -21.9598 -21.9459 -21.8773  -6.6473  -5.9469  -5.7674  -4.5937
    -4.5347  -4.5132  -4.3470  -4.2666   3.4591   6.0775   7.2201   7.2574
     7.8809   7.9787   8.6608   8.7953   9.2242  10.6886

          k = 0.4286 0.0000 0.1915 (  6895 PWs)   bands (ev):

   -45.2836 -21.9755 -21.9450 -21.8766  -6.5893  -5.9023  -5.7009  -4.5688
    -4.5352  -4.5270  -4.3214  -4.2453   3.2440   6.0533   7.0519   7.3611
     7.4137   7.8683   8.5736   8.7958   9.1660  10.4517

          k = 0.4286 0.0000 0.3830 (  6917 PWs)   bands (ev):

   -45.2833 -22.0008 -21.9435 -21.8755  -6.5386  -5.8147  -5.5355  -4.5491
    -4.5360  -4.5215  -4.3695  -4.1414   2.9268   5.8686   6.5151   7.3148
     7.4189   7.8336   7.8397   8.7967   9.7389  10.0252

          k = 0.4286 0.1437 0.0000 (  6902 PWs)   bands (ev):

   -45.2836 -21.9591 -21.9451 -21.8923  -6.5498  -5.9236  -5.8049  -4.5814
    -4.5172  -4.4824  -4.3197  -4.2576   3.3113   6.0908   7.0124   7.4140
     7.4302   8.0249   8.4056   9.0661   9.3256  10.4981

          k = 0.4286 0.1437 0.1915 (  6910 PWs)   bands (ev):

   -45.2833 -21.9748 -21.9442 -21.8916  -6.4859  -5.8996  -5.7496  -4.5595
    -4.5210  -4.4697  -4.2899  -4.2253   3.2246   6.0581   6.4564   6.9125
     7.4683   8.2621   8.4308   9.0486   9.3023  10.1305

          k = 0.4286 0.1437 0.3830 (  6902 PWs)   bands (ev):

   -45.2830 -22.0000 -21.9428 -21.8905  -6.4348  -5.8503  -5.5969  -4.5490
    -4.4919  -4.4454  -4.3099  -4.1218   3.0466   5.8347   6.2643   6.4657
     6.8119   8.0690   8.7680   8.9249   9.3346   9.9506

          k = 0.4286 0.2874 0.0000 (  6920 PWs)   bands (ev):

   -45.2829 -21.9577 -21.9432 -21.9259  -6.3459  -5.8750  -5.8536  -4.5543
    -4.5010  -4.3935  -4.2536  -4.2405   2.9793   6.1057   6.6169   7.1210
     7.5882   7.7981   8.0403   9.0541   9.7182   9.9666

          k = 0.4286 0.2874 0.1915 (  6903 PWs)   bands (ev):

   -45.2827 -21.9732 -21.9424 -21.9252  -6.2546  -5.8970  -5.8373  -4.5261
    -4.4953  -4.3480  -4.2178  -4.1824   3.1165   6.0181   6.1191   6.3083
     7.0768   7.8309   8.7901   9.2198   9.4060   9.7811

          k = 0.4286 0.2874 0.3830 (  6890 PWs)   bands (ev):

   -45.2823 -21.9983 -21.9411 -21.9241  -6.1966  -5.9243  -5.7111  -4.4978
    -4.4659  -4.2862  -4.1609  -4.0758   3.3325   5.4919   5.6184   6.0314
     6.6414   7.1774   8.1247   9.6399   9.7245   9.9626

          k = 0.4286 0.4311 0.0000 (  6915 PWs)   bands (ev):

   -45.2824 -21.9565 -21.9525 -21.9416  -6.2308  -5.8389  -5.8291  -4.5396
    -4.4559  -4.3211  -4.2728  -4.1772   2.7192   5.9302   6.3480   7.2933
     7.3927   7.7845   7.9622   8.7841   9.3477  10.1524

          k = 0.4286 0.4311 0.1915 (  6902 PWs)   bands (ev):

   -45.2822 -21.9717 -21.9521 -21.9409  -6.0947  -5.8881  -5.8765  -4.5091
    -4.4501  -4.2407  -4.1836  -4.1436   2.9689   5.8835   6.1039   6.1533
     6.5376   7.7954   8.4040   9.1391   9.1583  10.1434

          k = 0.4286 0.4311 0.3830 (  6898 PWs)   bands (ev):

   -45.2818 -21.9968 -21.9509 -21.9397  -6.0105  -5.9657  -5.7922  -4.4599
    -4.4444  -4.1462  -4.0555  -4.0384   3.5336   5.2877   5.3953   5.8026
     6.4540   6.7297   7.0680   9.9558   9.9804  10.1303

     highest occupied level (ev):    10.7094

!    total energy              =    -380.57758065 Ry
     estimated scf accuracy    <          5.2E-09 Ry

     The total energy is the sum of the following terms:
     one-electron contribution =     -80.49178834 Ry
     hartree contribution      =      70.15882203 Ry
     xc contribution           =    -102.65503260 Ry
     ewald contribution        =    -267.58958175 Ry

     convergence has been achieved in   4 iterations

     negative rho (up, down):  1.584E-02 0.000E+00

     Forces acting on atoms (cartesian axes, Ry/au):

     atom    1 type  1   force =     0.00000000    0.00000000   -0.00117823
     atom    2 type  2   force =     0.00000000    0.00000000    0.00070454
     atom    3 type  3   force =     0.00000000    0.00000000    0.00079747
     atom    4 type  3   force =     0.00000000    0.00000000    0.00037564
     atom    5 type  3   force =     0.00000000    0.00000000   -0.00069942

     Total force =     0.001775     Total SCF correction =     0.000166


     Computing stress (Cartesian axis) and pressure


     negative rho (up, down):  1.584E-02 0.000E+00
          total   stress  (Ry/bohr**3)                   (kbar)     P=       -9.77
  -0.00011314   0.00000000   0.00000000          -16.64        0.00        0.00
   0.00000000  -0.00003977   0.00000000            0.00       -5.85        0.00
   0.00000000   0.00000000  -0.00004634            0.00        0.00       -6.82

     Energy error            =      4.2E-06 Ry
     Gradient error          =      1.2E-03 Ry/Bohr

     number of scf cycles    =   2
     number of bfgs steps    =   1

     energy             old  =    -380.5775764808 Ry
     energy             new  =    -380.5775806522 Ry

     CASE: energy            _new < energy            _old


     WARNING: bfgs curvature condition failed, Theta= 0.960
     new trust radius        =       0.0014575761 bohr
     new conv_thr            =            1.0E-10 Ry


ATOMIC_POSITIONS (crystal)
Pb            0.0000000000        0.0000000000        1.0048269506
Ti            0.5000000000        0.5000000000        0.5397626581
O             0.5000000000        0.5000000000        0.0997244107
O             0.5000000000        0.0000000000        0.6116487034
O             0.0000000000        0.5000000000        0.6113215650



     Writing config-only to output data dir ./PTO2.save/
     NEW-OLD atomic charge density approx. for the potential

     Check: negative core charge=   -0.000003

     negative rho (up, down):  1.587E-02 0.000E+00

     total cpu time spent up to now is     1220.5 secs

     Self-consistent Calculation

     iteration #  1     ecut=   100.00 Ry     beta= 0.70
     CG style diagonalization
     ethr =  1.00E-06,  avg # of iterations =  2.7

     Threshold (ethr) on eigenvalues was too large:
     Diagonalizing with lowered threshold

     CG style diagonalization
     c_bands:  1 eigenvalues not converged
     c_bands:  1 eigenvalues not converged
     c_bands:  1 eigenvalues not converged
     ethr =  3.30E-09,  avg # of iterations =  6.4

     negative rho (up, down):  1.587E-02 0.000E+00

     total cpu time spent up to now is     1347.7 secs

     total energy              =    -380.57758462 Ry
     estimated scf accuracy    <       0.00000022 Ry

     iteration #  2     ecut=   100.00 Ry     beta= 0.70
     CG style diagonalization
     ethr =  4.93E-10,  avg # of iterations =  4.8

     negative rho (up, down):  1.587E-02 0.000E+00

     total cpu time spent up to now is     1409.2 secs

     total energy              =    -380.57758471 Ry
     estimated scf accuracy    <       0.00000028 Ry

     iteration #  3     ecut=   100.00 Ry     beta= 0.70
     CG style diagonalization
     ethr =  4.93E-10,  avg # of iterations =  4.0

     negative rho (up, down):  1.587E-02 0.000E+00

     total cpu time spent up to now is     1460.1 secs

     total energy              =    -380.57758478 Ry
     estimated scf accuracy    <       0.00000004 Ry

     iteration #  4     ecut=   100.00 Ry     beta= 0.70
     CG style diagonalization
     ethr =  1.02E-10,  avg # of iterations =  3.7

     negative rho (up, down):  1.587E-02 0.000E+00

     total cpu time spent up to now is     1507.2 secs

     total energy              =    -380.57758479 Ry
     estimated scf accuracy    <          2.3E-09 Ry

     iteration #  5     ecut=   100.00 Ry     beta= 0.70
     CG style diagonalization
     ethr =  5.17E-12,  avg # of iterations =  6.0

     negative rho (up, down):  1.587E-02 0.000E+00

     total cpu time spent up to now is     1582.8 secs

     total energy              =    -380.57758479 Ry
     estimated scf accuracy    <          1.2E-09 Ry

     iteration #  6     ecut=   100.00 Ry     beta= 0.70
     CG style diagonalization
     ethr =  2.83E-12,  avg # of iterations =  4.6

     negative rho (up, down):  1.587E-02 0.000E+00

     total cpu time spent up to now is     1641.2 secs

     total energy              =    -380.57758479 Ry
     estimated scf accuracy    <          2.9E-10 Ry

     iteration #  7     ecut=   100.00 Ry     beta= 0.70
     CG style diagonalization
     ethr =  6.53E-13,  avg # of iterations =  5.6

     negative rho (up, down):  1.587E-02 0.000E+00

     total cpu time spent up to now is     1712.4 secs

     End of self-consistent calculation

          k = 0.0000 0.0000 0.0000 (  6909 PWs)   bands (ev):

   -45.2851 -21.9628 -21.8802 -21.8745  -7.2260  -6.0875  -5.8369  -4.5207
    -4.5188  -4.4817  -4.3680  -4.2442   4.7382   6.6300   6.6761   7.0414
     8.6253   8.6347   8.8771   9.1942   9.3419   9.3529

          k = 0.0000 0.0000 0.1915 (  6914 PWs)   bands (ev):

   -45.2848 -21.9790 -21.8796 -21.8739  -7.0842  -6.0452  -5.7882  -4.5328
    -4.5310  -4.4807  -4.3591  -4.2964   4.1031   6.6749   6.7147   7.3307
     8.4297   8.4472   8.8176   9.0829   9.4326   9.4388

          k = 0.0000 0.0000 0.3830 (  6904 PWs)   bands (ev):

   -45.2845 -22.0049 -21.8786 -21.8728  -6.8377  -5.9711  -5.7149  -4.5524
    -4.5507  -4.4790  -4.3878  -4.3451   3.4449   6.6565   6.7296   6.7563
     8.2166   8.2522   8.7251   9.5263   9.5283  10.2269

          k = 0.0000 0.1437 0.0000 (  6913 PWs)   bands (ev):

   -45.2848 -21.9622 -21.8955 -21.8739  -7.1172  -6.0618  -5.8141  -4.5373
    -4.5195  -4.4928  -4.3695  -4.2349   4.3611   6.7124   6.7241   7.1015
     8.5603   8.6405   8.8828   9.0612   9.0904   9.4551

          k = 0.0000 0.1437 0.1915 (  6921 PWs)   bands (ev):

   -45.2845 -21.9782 -21.8948 -21.8732  -6.9826  -6.0285  -5.7635  -4.5398
    -4.5320  -4.4921  -4.3641  -4.2672   3.8924   6.5947   6.7630   7.3756
     8.1882   8.4214   8.8022   9.0077   9.1749   9.6432

          k = 0.0000 0.1437 0.3830 (  6921 PWs)   bands (ev):

   -45.2842 -22.0040 -21.8937 -21.8722  -6.7549  -5.9702  -5.6804  -4.5520
    -4.5415  -4.4909  -4.3640  -4.3171   3.3316   6.3284   6.8237   6.9918
     7.9401   8.2114   8.8803   9.0503   9.2722  10.3335

          k = 0.0000 0.2874 0.0000 (  6911 PWs)   bands (ev):

   -45.2841 -21.9608 -21.9295 -21.8724  -6.8564  -6.0025  -5.7711  -4.5700
    -4.5180  -4.5162  -4.3663  -4.2330   3.7818   6.5395   6.9326   6.9633
     8.4289   8.4404   8.7600   8.7662   9.1673   9.8047

          k = 0.0000 0.2874 0.1915 (  6909 PWs)   bands (ev):

   -45.2839 -21.9766 -21.9288 -21.8718  -6.7502  -5.9802  -5.7115  -4.5516
    -4.5300  -4.5174  -4.3611  -4.2271   3.4988   6.3951   6.9997   7.0277
     7.9886   8.2583   8.4332   8.8319   9.1831  10.0457

          k = 0.0000 0.2874 0.3830 (  6919 PWs)   bands (ev):

   -45.2835 -22.0020 -21.9274 -21.8707  -6.5982  -5.9257  -5.5940  -4.5510
    -4.5174  -4.5154  -4.3840  -4.1983   3.1007   6.0560   6.8567   7.0723
     7.6397   7.9401   8.1134   8.8916   9.5806  10.1403

          k = 0.0000 0.4311 0.0000 (  6888 PWs)   bands (ev):

   -45.2836 -21.9599 -21.9564 -21.8713  -6.6256  -5.9385  -5.7643  -4.5917
    -4.5372  -4.5145  -4.3388  -4.2650   3.4584   6.0365   7.2052   7.2115
     7.8941   7.9655   8.6591   8.7974   9.2233  10.7101

          k = 0.0000 0.4311 0.1915 (  6890 PWs)   bands (ev):

   -45.2834 -21.9751 -21.9559 -21.8706  -6.5685  -5.8960  -5.6982  -4.5665
    -4.5377  -4.5282  -4.3208  -4.2320   3.2533   6.0165   7.0446   7.3148
     7.4042   7.8566   8.5650   8.7849   9.1689  10.4624

          k = 0.0000 0.4311 0.3830 (  6909 PWs)   bands (ev):

   -45.2830 -22.0003 -21.9544 -21.8695  -6.5212  -5.8111  -5.5318  -4.5503
    -4.5385  -4.5191  -4.3687  -4.1216   2.9485   5.8572   6.4909   7.2880
     7.4054   7.8005   7.8164   8.7727   9.7192  10.0298

          k = 0.1429 0.0000 0.0000 (  6903 PWs)   bands (ev):

   -45.2848 -21.9622 -21.8888 -21.8796  -7.1215  -6.0634  -5.8150  -4.5390
    -4.5177  -4.4922  -4.3696  -4.2363   4.3584   6.6985   6.7577   7.1062
     8.5484   8.6526   8.8788   9.0552   9.0941   9.4553

          k = 0.1429 0.0000 0.1915 (  6915 PWs)   bands (ev):

   -45.2846 -21.9783 -21.8881 -21.8790  -6.9872  -6.0293  -5.7641  -4.5415
    -4.5302  -4.4915  -4.3624  -4.2713   3.8885   6.5708   6.8019   7.3824
     8.1903   8.4389   8.7986   8.9943   9.1765   9.6401

          k = 0.1429 0.0000 0.3830 (  6931 PWs)   bands (ev):

   -45.2842 -22.0041 -21.8869 -21.8779  -6.7606  -5.9687  -5.6810  -4.5503
    -4.5425  -4.4904  -4.3599  -4.3258   3.3266   6.3126   6.8486   6.9972
     7.9276   8.2468   8.8876   9.0310   9.2786  10.3354

          k = 0.1429 0.1437 0.0000 (  6916 PWs)   bands (ev):

   -45.2845 -21.9616 -21.8949 -21.8881  -7.0141  -6.0370  -5.8043  -4.5422
    -4.5320  -4.4988  -4.3544  -4.2274   4.0857   6.6532   6.8485   7.1630
     8.2087   8.4239   8.9020   8.9668   9.3093   9.5962

          k = 0.1429 0.1437 0.1915 (  6918 PWs)   bands (ev):

   -45.2843 -21.9776 -21.8942 -21.8874  -6.8852  -6.0129  -5.7538  -4.5464
    -4.5325  -4.4974  -4.3469  -4.2469   3.7463   6.5455   6.6215   7.3918
     8.0666   8.1874   8.7300   9.0741   9.3413   9.6540

          k = 0.1429 0.1437 0.3830 (  6914 PWs)   bands (ev):

   -45.2839 -22.0032 -21.8930 -21.8863  -6.6726  -5.9728  -5.6647  -4.5653
    -4.5073  -4.4922  -4.3457  -4.2840   3.2777   6.3560   6.3732   7.0728
     7.9714   7.9927   8.6460   9.1459   9.3813  10.2061

          k = 0.1429 0.2874 0.0000 (  6894 PWs)   bands (ev):

   -45.2839 -21.9602 -21.9288 -21.8866  -6.7581  -5.9777  -5.7887  -4.5700
    -4.5263  -4.4964  -4.3351  -4.2254   3.6037   6.5056   6.9142   7.0707
     7.8464   8.2097   8.6687   9.0518   9.2825   9.9961

          k = 0.1429 0.2874 0.1915 (  6910 PWs)   bands (ev):

   -45.2836 -21.9759 -21.9281 -21.8859  -6.6520  -5.9692  -5.7350  -4.5542
    -4.5325  -4.4863  -4.3237  -4.2103   3.4421   6.3585   6.5138   7.1022
     7.6190   8.1039   8.7432   9.0311   9.2850   9.9654

          k = 0.1429 0.2874 0.3830 (  6907 PWs)   bands (ev):

   -45.2833 -22.0013 -21.9268 -21.8847  -6.5034  -5.9452  -5.6209  -4.5537
    -4.5139  -4.4530  -4.3328  -4.1779   3.1569   6.0021   6.4102   6.7508
     7.1816   7.9156   8.7713   9.0672   9.5908   9.8564

          k = 0.1429 0.4311 0.0000 (  6880 PWs)   bands (ev):

   -45.2833 -21.9592 -21.9556 -21.8853  -6.5332  -5.9163  -5.8025  -4.5802
    -4.5173  -4.4829  -4.3135  -4.2569   3.3090   6.0481   6.9949   7.3964
     7.4393   8.0279   8.4055   9.0447   9.3201  10.5211

          k = 0.1429 0.4311 0.1915 (  6887 PWs)   bands (ev):

   -45.2831 -21.9744 -21.9552 -21.8846  -6.4702  -5.8938  -5.7476  -4.5584
    -4.5207  -4.4705  -4.2915  -4.2133   3.2305   6.0203   6.4364   6.9225
     7.4703   8.2344   8.4017   9.0402   9.3006  10.1405

          k = 0.1429 0.4311 0.3830 (  6906 PWs)   bands (ev):

   -45.2827 -21.9996 -21.9537 -21.8835  -6.4228  -5.8455  -5.5942  -4.5482
    -4.4910  -4.4459  -4.3136  -4.1028   3.0649   5.8273   6.2422   6.4409
     6.8101   8.0559   8.7133   8.9040   9.3172   9.9654

          k = 0.2857 0.0000 0.0000 (  6897 PWs)   bands (ev):

   -45.2842 -21.9609 -21.9206 -21.8783  -6.8707  -6.0077  -5.7741  -4.5716
    -4.5163  -4.5145  -4.3683  -4.2361   3.7805   6.5552   6.9665   6.9776
     8.4252   8.4490   8.7542   8.7617   9.1682   9.7995

          k = 0.2857 0.0000 0.1915 (  6902 PWs)   bands (ev):

   -45.2840 -21.9767 -21.9198 -21.8776  -6.7653  -5.9827  -5.7141  -4.5536
    -4.5284  -4.5156  -4.3597  -4.2361   3.4912   6.3993   7.0378   7.0421
     7.9915   8.2757   8.4446   8.8416   9.1700  10.0314

          k = 0.2857 0.0000 0.3830 (  6929 PWs)   bands (ev):

   -45.2836 -22.0022 -21.9184 -21.8765  -6.6145  -5.9235  -5.5963  -4.5496
    -4.5174  -4.5156  -4.3817  -4.2130   3.0863   6.0492   6.8703   7.0934
     7.6640   7.9529   8.1474   8.9098   9.5508  10.1587

          k = 0.2857 0.1437 0.0000 (  6905 PWs)   bands (ev):

   -45.2839 -21.9602 -21.9198 -21.8935  -6.7678  -5.9815  -5.7908  -4.5705
    -4.5258  -4.4959  -4.3362  -4.2273   3.6039   6.5241   6.9308   7.0795
     7.8384   8.2095   8.6617   9.0702   9.2822   9.9881

          k = 0.2857 0.1437 0.1915 (  6903 PWs)   bands (ev):

   -45.2837 -21.9760 -21.9190 -21.8928  -6.6623  -5.9711  -5.7367  -4.5549
    -4.5321  -4.4859  -4.3219  -4.2168   3.4375   6.3641   6.5322   7.1081
     7.6162   8.1209   8.7623   9.0378   9.2800   9.9524

          k = 0.2857 0.1437 0.3830 (  6910 PWs)   bands (ev):

   -45.2833 -22.0014 -21.9177 -21.8916  -6.5143  -5.9441  -5.6224  -4.5542
    -4.5136  -4.4526  -4.3286  -4.1901   3.1465   5.9961   6.4259   6.7549
     7.1986   7.9309   8.7925   9.0911   9.5649   9.8690

          k = 0.2857 0.2874 0.0000 (  6893 PWs)   bands (ev):

   -45.2833 -21.9588 -21.9272 -21.9181  -6.5313  -5.9229  -5.8259  -4.5613
    -4.5217  -4.4530  -4.2776  -4.2234   3.2375   6.5087   6.6068   7.2834
     7.4386   7.7311   8.5008   9.0407   9.5787  10.0640

          k = 0.2857 0.2874 0.1915 (  6903 PWs)   bands (ev):

   -45.2830 -21.9744 -21.9265 -21.9173  -6.4288  -5.9421  -5.7864  -4.5357
    -4.5223  -4.4261  -4.2519  -4.1857   3.2738   6.2014   6.2276   6.6593
     7.3371   7.7186   8.9720   9.1762   9.6057   9.6961

          k = 0.2857 0.2874 0.3830 (  6908 PWs)   bands (ev):

   -45.2827 -21.9996 -21.9253 -21.9161  -6.3021  -5.9721  -5.6710  -4.5192
    -4.4951  -4.3687  -4.2176  -4.1292   3.2663   5.7317   5.8642   6.3380
     6.9908   7.2018   8.8725   9.5078   9.5560   9.7731

          k = 0.2857 0.4311 0.0000 (  6920 PWs)   bands (ev):

   -45.2827 -21.9577 -21.9539 -21.9167  -6.3400  -5.8731  -5.8508  -4.5541
    -4.5004  -4.3898  -4.2586  -4.2350   2.9763   6.0607   6.6472   7.1183
     7.5737   7.8004   8.0420   9.0505   9.6697  10.0092

          k = 0.2857 0.4311 0.1915 (  6889 PWs)   bands (ev):

   -45.2825 -21.9729 -21.9535 -21.9160  -6.2499  -5.8934  -5.8361  -4.5263
    -4.4937  -4.3456  -4.2246  -4.1727   3.1166   5.9844   6.1087   6.3284
     7.0820   7.8302   8.7573   9.2190   9.4105   9.7750

          k = 0.2857 0.4311 0.3830 (  6897 PWs)   bands (ev):

   -45.2821 -21.9980 -21.9522 -21.9148  -6.1969  -5.9174  -5.7098  -4.4984
    -4.4633  -4.2852  -4.1712  -4.0596   3.3406   5.4801   5.6299   6.0123
     6.6223   7.1889   8.1029   9.6206   9.7032   9.9756

          k = 0.4286 0.0000 0.0000 (  6886 PWs)   bands (ev):

   -45.2837 -21.9596 -21.9460 -21.8773  -6.6484  -5.9479  -5.7676  -4.5935
    -4.5344  -4.5130  -4.3460  -4.2661   3.4589   6.0756   7.2182   7.2560
     7.8790   7.9781   8.6609   8.7957   9.2240  10.6895

          k = 0.4286 0.0000 0.1915 (  6895 PWs)   bands (ev):

   -45.2835 -21.9753 -21.9451 -21.8766  -6.5907  -5.9033  -5.7007  -4.5686
    -4.5349  -4.5268  -4.3210  -4.2444   3.2438   6.0517   7.0507   7.3600
     7.4117   7.8679   8.5733   8.7957   9.1656  10.4526

          k = 0.4286 0.0000 0.3830 (  6917 PWs)   bands (ev):

   -45.2831 -22.0006 -21.9436 -21.8754  -6.5404  -5.8158  -5.5348  -4.5489
    -4.5357  -4.5212  -4.3691  -4.1407   2.9265   5.8682   6.5129   7.3128
     7.4188   7.8334   7.8384   8.7959   9.7388  10.0257

          k = 0.4286 0.1437 0.0000 (  6902 PWs)   bands (ev):

   -45.2834 -21.9590 -21.9452 -21.8923  -6.5508  -5.9247  -5.8052  -4.5811
    -4.5170  -4.4821  -4.3188  -4.2571   3.3108   6.0889   7.0117   7.4127
     7.4291   8.0236   8.4062   9.0655   9.3251  10.4989

          k = 0.4286 0.1437 0.1915 (  6910 PWs)   bands (ev):

   -45.2832 -21.9746 -21.9443 -21.8916  -6.4872  -5.9006  -5.7495  -4.5593
    -4.5207  -4.4695  -4.2895  -4.2244   3.2241   6.0565   6.4551   6.9118
     7.4677   8.2614   8.4293   9.0484   9.3017  10.1315

          k = 0.4286 0.1437 0.3830 (  6902 PWs)   bands (ev):

   -45.2828 -21.9998 -21.9429 -21.8905  -6.4366  -5.8513  -5.5961  -4.5488
    -4.4917  -4.4451  -4.3096  -4.1210   3.0462   5.8344   6.2627   6.4638
     6.8119   8.0680   8.7661   8.9249   9.3353   9.9508

          k = 0.4286 0.2874 0.0000 (  6920 PWs)   bands (ev):

   -45.2828 -21.9575 -21.9433 -21.9259  -6.3461  -5.8763  -5.8544  -4.5540
    -4.5008  -4.3929  -4.2532  -4.2398   2.9782   6.1038   6.6159   7.1213
     7.5865   7.7993   8.0384   9.0537   9.7173   9.9668

          k = 0.4286 0.2874 0.1915 (  6903 PWs)   bands (ev):

   -45.2826 -21.9730 -21.9425 -21.9252  -6.2554  -5.8981  -5.8374  -4.5258
    -4.4950  -4.3477  -4.2175  -4.1817   3.1154   6.0171   6.1181   6.3078
     7.0757   7.8309   8.7887   9.2194   9.4072   9.7797

          k = 0.4286 0.2874 0.3830 (  6890 PWs)   bands (ev):

   -45.2822 -21.9981 -21.9412 -21.9241  -6.1983  -5.9252  -5.7103  -4.4976
    -4.4656  -4.2861  -4.1606  -4.0751   3.3314   5.4908   5.6183   6.0308
     6.6398   7.1765   8.1257   9.6397   9.7229   9.9626

          k = 0.4286 0.4311 0.0000 (  6915 PWs)   bands (ev):

   -45.2823 -21.9564 -21.9524 -21.9417  -6.2300  -5.8400  -5.8311  -4.5393
    -4.4556  -4.3204  -4.2721  -4.1770   2.7178   5.9289   6.3461   7.2946
     7.3943   7.7828   7.9600   8.7840   9.3481  10.1508

          k = 0.4286 0.4311 0.1915 (  6902 PWs)   bands (ev):

   -45.2820 -21.9716 -21.9521 -21.9410  -6.0942  -5.8892  -5.8778  -4.5088
    -4.4498  -4.2402  -4.1830  -4.1434   2.9672   5.8825   6.1035   6.1530
     6.5361   7.7954   8.4045   9.1387   9.1582  10.1418

          k = 0.4286 0.4311 0.3830 (  6898 PWs)   bands (ev):

   -45.2817 -21.9966 -21.9509 -21.9398  -6.0117  -5.9671  -5.7912  -4.4596
    -4.4441  -4.1461  -4.0550  -4.0381   3.5313   5.2874   5.3953   5.8021
     6.4520   6.7291   7.0695   9.9559   9.9803  10.1287

     highest occupied level (ev):    10.7101

!    total energy              =    -380.57758479 Ry
     estimated scf accuracy    <          2.9E-11 Ry

     The total energy is the sum of the following terms:
     one-electron contribution =     -80.51253962 Ry
     hartree contribution      =      70.16886057 Ry
     xc contribution           =    -102.65538052 Ry
     ewald contribution        =    -267.57852522 Ry

     convergence has been achieved in   7 iterations

     negative rho (up, down):  1.587E-02 0.000E+00

     Forces acting on atoms (cartesian axes, Ry/au):

     atom    1 type  1   force =     0.00000000    0.00000000   -0.00095502
     atom    2 type  2   force =     0.00000000    0.00000000    0.00042962
     atom    3 type  3   force =     0.00000000    0.00000000    0.00062528
     atom    4 type  3   force =     0.00000000    0.00000000    0.00042261
     atom    5 type  3   force =     0.00000000    0.00000000   -0.00052249

     Total force =     0.001393     Total SCF correction =     0.000012


     Computing stress (Cartesian axis) and pressure


     negative rho (up, down):  1.587E-02 0.000E+00
          total   stress  (Ry/bohr**3)                   (kbar)     P=       -9.66
  -0.00011207   0.00000000   0.00000000          -16.49        0.00        0.00
   0.00000000  -0.00003928   0.00000000            0.00       -5.78        0.00
   0.00000000   0.00000000  -0.00004574            0.00        0.00       -6.73

     Energy error            =      3.3E-05 Ry
     Gradient error          =      9.6E-04 Ry/Bohr

     bfgs converged in   4 scf cycles and   3 bfgs steps
     (criteria: energy <  1.0E-04 Ry, force <  1.0E-03 Ry/Bohr)

     End of BFGS Geometry Optimization

     Final energy             =    -380.5775847923 Ry

     File ./PTO2.bfgs deleted, as requested
Begin final coordinates

ATOMIC_POSITIONS (crystal)
Pb            0.0000000000        0.0000000000        1.0048269506
Ti            0.5000000000        0.5000000000        0.5397626581
O             0.5000000000        0.5000000000        0.0997244107
O             0.5000000000        0.0000000000        0.6116487034
O             0.0000000000        0.5000000000        0.6113215650
End final coordinates



     Writing all to output data dir ./PTO2.save/
 
     init_run     :     16.82s CPU     17.21s WALL (       1 calls)
     electrons    :   1586.56s CPU   1638.58s WALL (       3 calls)
     update_pot   :      1.76s CPU      1.77s WALL (       2 calls)
     forces       :     10.68s CPU     10.94s WALL (       3 calls)
     stress       :     65.81s CPU     66.45s WALL (       3 calls)

     Called by init_run:
     wfcinit      :     11.78s CPU     12.07s WALL (       1 calls)
     potinit      :      0.18s CPU      0.19s WALL (       1 calls)
     hinit0       :      3.95s CPU      3.97s WALL (       1 calls)

     Called by electrons:
     c_bands      :   1442.00s CPU   1488.58s WALL (      27 calls)
     sum_band     :    125.08s CPU    128.61s WALL (      27 calls)
     v_of_rho     :      0.78s CPU      0.79s WALL (      28 calls)
     newd         :     20.55s CPU     22.51s WALL (      28 calls)
     mix_rho      :      0.36s CPU      0.38s WALL (      27 calls)

     Called by c_bands:
     init_us_2    :     36.33s CPU     36.56s WALL (    2928 calls)
     init_us_2:cp :     36.24s CPU     36.50s WALL (    2928 calls)
     ccgdiagg     :   1277.56s CPU   1319.12s WALL (    1296 calls)
     wfcrot       :    155.73s CPU    158.44s WALL (    1104 calls)

     Called by *cgdiagg:
     h_psi        :    967.35s CPU    992.22s WALL (  111193 calls)
     s_psi        :    240.04s CPU    252.64s WALL (  221282 calls)

     Called by h_psi:
     h_psi:calbec :    124.05s CPU    128.01s WALL (  111193 calls)
     vloc_psi     :    709.39s CPU    725.71s WALL (  111193 calls)
     add_vuspsi   :    123.71s CPU    129.49s WALL (  111193 calls)
     hs_1psi      :    953.28s CPU    980.16s WALL (  110089 calls)
     s_1psi       :    241.78s CPU    250.33s WALL (  110089 calls)

     General routines
     calbec       :    242.90s CPU    255.42s WALL (  223298 calls)
     fft          :      0.30s CPU      0.31s WALL (     140 calls)
     ffts         :      0.06s CPU      0.06s WALL (      27 calls)
     fftw         :    648.13s CPU    660.78s WALL (  298130 calls)
 
     Parallel routines
 
     PWSCF        :  28m 4.71s CPU  28m59.78s WALL

 
   This run was terminated on:  10:14:39  11Apr2022            

=------------------------------------------------------------------------------=
   JOB DONE.
=------------------------------------------------------------------------------=
