
     Program PWSCF v.7.0 starts on 11Apr2022 at  9: 9:49 

     This program is part of the open-source Quantum ESPRESSO suite
     for quantum simulation of materials; please cite
         "P. Giannozzi et al., J. Phys.:Condens. Matter 21 395502 (2009);
         "P. Giannozzi et al., J. Phys.:Condens. Matter 29 465901 (2017);
         "P. Giannozzi et al., J. Chem. Phys. 152 154105 (2020);
          URL http://www.quantum-espresso.org", 
     in publications or presentations arising from this work. More details at
     http://www.quantum-espresso.org/quote

     Parallel version (MPI), running on     1 processors

     MPI processes distributed on     1 nodes
     91135 MiB available memory on the printing compute node when the environment starts
 
     Waiting for input...
     Reading input from standard input
Warning: card &CELL ignored
Warning: card  CELL_DYNAMICS = 'BFGS', ignored
Warning: card  PRESS=0.1D0, ignored
Warning: card / ignored

     Current dimensions of program PWSCF are:
     Max number of different atomic species (ntypx) = 10
     Max number of k-points (npk) =  40000
     Max angular momentum in pseudopotentials (lmaxx) =  4
     Message from routine setup:
     using ibrav=0 with symmetry is DISCOURAGED, use correct ibrav instead

     Subspace diagonalization in iterative solution of the eigenvalue problem:
     a serial algorithm will be used

 
     G-vector sticks info
     --------------------
     sticks:   dense  smooth     PW     G-vecs:    dense   smooth      PW
     Sum        1685    1685    481                55117    55117    8225
 
     Using Slab Decomposition
 


     bravais-lattice index     =            0
     lattice parameter (alat)  =       7.2864  a.u.
     unit-cell volume          =     408.0974 (a.u.)^3
     number of atoms/cell      =            5
     number of atomic types    =            3
     number of electrons       =        44.00
     number of Kohn-Sham states=           22
     kinetic-energy cutoff     =     100.0000  Ry
     charge density cutoff     =     400.0000  Ry
     scf convergence threshold =      1.0E-08
     mixing beta               =       0.7000
     number of iterations used =            8  plain     mixing
     energy convergence thresh.=      1.0E-04
     force convergence thresh. =      1.0E-03
     Exchange-correlation= SLA  PZ   NOGX NOGC
                           (   1   1   0   0   0   0   0)
     nstep                     =           50


     celldm(1)=   7.286406  celldm(2)=   0.000000  celldm(3)=   0.000000
     celldm(4)=   0.000000  celldm(5)=   0.000000  celldm(6)=   0.000000

     crystal axes: (cart. coord. in units of alat)
               a(1) = (   1.000000   0.000000   0.000000 )  
               a(2) = (   0.000000   1.000000   0.000000 )  
               a(3) = (   0.000000   0.000000   1.054930 )  

     reciprocal axes: (cart. coord. in units 2 pi/alat)
               b(1) = (  1.000000  0.000000  0.000000 )  
               b(2) = (  0.000000  1.000000  0.000000 )  
               b(3) = (  0.000000  0.000000  0.947930 )  


     PseudoPot. # 1 for Pb read from file:
     ./Pb_LDA.UPF
     MD5 check sum: 062a37469794d955244864f8fe2e5624
     Pseudo is Ultrasoft + core correction, Zval = 14.0
     Generated by new atomic code, or converted to UPF format
     Using radial grid of  899 points,  6 beta functions with: 
                l(1) =   0
                l(2) =   0
                l(3) =   1
                l(4) =   1
                l(5) =   2
                l(6) =   2
     Q(r) pseudized with  6 coefficients,  rinner =    1.000   1.000   1.000
                                                       1.000   1.000

     PseudoPot. # 2 for Ti read from file:
     ./Ti_LDA.UPF
     MD5 check sum: 0d9f225c038fe889ca2a701dcc8d72cb
     Pseudo is Ultrasoft + core correction, Zval = 12.0
     Generated by new atomic code, or converted to UPF format
     Using radial grid of  851 points,  6 beta functions with: 
                l(1) =   0
                l(2) =   0
                l(3) =   1
                l(4) =   1
                l(5) =   2
                l(6) =   2
     Q(r) pseudized with  6 coefficients,  rinner =    1.000   1.000   1.000
                                                       1.000   1.000

     PseudoPot. # 3 for O  read from file:
     ./O_LDA.UPF
     MD5 check sum: 194b818514d2a7dbb603bb78519a4f40
     Pseudo is Ultrasoft + core correction, Zval =  6.0
     Generated by new atomic code, or converted to UPF format
     Using radial grid of  737 points,  5 beta functions with: 
                l(1) =   0
                l(2) =   0
                l(3) =   1
                l(4) =   1
                l(5) =   2
     Q(r) pseudized with  8 coefficients,  rinner =    0.900   0.900   0.900
                                                       0.900   0.900

     atomic species   valence    mass     pseudopotential
        Pb            14.00   207.20000     Pb( 1.00)
        Ti            12.00    47.88000     Ti( 1.00)
        O              6.00    16.00000     O ( 1.00)

      8 Sym. Ops. (no inversion) found



   Cartesian axes

     site n.     atom                  positions (alat units)
         1           Pb  tau(   1) = (   0.0000000   0.0000000   1.0604058  )
         2           Ti  tau(   2) = (   0.5000000   0.5000000   0.5691479  )
         3           O   tau(   3) = (   0.5000000   0.5000000   0.1049431  )
         4           O   tau(   4) = (   0.5000000   0.0000000   0.6451440  )
         5           O   tau(   5) = (   0.0000000   0.5000000   0.6451440  )

     number of k points=    30
                       cart. coord. in units 2pi/alat
        k(    1) = (   0.0000000   0.0000000   0.0000000), wk =   0.0081633
        k(    2) = (   0.0000000   0.0000000   0.1895860), wk =   0.0163265
        k(    3) = (   0.0000000   0.0000000   0.3791720), wk =   0.0163265
        k(    4) = (   0.0000000   0.1428571   0.0000000), wk =   0.0326531
        k(    5) = (   0.0000000   0.1428571   0.1895860), wk =   0.0653061
        k(    6) = (   0.0000000   0.1428571   0.3791720), wk =   0.0653061
        k(    7) = (   0.0000000   0.2857143   0.0000000), wk =   0.0326531
        k(    8) = (   0.0000000   0.2857143   0.1895860), wk =   0.0653061
        k(    9) = (   0.0000000   0.2857143   0.3791720), wk =   0.0653061
        k(   10) = (   0.0000000   0.4285714   0.0000000), wk =   0.0326531
        k(   11) = (   0.0000000   0.4285714   0.1895860), wk =   0.0653061
        k(   12) = (   0.0000000   0.4285714   0.3791720), wk =   0.0653061
        k(   13) = (   0.1428571   0.1428571   0.0000000), wk =   0.0326531
        k(   14) = (   0.1428571   0.1428571   0.1895860), wk =   0.0653061
        k(   15) = (   0.1428571   0.1428571   0.3791720), wk =   0.0653061
        k(   16) = (   0.1428571   0.2857143   0.0000000), wk =   0.0653061
        k(   17) = (   0.1428571   0.2857143   0.1895860), wk =   0.1306122
        k(   18) = (   0.1428571   0.2857143   0.3791720), wk =   0.1306122
        k(   19) = (   0.1428571   0.4285714   0.0000000), wk =   0.0653061
        k(   20) = (   0.1428571   0.4285714   0.1895860), wk =   0.1306122
        k(   21) = (   0.1428571   0.4285714   0.3791720), wk =   0.1306122
        k(   22) = (   0.2857143   0.2857143   0.0000000), wk =   0.0326531
        k(   23) = (   0.2857143   0.2857143   0.1895860), wk =   0.0653061
        k(   24) = (   0.2857143   0.2857143   0.3791720), wk =   0.0653061
        k(   25) = (   0.2857143   0.4285714   0.0000000), wk =   0.0653061
        k(   26) = (   0.2857143   0.4285714   0.1895860), wk =   0.1306122
        k(   27) = (   0.2857143   0.4285714   0.3791720), wk =   0.1306122
        k(   28) = (   0.4285714   0.4285714   0.0000000), wk =   0.0326531
        k(   29) = (   0.4285714   0.4285714   0.1895860), wk =   0.0653061
        k(   30) = (   0.4285714   0.4285714   0.3791720), wk =   0.0653061

     Dense  grid:    55117 G-vectors     FFT dimensions: (  48,  48,  50)

     Estimated max dynamical RAM per process >     287.65 MB

     Check: negative core charge=   -0.000003

     Initial potential from superposition of free atoms

     starting charge      42.9982, renormalised to      44.0000

     negative rho (up, down):  1.706E-02 0.000E+00
     Starting wfcs are   31 randomized atomic wfcs

     total cpu time spent up to now is       13.4 secs

     Self-consistent Calculation

     iteration #  1     ecut=   100.00 Ry     beta= 0.70
     CG style diagonalization
     ethr =  1.00E-02,  avg # of iterations =  2.1

     negative rho (up, down):  1.432E-02 0.000E+00

     total cpu time spent up to now is       34.8 secs

     total energy              =    -380.05963397 Ry
     estimated scf accuracy    <       1.02766187 Ry

     iteration #  2     ecut=   100.00 Ry     beta= 0.70
     CG style diagonalization
     ethr =  2.34E-03,  avg # of iterations =  4.9

     negative rho (up, down):  1.503E-02 0.000E+00

     total cpu time spent up to now is       75.0 secs

     total energy              =    -379.75257795 Ry
     estimated scf accuracy    <       3.96618088 Ry

     iteration #  3     ecut=   100.00 Ry     beta= 0.70
     CG style diagonalization
     ethr =  2.34E-03,  avg # of iterations =  4.5

     negative rho (up, down):  1.562E-02 0.000E+00

     total cpu time spent up to now is      111.8 secs

     total energy              =    -380.54734063 Ry
     estimated scf accuracy    <       0.25740861 Ry

     iteration #  4     ecut=   100.00 Ry     beta= 0.70
     CG style diagonalization
     ethr =  5.85E-04,  avg # of iterations =  3.4

     negative rho (up, down):  1.566E-02 0.000E+00

     total cpu time spent up to now is      139.8 secs

     total energy              =    -380.56025291 Ry
     estimated scf accuracy    <       0.05511620 Ry

     iteration #  5     ecut=   100.00 Ry     beta= 0.70
     CG style diagonalization
     ethr =  1.25E-04,  avg # of iterations =  3.8

     negative rho (up, down):  1.566E-02 0.000E+00

     total cpu time spent up to now is      171.0 secs

     total energy              =    -380.57580375 Ry
     estimated scf accuracy    <       0.00463408 Ry

     iteration #  6     ecut=   100.00 Ry     beta= 0.70
     CG style diagonalization
     ethr =  1.05E-05,  avg # of iterations =  4.1

     negative rho (up, down):  1.565E-02 0.000E+00

     total cpu time spent up to now is      205.0 secs

     total energy              =    -380.57760327 Ry
     estimated scf accuracy    <       0.00775196 Ry

     iteration #  7     ecut=   100.00 Ry     beta= 0.70
     CG style diagonalization
     ethr =  1.05E-05,  avg # of iterations =  3.2

     negative rho (up, down):  1.566E-02 0.000E+00

     total cpu time spent up to now is      231.7 secs

     total energy              =    -380.57700723 Ry
     estimated scf accuracy    <       0.00299229 Ry

     iteration #  8     ecut=   100.00 Ry     beta= 0.70
     CG style diagonalization
     ethr =  6.80E-06,  avg # of iterations =  3.6

     negative rho (up, down):  1.568E-02 0.000E+00

     total cpu time spent up to now is      261.2 secs

     total energy              =    -380.57757664 Ry
     estimated scf accuracy    <       0.00000768 Ry

     iteration #  9     ecut=   100.00 Ry     beta= 0.70
     CG style diagonalization
     c_bands:  1 eigenvalues not converged
     c_bands:  1 eigenvalues not converged
     c_bands:  1 eigenvalues not converged
     c_bands:  1 eigenvalues not converged
     ethr =  1.75E-08,  avg # of iterations =  8.5

     negative rho (up, down):  1.571E-02 0.000E+00

     total cpu time spent up to now is      329.7 secs

     total energy              =    -380.57763760 Ry
     estimated scf accuracy    <       0.00000794 Ry

     iteration # 10     ecut=   100.00 Ry     beta= 0.70
     CG style diagonalization
     ethr =  1.75E-08,  avg # of iterations =  3.3

     negative rho (up, down):  1.579E-02 0.000E+00

     total cpu time spent up to now is      357.2 secs

     total energy              =    -380.57763596 Ry
     estimated scf accuracy    <       0.00000496 Ry

     iteration # 11     ecut=   100.00 Ry     beta= 0.70
     CG style diagonalization
     ethr =  1.13E-08,  avg # of iterations =  4.1

     negative rho (up, down):  1.579E-02 0.000E+00

     total cpu time spent up to now is      390.1 secs

     total energy              =    -380.57763717 Ry
     estimated scf accuracy    <       0.00000025 Ry

     iteration # 12     ecut=   100.00 Ry     beta= 0.70
     CG style diagonalization
     ethr =  5.63E-10,  avg # of iterations =  8.7

     negative rho (up, down):  1.580E-02 0.000E+00

     total cpu time spent up to now is      459.3 secs

     total energy              =    -380.57763827 Ry
     estimated scf accuracy    <       0.00000002 Ry

     iteration # 13     ecut=   100.00 Ry     beta= 0.70
     CG style diagonalization
     c_bands:  1 eigenvalues not converged
     ethr =  3.53E-11,  avg # of iterations =  9.8

     negative rho (up, down):  1.580E-02 0.000E+00

     total cpu time spent up to now is      537.7 secs

     End of self-consistent calculation

          k = 0.0000 0.0000 0.0000 (  6933 PWs)   bands (ev):

   -45.2502 -21.9221 -21.8461 -21.8461  -7.2099  -6.0654  -5.8066  -4.4837
    -4.4837  -4.4434  -4.3228  -4.2189   4.7616   6.6906   6.6906   7.0421
     8.6577   8.6577   8.8863   9.2233   9.3863   9.3863

          k = 0.0000 0.0000 0.1896 (  6905 PWs)   bands (ev):

   -45.2500 -21.9375 -21.8455 -21.8455  -7.0716  -6.0243  -5.7607  -4.4954
    -4.4954  -4.4424  -4.3156  -4.2703   4.1251   6.7304   6.7304   7.3578
     8.4734   8.4734   8.8302   9.1072   9.4732   9.4732

          k = 0.0000 0.0000 0.3792 (  6912 PWs)   bands (ev):

   -45.2496 -21.9622 -21.8445 -21.8445  -6.8305  -5.9522  -5.6929  -4.5144
    -4.5144  -4.4408  -4.3589  -4.3056   3.4694   6.7182   6.7762   6.7762
     8.2767   8.2767   8.7431   9.5634   9.5634  10.2377

          k = 0.0000 0.1429 0.0000 (  6909 PWs)   bands (ev):

   -45.2499 -21.9215 -21.8614 -21.8455  -7.1017  -6.0400  -5.7829  -4.5023
    -4.4825  -4.4546  -4.3256  -4.2088   4.3862   6.7270   6.7720   7.1104
     8.5873   8.6781   8.9051   9.0919   9.1211   9.4846

          k = 0.0000 0.1429 0.1896 (  6903 PWs)   bands (ev):

   -45.2497 -21.9368 -21.8607 -21.8448  -6.9708  -6.0072  -5.7348  -4.5050
    -4.4946  -4.4539  -4.3208  -4.2414   3.9131   6.6095   6.8177   7.3974
     8.2309   8.4672   8.8350   9.0225   9.2094   9.6672

          k = 0.0000 0.1429 0.3792 (  6919 PWs)   bands (ev):

   -45.2494 -21.9614 -21.8596 -21.8438  -6.7489  -5.9495  -5.6572  -4.5140
    -4.5068  -4.4528  -4.3241  -4.2898   3.3518   6.3649   6.8696   7.0358
     7.9747   8.2716   8.9184   9.0686   9.3088  10.3490

          k = 0.0000 0.2857 0.0000 (  6901 PWs)   bands (ev):

   -45.2493 -21.9202 -21.8953 -21.8440  -6.8427  -5.9808  -5.7376  -4.5350
    -4.4805  -4.4787  -4.3266  -4.2045   3.8082   6.5622   6.9595   6.9896
     8.4606   8.4797   8.7832   8.7843   9.1944   9.8447

          k = 0.0000 0.2857 0.1896 (  6883 PWs)   bands (ev):

   -45.2491 -21.9352 -21.8947 -21.8434  -6.7407  -5.9574  -5.6800  -4.5177
    -4.4926  -4.4794  -4.3206  -4.2012   3.5174   6.4156   7.0468   7.0522
     8.0309   8.3053   8.4720   8.8701   9.1947  10.0758

          k = 0.0000 0.2857 0.3792 (  6911 PWs)   bands (ev):

   -45.2487 -21.9594 -21.8934 -21.8423  -6.5938  -5.9019  -5.5682  -4.5130
    -4.4831  -4.4795  -4.3447  -4.1741   3.1129   6.0899   6.8917   7.1165
     7.6981   7.9798   8.1688   8.9369   9.6025  10.1729

          k = 0.0000 0.4286 0.0000 (  6870 PWs)   bands (ev):

   -45.2487 -21.9233 -21.9181 -21.8429  -6.6146  -5.9157  -5.7282  -4.5570
    -4.4992  -4.4775  -4.3062  -4.2314   3.4857   6.0658   7.2157   7.2595
     7.8963   8.0121   8.6809   8.8300   9.2474  10.7556

          k = 0.0000 0.4286 0.1896 (  6878 PWs)   bands (ev):

   -45.2485 -21.9337 -21.9218 -21.8422  -6.5614  -5.8726  -5.6629  -4.5329
    -4.4998  -4.4908  -4.2842  -4.2056   3.2708   6.0446   7.0670   7.3655
     7.4361   7.9008   8.5994   8.8299   9.1743  10.5179

          k = 0.0000 0.4286 0.3792 (  6895 PWs)   bands (ev):

   -45.2482 -21.9576 -21.9204 -21.8411  -6.5158  -5.7879  -5.5030  -4.5123
    -4.5006  -4.4873  -4.3322  -4.0996   2.9553   5.8883   6.5336   7.3379
     7.4482   7.8470   7.8603   8.8299   9.7574  10.0738

          k = 0.1429 0.1429 0.0000 (  6903 PWs)   bands (ev):

   -45.2496 -21.9208 -21.8608 -21.8605  -6.9947  -6.0140  -5.7718  -4.5056
    -4.4965  -4.4614  -4.3109  -4.1994   4.1145   6.6842   6.8545   7.1749
     8.2282   8.4567   8.9461   8.9850   9.3497   9.6278

          k = 0.1429 0.1429 0.1896 (  6898 PWs)   bands (ev):

   -45.2494 -21.9361 -21.8602 -21.8599  -6.8693  -5.9907  -5.7238  -4.5105
    -4.4964  -4.4600  -4.3044  -4.2183   3.7701   6.5760   6.6436   7.4107
     8.0959   8.2295   8.7699   9.0945   9.3800   9.6829

          k = 0.1429 0.1429 0.3792 (  6890 PWs)   bands (ev):

   -45.2491 -21.9606 -21.8590 -21.8589  -6.6618  -5.9519  -5.6403  -4.5292
    -4.4712  -4.4558  -4.3052  -4.2540   3.2997   6.3920   6.4165   7.1009
     8.0068   8.0391   8.6887   9.1710   9.4193  10.2257

          k = 0.1429 0.2857 0.0000 (  6885 PWs)   bands (ev):

   -45.2490 -21.9195 -21.8946 -21.8591  -6.7397  -5.9551  -5.7555  -4.5340
    -4.4900  -4.4591  -4.2937  -4.1956   3.6344   6.5313   6.9398   7.0786
     7.8648   8.2351   8.6857   9.0961   9.3150  10.0401

          k = 0.1429 0.2857 0.1896 (  6898 PWs)   bands (ev):

   -45.2488 -21.9345 -21.8939 -21.8585  -6.6380  -5.9459  -5.7036  -4.5190
    -4.4959  -4.4491  -4.2820  -4.1827   3.4650   6.3797   6.5423   7.1307
     7.6447   8.1460   8.7847   9.0654   9.3106  10.0015

          k = 0.1429 0.2857 0.3792 (  6896 PWs)   bands (ev):

   -45.2484 -21.9586 -21.8927 -21.8574  -6.4940  -5.9212  -5.5949  -4.5177
    -4.4777  -4.4175  -4.2916  -4.1524   3.1719   6.0310   6.4506   6.7886
     7.2177   7.9588   8.8341   9.1128   9.6174   9.8853

          k = 0.1429 0.4286 0.0000 (  6878 PWs)   bands (ev):

   -45.2484 -21.9225 -21.9174 -21.8579  -6.5165  -5.8932  -5.7689  -4.5445
    -4.4809  -4.4447  -4.2779  -4.2227   3.3412   6.0785   7.0187   7.4074
     7.4545   8.0439   8.4376   9.0891   9.3482  10.5584

          k = 0.1429 0.4286 0.1896 (  6891 PWs)   bands (ev):

   -45.2482 -21.9330 -21.9210 -21.8573  -6.4580  -5.8700  -5.7142  -4.5234
    -4.4840  -4.4316  -4.2535  -4.1854   3.2533   6.0491   6.4646   6.9392
     7.5018   8.2793   8.4406   9.0768   9.3198  10.1889

          k = 0.1429 0.4286 0.3792 (  6889 PWs)   bands (ev):

   -45.2479 -21.9569 -21.9197 -21.8562  -6.4122  -5.8222  -5.5667  -4.5125
    -4.4557  -4.4075  -4.2756  -4.0798   3.0749   5.8568   6.2747   6.4763
     6.8578   8.0955   8.7743   8.9617   9.3692   9.9840

          k = 0.2857 0.2857 0.0000 (  6886 PWs)   bands (ev):

   -45.2483 -21.9181 -21.8928 -21.8928  -6.5027  -5.8978  -5.7939  -4.5243
    -4.4854  -4.4159  -4.2334  -4.1911   3.2731   6.5223   6.6242   7.2839
     7.4497   7.7541   8.5142   9.0709   9.6207  10.1082

          k = 0.2857 0.2857 0.1896 (  6898 PWs)   bands (ev):

   -45.2481 -21.9329 -21.8923 -21.8921  -6.4047  -5.9168  -5.7552  -4.4994
    -4.4857  -4.3888  -4.2091  -4.1539   3.3042   6.2221   6.2363   6.6852
     7.3597   7.7457   8.9947   9.1939   9.6471   9.7402

          k = 0.2857 0.2857 0.3792 (  6900 PWs)   bands (ev):

   -45.2478 -21.9568 -21.8912 -21.8910  -6.2823  -5.9469  -5.6451  -4.4823
    -4.4596  -4.3315  -4.1773  -4.0982   3.2886   5.7554   5.8866   6.3812
     7.0257   7.2217   8.9265   9.5381   9.5911   9.8050

          k = 0.2857 0.4286 0.0000 (  6898 PWs)   bands (ev):

   -45.2478 -21.9206 -21.9160 -21.8914  -6.3100  -5.8476  -5.8235  -4.5168
    -4.4636  -4.3540  -4.2196  -4.1943   3.0154   6.0944   6.6433   7.1285
     7.5833   7.8256   8.0501   9.0779   9.7351  10.0157

          k = 0.2857 0.4286 0.1896 (  6878 PWs)   bands (ev):

   -45.2476 -21.9314 -21.9192 -21.8908  -6.2257  -5.8683  -5.8066  -4.4895
    -4.4571  -4.3074  -4.1836  -4.1394   3.1497   6.0129   6.1279   6.3355
     7.1010   7.8665   8.7794   9.2403   9.4433   9.8169

          k = 0.2857 0.4286 0.3792 (  6878 PWs)   bands (ev):

   -45.2472 -21.9552 -21.9180 -21.8898  -6.1745  -5.8938  -5.6847  -4.4613
    -4.4282  -4.2441  -4.1305  -4.0337   3.3603   5.5040   5.6491   6.0446
     6.6700   7.2130   8.1536   9.6651   9.7533   9.9929

          k = 0.4286 0.4286 0.0000 (  6910 PWs)   bands (ev):

   -45.2473 -21.9194 -21.9185 -21.9139  -6.1922  -5.8120  -5.8056  -4.5015
    -4.4173  -4.2841  -4.2373  -4.1267   2.7595   5.9463   6.3471   7.3070
     7.4133   7.7907   7.9656   8.8090   9.3499  10.1949

          k = 0.4286 0.4286 0.1896 (  6888 PWs)   bands (ev):

   -45.2471 -21.9299 -21.9178 -21.9176  -6.0623  -5.8603  -5.8514  -4.4717
    -4.4114  -4.2026  -4.1495  -4.0961   3.0052   5.8994   6.1160   6.1717
     6.5468   7.8349   8.4097   9.1494   9.1712  10.1870

          k = 0.4286 0.4286 0.3792 (  6885 PWs)   bands (ev):

   -45.2467 -21.9537 -21.9167 -21.9166  -5.9835  -5.9392  -5.7677  -4.4237
    -4.4057  -4.1013  -4.0129  -4.0110   3.5595   5.3084   5.4209   5.8252
     6.4563   6.7819   7.0973   9.9815  10.0009  10.1743

     highest occupied level (ev):    10.7556

!    total energy              =    -380.57763840 Ry
     estimated scf accuracy    <          3.6E-09 Ry

     The total energy is the sum of the following terms:
     one-electron contribution =     -80.26429365 Ry
     hartree contribution      =      70.09895351 Ry
     xc contribution           =    -102.66228900 Ry
     ewald contribution        =    -267.75000926 Ry

     convergence has been achieved in  13 iterations

     negative rho (up, down):  1.580E-02 0.000E+00

     Forces acting on atoms (cartesian axes, Ry/au):

     atom    1 type  1   force =     0.00000000    0.00000000   -0.00072570
     atom    2 type  2   force =     0.00000000    0.00000000   -0.00389838
     atom    3 type  3   force =     0.00000000    0.00000000    0.00457056
     atom    4 type  3   force =     0.00000000    0.00000000    0.00002676
     atom    5 type  3   force =     0.00000000    0.00000000    0.00002676

     Total force =     0.006051     Total SCF correction =     0.000080


     Computing stress (Cartesian axis) and pressure


     negative rho (up, down):  1.580E-02 0.000E+00
          total   stress  (Ry/bohr**3)                   (kbar)     P=       -6.18
  -0.00002319   0.00000000   0.00000000           -3.41        0.00        0.00
   0.00000000  -0.00002319   0.00000000            0.00       -3.41        0.00
   0.00000000   0.00000000  -0.00007964            0.00        0.00      -11.72


     BFGS Geometry Optimization
     Energy error            =      0.0E+00 Ry
     Gradient error          =      4.6E-03 Ry/Bohr

     number of scf cycles    =   1
     number of bfgs steps    =   0

     energy             new  =    -380.5776383993 Ry

     new trust radius        =       0.0045705563 bohr
     new conv_thr            =       0.0000000100 Ry


ATOMIC_POSITIONS (crystal)
Pb            0.0000000000        0.0000000000        1.0050959973
Ti            0.5000000000        0.5000000000        0.5390052270
O             0.5000000000        0.5000000000        0.1000733408
O             0.5000000000        0.0000000000        0.6115548614
O             0.0000000000        0.5000000000        0.6115548614



     Writing config-only to output data dir ./PTO2.save/
     NEW-OLD atomic charge density approx. for the potential

     Check: negative core charge=   -0.000003

     negative rho (up, down):  1.582E-02 0.000E+00

     total cpu time spent up to now is      557.2 secs

     Self-consistent Calculation

     iteration #  1     ecut=   100.00 Ry     beta= 0.70
     CG style diagonalization
     ethr =  1.00E-06,  avg # of iterations =  3.6

     Threshold (ethr) on eigenvalues was too large:
     Diagonalizing with lowered threshold

     CG style diagonalization
     c_bands:  1 eigenvalues not converged
     c_bands:  2 eigenvalues not converged
     c_bands:  1 eigenvalues not converged
     c_bands:  1 eigenvalues not converged
     c_bands:  2 eigenvalues not converged
     c_bands:  1 eigenvalues not converged
     c_bands:  1 eigenvalues not converged
     c_bands:  1 eigenvalues not converged
     c_bands:  1 eigenvalues not converged
     c_bands:  1 eigenvalues not converged
     c_bands:  2 eigenvalues not converged
     c_bands:  1 eigenvalues not converged
     c_bands:  1 eigenvalues not converged
     c_bands:  1 eigenvalues not converged
     ethr =  3.16E-08,  avg # of iterations =  5.9

     negative rho (up, down):  1.581E-02 0.000E+00

     total cpu time spent up to now is      640.1 secs

     total energy              =    -380.57765820 Ry
     estimated scf accuracy    <       0.00001533 Ry

     iteration #  2     ecut=   100.00 Ry     beta= 0.70
     CG style diagonalization
     ethr =  3.48E-08,  avg # of iterations =  4.6

     negative rho (up, down):  1.582E-02 0.000E+00

     total cpu time spent up to now is      677.6 secs

     total energy              =    -380.57765775 Ry
     estimated scf accuracy    <       0.00003463 Ry

     iteration #  3     ecut=   100.00 Ry     beta= 0.70
     CG style diagonalization
     ethr =  3.48E-08,  avg # of iterations =  4.3

     negative rho (up, down):  1.582E-02 0.000E+00

     total cpu time spent up to now is      712.0 secs

     total energy              =    -380.57766484 Ry
     estimated scf accuracy    <       0.00000305 Ry

     iteration #  4     ecut=   100.00 Ry     beta= 0.70
     CG style diagonalization
     ethr =  6.94E-09,  avg # of iterations =  3.8

     negative rho (up, down):  1.582E-02 0.000E+00

     total cpu time spent up to now is      743.4 secs

     total energy              =    -380.57766551 Ry
     estimated scf accuracy    <       0.00000030 Ry

     iteration #  5     ecut=   100.00 Ry     beta= 0.70
     CG style diagonalization
     ethr =  6.89E-10,  avg # of iterations =  4.6

     negative rho (up, down):  1.582E-02 0.000E+00

     total cpu time spent up to now is      780.1 secs

     total energy              =    -380.57766571 Ry
     estimated scf accuracy    <       0.00000006 Ry

     iteration #  6     ecut=   100.00 Ry     beta= 0.70
     CG style diagonalization
     ethr =  1.33E-10,  avg # of iterations =  4.0

     negative rho (up, down):  1.582E-02 0.000E+00

     total cpu time spent up to now is      812.1 secs

     total energy              =    -380.57766572 Ry
     estimated scf accuracy    <       0.00000001 Ry

     iteration #  7     ecut=   100.00 Ry     beta= 0.70
     CG style diagonalization
     ethr =  3.29E-11,  avg # of iterations =  4.7

     negative rho (up, down):  1.582E-02 0.000E+00

     total cpu time spent up to now is      849.9 secs

     End of self-consistent calculation

          k = 0.0000 0.0000 0.0000 (  6933 PWs)   bands (ev):

   -45.2407 -21.9191 -21.8362 -21.8362  -7.2083  -6.0623  -5.8094  -4.4847
    -4.4847  -4.4450  -4.3247  -4.2191   4.7594   6.6920   6.6920   7.0482
     8.6385   8.6385   8.8866   9.2081   9.3895   9.3895

          k = 0.0000 0.0000 0.1896 (  6905 PWs)   bands (ev):

   -45.2405 -21.9345 -21.8356 -21.8356  -7.0693  -6.0211  -5.7640  -4.4964
    -4.4964  -4.4440  -4.3175  -4.2706   4.1215   6.7298   6.7298   7.3626
     8.4598   8.4598   8.8304   9.0990   9.4755   9.4755

          k = 0.0000 0.0000 0.3792 (  6912 PWs)   bands (ev):

   -45.2401 -21.9593 -21.8346 -21.8346  -6.8269  -5.9488  -5.6973  -4.5153
    -4.5153  -4.4424  -4.3593  -4.3077   3.4632   6.7215   6.7713   6.7713
     8.2707   8.2707   8.7432   9.5658   9.5658  10.2378

          k = 0.0000 0.1429 0.0000 (  6909 PWs)   bands (ev):

   -45.2404 -21.9184 -21.8515 -21.8356  -7.1002  -6.0370  -5.7858  -4.5034
    -4.4835  -4.4561  -4.3272  -4.2090   4.3849   6.7285   6.7736   7.1126
     8.5777   8.6591   8.9025   9.0947   9.1158   9.4787

          k = 0.0000 0.1429 0.1896 (  6903 PWs)   bands (ev):

   -45.2402 -21.9338 -21.8508 -21.8350  -6.9686  -6.0042  -5.7383  -4.5060
    -4.4955  -4.4555  -4.3225  -4.2416   3.9104   6.6088   6.8173   7.3998
     8.2242   8.4543   8.8330   9.0184   9.2109   9.6660

          k = 0.0000 0.1429 0.3792 (  6919 PWs)   bands (ev):

   -45.2399 -21.9584 -21.8498 -21.8340  -6.7454  -5.9464  -5.6618  -4.5149
    -4.5078  -4.4544  -4.3257  -4.2903   3.3469   6.3612   6.8650   7.0389
     7.9714   8.2658   8.9210   9.0646   9.3111  10.3504

          k = 0.0000 0.2857 0.0000 (  6901 PWs)   bands (ev):

   -45.2398 -21.9171 -21.8855 -21.8341  -6.8413  -5.9783  -5.7408  -4.5361
    -4.4818  -4.4799  -4.3276  -4.2048   3.8076   6.5640   6.9597   6.9919
     8.4600   8.4811   8.7648   8.7848   9.1856   9.8397

          k = 0.0000 0.2857 0.1896 (  6883 PWs)   bands (ev):

   -45.2395 -21.9321 -21.8848 -21.8335  -6.7387  -5.9551  -5.6838  -4.5188
    -4.4936  -4.4809  -4.3218  -4.2014   3.5160   6.4158   7.0469   7.0527
     8.0314   8.2997   8.4700   8.8633   9.1908  10.0734

          k = 0.0000 0.2857 0.3792 (  6911 PWs)   bands (ev):

   -45.2392 -21.9564 -21.8835 -21.8325  -6.5905  -5.8996  -5.5731  -4.5140
    -4.4842  -4.4810  -4.3460  -4.1742   3.1103   6.0852   6.8960   7.1125
     7.6977   7.9832   8.1652   8.9361   9.5949  10.1749

          k = 0.0000 0.4286 0.0000 (  6870 PWs)   bands (ev):

   -45.2392 -21.9161 -21.9124 -21.8330  -6.6131  -5.9138  -5.7320  -4.5579
    -4.5008  -4.4785  -4.3066  -4.2320   3.4849   6.0709   7.2137   7.2631
     7.8989   8.0143   8.6813   8.8091   9.2376  10.7515

          k = 0.0000 0.4286 0.1896 (  6878 PWs)   bands (ev):

   -45.2390 -21.9306 -21.9120 -21.8323  -6.5591  -5.8708  -5.6674  -4.5338
    -4.5013  -4.4918  -4.2851  -4.2057   3.2699   6.0489   7.0662   7.3681
     7.4356   7.8988   8.5975   8.8170   9.1727  10.5135

          k = 0.0000 0.4286 0.3792 (  6895 PWs)   bands (ev):

   -45.2387 -21.9547 -21.9106 -21.8313  -6.5126  -5.7861  -5.5086  -4.5132
    -4.5022  -4.4882  -4.3331  -4.0995   2.9542   5.8872   6.5349   7.3383
     7.4443   7.8472   7.8643   8.8249   9.7562  10.0671

          k = 0.1429 0.1429 0.0000 (  6903 PWs)   bands (ev):

   -45.2401 -21.9178 -21.8510 -21.8506  -6.9933  -6.0111  -5.7748  -4.5067
    -4.4976  -4.4628  -4.3124  -4.1996   4.1137   6.6865   6.8565   7.1740
     8.2144   8.4568   8.9356   8.9841   9.3534   9.6155

          k = 0.1429 0.1429 0.1896 (  6898 PWs)   bands (ev):

   -45.2399 -21.9331 -21.8503 -21.8500  -6.8674  -5.9877  -5.7274  -4.5116
    -4.4974  -4.4615  -4.3061  -4.2185   3.7680   6.5753   6.6435   7.4106
     8.0893   8.2290   8.7600   9.0922   9.3826   9.6796

          k = 0.1429 0.1429 0.3792 (  6890 PWs)   bands (ev):

   -45.2396 -21.9576 -21.8492 -21.8490  -6.6585  -5.9488  -5.6450  -4.5304
    -4.4724  -4.4569  -4.3070  -4.2542   3.2955   6.3877   6.4137   7.1048
     8.0067   8.0353   8.6841   9.1685   9.4212  10.2272

          k = 0.1429 0.2857 0.0000 (  6885 PWs)   bands (ev):

   -45.2395 -21.9164 -21.8848 -21.8493  -6.7388  -5.9526  -5.7586  -4.5351
    -4.4911  -4.4606  -4.2949  -4.1959   3.6341   6.5346   6.9380   7.0810
     7.8647   8.2215   8.6875   9.0925   9.3131  10.0316

          k = 0.1429 0.2857 0.1896 (  6898 PWs)   bands (ev):

   -45.2393 -21.9314 -21.8841 -21.8486  -6.6362  -5.9435  -5.7072  -4.5201
    -4.4969  -4.4506  -4.2833  -4.1828   3.4640   6.3799   6.5420   7.1316
     7.6428   8.1444   8.7803   9.0625   9.3077   9.9986

          k = 0.1429 0.2857 0.3792 (  6896 PWs)   bands (ev):

   -45.2389 -21.9556 -21.8828 -21.8475  -6.4910  -5.9188  -5.5998  -4.5190
    -4.4789  -4.4187  -4.2930  -4.1525   3.1695   6.0266   6.4494   6.7910
     7.2203   7.9605   8.8251   9.1162   9.6105   9.8871

          k = 0.1429 0.4286 0.0000 (  6878 PWs)   bands (ev):

   -45.2389 -21.9154 -21.9116 -21.8480  -6.5157  -5.8913  -5.7719  -4.5454
    -4.4819  -4.4464  -4.2786  -4.2232   3.3409   6.0838   7.0156   7.4119
     7.4556   8.0472   8.4194   9.0890   9.3427  10.5546

          k = 0.1429 0.4286 0.1896 (  6891 PWs)   bands (ev):

   -45.2387 -21.9299 -21.9112 -21.8474  -6.4561  -5.8683  -5.7181  -4.5244
    -4.4850  -4.4334  -4.2543  -4.1856   3.2528   6.0533   6.4645   6.9387
     7.5009   8.2776   8.4394   9.0690   9.3189  10.1848

          k = 0.1429 0.4286 0.3792 (  6889 PWs)   bands (ev):

   -45.2384 -21.9539 -21.9098 -21.8463  -6.4093  -5.8204  -5.5718  -4.5136
    -4.4567  -4.4095  -4.2764  -4.0798   3.0740   5.8548   6.2760   6.4783
     6.8572   8.0988   8.7761   8.9536   9.3690   9.9774

          k = 0.2857 0.2857 0.0000 (  6886 PWs)   bands (ev):

   -45.2388 -21.9150 -21.8831 -21.8829  -6.5028  -5.8955  -5.7962  -4.5251
    -4.4866  -4.4172  -4.2351  -4.1913   3.2733   6.5278   6.6247   7.2870
     7.4449   7.7397   8.5222   9.0668   9.6220  10.1018

          k = 0.2857 0.2857 0.1896 (  6898 PWs)   bands (ev):

   -45.2386 -21.9298 -21.8825 -21.8822  -6.4038  -5.9146  -5.7584  -4.5003
    -4.4870  -4.3902  -4.2107  -4.1540   3.3040   6.2224   6.2349   6.6872
     7.3599   7.7456   8.9896   9.1931   9.6477   9.7355

          k = 0.2857 0.2857 0.3792 (  6900 PWs)   bands (ev):

   -45.2383 -21.9538 -21.8813 -21.8811  -6.2799  -5.9447  -5.6497  -4.4836
    -4.4605  -4.3332  -4.1788  -4.0981   3.2870   5.7527   5.8867   6.3809
     7.0287   7.2273   8.9227   9.5324   9.5936   9.8001

          k = 0.2857 0.4286 0.0000 (  6898 PWs)   bands (ev):

   -45.2383 -21.9139 -21.9097 -21.8816  -6.3113  -5.8464  -5.8239  -4.5176
    -4.4648  -4.3551  -4.2201  -4.1959   3.0159   6.0995   6.6481   7.1220
     7.5869   7.8105   8.0556   9.0765   9.7349  10.0158

          k = 0.2857 0.4286 0.1896 (  6878 PWs)   bands (ev):

   -45.2381 -21.9283 -21.9094 -21.8810  -6.2254  -5.8669  -5.8088  -4.4904
    -4.4583  -4.3091  -4.1844  -4.1402   3.1499   6.0148   6.1281   6.3363
     7.1027   7.8650   8.7799   9.2356   9.4383   9.8189

          k = 0.2857 0.4286 0.3792 (  6878 PWs)   bands (ev):

   -45.2377 -21.9522 -21.9081 -21.8799  -6.1723  -5.8921  -5.6890  -4.4626
    -4.4292  -4.2467  -4.1311  -4.0340   3.3599   5.5047   5.6456   6.0482
     6.6723   7.2176   8.1525   9.6584   9.7553   9.9873

          k = 0.4286 0.4286 0.0000 (  6910 PWs)   bands (ev):

   -45.2378 -21.9127 -21.9086 -21.9078  -6.1959  -5.8109  -5.8038  -4.5023
    -4.4187  -4.2845  -4.2375  -4.1296   2.7603   5.9501   6.3559   7.2985
     7.4023   7.7931   7.9700   8.8081   9.3513  10.1977

          k = 0.4286 0.4286 0.1896 (  6888 PWs)   bands (ev):

   -45.2376 -21.9268 -21.9079 -21.9079  -6.0651  -5.8586  -5.8511  -4.4725
    -4.4128  -4.2034  -4.1495  -4.0988   3.0060   5.9026   6.1167   6.1695
     6.5515   7.8342   8.4112   9.1457   9.1664  10.1898

          k = 0.4286 0.4286 0.3792 (  6885 PWs)   bands (ev):

   -45.2372 -21.9507 -21.9068 -21.9068  -5.9820  -5.9376  -5.7715  -4.4245
    -4.4072  -4.1042  -4.0140  -4.0109   3.5603   5.3072   5.4187   5.8286
     6.4652   6.7818   7.0973   9.9753   9.9956  10.1770

     highest occupied level (ev):    10.7515

!    total energy              =    -380.57766572 Ry
     estimated scf accuracy    <          9.2E-09 Ry

     The total energy is the sum of the following terms:
     one-electron contribution =     -80.30223772 Ry
     hartree contribution      =      70.12064392 Ry
     xc contribution           =    -102.66464770 Ry
     ewald contribution        =    -267.73142423 Ry

     convergence has been achieved in   7 iterations

     negative rho (up, down):  1.582E-02 0.000E+00

     Forces acting on atoms (cartesian axes, Ry/au):

     atom    1 type  1   force =     0.00000000    0.00000000   -0.00108994
     atom    2 type  2   force =     0.00000000    0.00000000   -0.00144806
     atom    3 type  3   force =     0.00000000    0.00000000    0.00196494
     atom    4 type  3   force =     0.00000000    0.00000000    0.00028653
     atom    5 type  3   force =     0.00000000    0.00000000    0.00028653

     Total force =     0.002704     Total SCF correction =     0.000271
     SCF correction compared to forces is large: reduce conv_thr to get better values


     Computing stress (Cartesian axis) and pressure


     negative rho (up, down):  1.582E-02 0.000E+00
          total   stress  (Ry/bohr**3)                   (kbar)     P=       -4.87
  -0.00002187   0.00000000   0.00000000           -3.22        0.00        0.00
   0.00000000  -0.00002187   0.00000000            0.00       -3.22        0.00
   0.00000000   0.00000000  -0.00005552            0.00        0.00       -8.17


     BFGS Geometry Optimization
     Energy error            =      0.0E+00 Ry
     Gradient error          =      2.0E-03 Ry/Bohr

     number of scf cycles    =   1
     number of bfgs steps    =   0

     energy             new  =    -380.5776657210 Ry

     new trust radius        =       0.0019649444 bohr
     new conv_thr            =       0.0000000100 Ry


ATOMIC_POSITIONS (crystal)
Pb            0.0000000000        0.0000000000        1.0049542011
Ti            0.5000000000        0.5000000000        0.5388168409
O             0.5000000000        0.5000000000        0.1003289715
O             0.5000000000        0.0000000000        0.6115921372
O             0.0000000000        0.5000000000        0.6115921372



     Writing config-only to output data dir ./PTO2.save/
     NEW-OLD atomic charge density approx. for the potential

     Check: negative core charge=   -0.000003

     negative rho (up, down):  1.584E-02 0.000E+00

     total cpu time spent up to now is      869.3 secs

     Self-consistent Calculation

     iteration #  1     ecut=   100.00 Ry     beta= 0.70
     CG style diagonalization
     ethr =  1.00E-06,  avg # of iterations =  2.8

     Threshold (ethr) on eigenvalues was too large:
     Diagonalizing with lowered threshold

     CG style diagonalization
     c_bands:  1 eigenvalues not converged
     c_bands:  1 eigenvalues not converged
     c_bands:  1 eigenvalues not converged
     c_bands:  1 eigenvalues not converged
     c_bands:  1 eigenvalues not converged
     c_bands:  1 eigenvalues not converged
     c_bands:  1 eigenvalues not converged
     c_bands:  3 eigenvalues not converged
     c_bands:  1 eigenvalues not converged
     c_bands:  1 eigenvalues not converged
     ethr =  7.13E-09,  avg # of iterations =  6.8

     negative rho (up, down):  1.584E-02 0.000E+00

     total cpu time spent up to now is      953.1 secs

     total energy              =    -380.57766974 Ry
     estimated scf accuracy    <       0.00000273 Ry

     iteration #  2     ecut=   100.00 Ry     beta= 0.70
     CG style diagonalization
     ethr =  6.19E-09,  avg # of iterations =  4.8

     negative rho (up, down):  1.584E-02 0.000E+00

     total cpu time spent up to now is      991.9 secs

     total energy              =    -380.57766983 Ry
     estimated scf accuracy    <       0.00000714 Ry

     iteration #  3     ecut=   100.00 Ry     beta= 0.70
     CG style diagonalization
     ethr =  6.19E-09,  avg # of iterations =  4.4

     negative rho (up, down):  1.584E-02 0.000E+00

     total cpu time spent up to now is     1027.7 secs

     total energy              =    -380.57767126 Ry
     estimated scf accuracy    <       0.00000037 Ry

     iteration #  4     ecut=   100.00 Ry     beta= 0.70
     CG style diagonalization
     ethr =  8.51E-10,  avg # of iterations =  3.8

     negative rho (up, down):  1.584E-02 0.000E+00

     total cpu time spent up to now is     1058.6 secs

     total energy              =    -380.57767136 Ry
     estimated scf accuracy    <       0.00000004 Ry

     iteration #  5     ecut=   100.00 Ry     beta= 0.70
     CG style diagonalization
     ethr =  1.02E-10,  avg # of iterations =  4.5

     negative rho (up, down):  1.584E-02 0.000E+00

     total cpu time spent up to now is     1094.2 secs

     End of self-consistent calculation

          k = 0.0000 0.0000 0.0000 (  6933 PWs)   bands (ev):

   -45.2370 -21.9179 -21.8323 -21.8323  -7.2082  -6.0617  -5.8103  -4.4848
    -4.4848  -4.4453  -4.3253  -4.2185   4.7585   6.6921   6.6921   7.0517
     8.6309   8.6309   8.8865   9.2020   9.3901   9.3901

          k = 0.0000 0.0000 0.1896 (  6905 PWs)   bands (ev):

   -45.2368 -21.9333 -21.8317 -21.8317  -7.0690  -6.0205  -5.7650  -4.4966
    -4.4966  -4.4443  -4.3182  -4.2699   4.1203   6.7290   6.7290   7.3651
     8.4545   8.4545   8.8303   9.0958   9.4759   9.4759

          k = 0.0000 0.0000 0.3792 (  6912 PWs)   bands (ev):

   -45.2364 -21.9581 -21.8308 -21.8308  -6.8262  -5.9483  -5.6987  -4.5154
    -4.5154  -4.4427  -4.3587  -4.3083   3.4611   6.7232   6.7687   6.7687
     8.2686   8.2686   8.7430   9.5662   9.5662  10.2379

          k = 0.0000 0.1429 0.0000 (  6909 PWs)   bands (ev):

   -45.2367 -21.9173 -21.8476 -21.8317  -7.1001  -6.0365  -5.7868  -4.5036
    -4.4836  -4.4564  -4.3277  -4.2084   4.3845   6.7289   6.7738   7.1139
     8.5740   8.6516   8.9013   9.0954   9.1133   9.4763

          k = 0.0000 0.1429 0.1896 (  6903 PWs)   bands (ev):

   -45.2365 -21.9326 -21.8470 -21.8311  -6.9683  -6.0037  -5.7394  -4.5062
    -4.4957  -4.4557  -4.3230  -4.2410   3.9095   6.6082   6.8166   7.4010
     8.2216   8.4492   8.8319   9.0167   9.2111   9.6655

          k = 0.0000 0.1429 0.3792 (  6919 PWs)   bands (ev):

   -45.2361 -21.9573 -21.8459 -21.8301  -6.7447  -5.9460  -5.6633  -4.5150
    -4.5079  -4.4546  -4.3260  -4.2899   3.3452   6.3594   6.8625   7.0400
     7.9702   8.2637   8.9215   9.0629   9.3115  10.3512

          k = 0.0000 0.2857 0.0000 (  6901 PWs)   bands (ev):

   -45.2360 -21.9159 -21.8817 -21.8303  -6.8413  -5.9780  -5.7421  -4.5363
    -4.4820  -4.4801  -4.3277  -4.2043   3.8074   6.5644   6.9600   6.9923
     8.4597   8.4813   8.7574   8.7846   9.1818   9.8383

          k = 0.0000 0.2857 0.1896 (  6883 PWs)   bands (ev):

   -45.2358 -21.9310 -21.8810 -21.8296  -6.7384  -5.9549  -5.6852  -4.5189
    -4.4937  -4.4812  -4.3220  -4.2007   3.5157   6.4155   7.0470   7.0524
     8.0313   8.2971   8.4692   8.8605   9.1891  10.0729

          k = 0.0000 0.2857 0.3792 (  6911 PWs)   bands (ev):

   -45.2354 -21.9553 -21.8797 -21.8286  -6.5899  -5.8995  -5.5748  -4.5141
    -4.4842  -4.4813  -4.3462  -4.1736   3.1096   6.0829   6.8978   7.1103
     7.6974   7.9840   8.1636   8.9356   9.5917  10.1763

          k = 0.0000 0.4286 0.0000 (  6870 PWs)   bands (ev):

   -45.2355 -21.9147 -21.9088 -21.8291  -6.6130  -5.9137  -5.7335  -4.5580
    -4.5010  -4.4786  -4.3061  -4.2318   3.4847   6.0727   7.2130   7.2639
     7.8997   8.0149   8.6810   8.8007   9.2334  10.7504

          k = 0.0000 0.4286 0.1896 (  6878 PWs)   bands (ev):

   -45.2353 -21.9294 -21.9082 -21.8285  -6.5588  -5.8709  -5.6692  -4.5338
    -4.5016  -4.4919  -4.2850  -4.2051   3.2698   6.0503   7.0657   7.3685
     7.4352   7.8976   8.5966   8.8118   9.1719  10.5122

          k = 0.0000 0.4286 0.3792 (  6895 PWs)   bands (ev):

   -45.2349 -21.9535 -21.9067 -21.8274  -6.5119  -5.7863  -5.5106  -4.5133
    -4.5024  -4.4881  -4.3330  -4.0989   2.9542   5.8864   6.5355   7.3376
     7.4421   7.8467   7.8659   8.8230   9.7560  10.0648

          k = 0.1429 0.1429 0.0000 (  6903 PWs)   bands (ev):

   -45.2364 -21.9167 -21.8471 -21.8468  -6.9933  -6.0107  -5.7758  -4.5069
    -4.4977  -4.4631  -4.3128  -4.1990   4.1133   6.6870   6.8573   7.1737
     8.2090   8.4565   8.9316   8.9835   9.3545   9.6107

          k = 0.1429 0.1429 0.1896 (  6898 PWs)   bands (ev):

   -45.2362 -21.9319 -21.8464 -21.8461  -6.8671  -5.9873  -5.7286  -4.5118
    -4.4976  -4.4617  -4.3065  -4.2178   3.7674   6.5746   6.6432   7.4106
     8.0867   8.2284   8.7560   9.0910   9.3832   9.6786

          k = 0.1429 0.1429 0.3792 (  6890 PWs)   bands (ev):

   -45.2358 -21.9564 -21.8453 -21.8451  -6.6579  -5.9484  -5.6466  -4.5305
    -4.4725  -4.4571  -4.3075  -4.2535   3.2941   6.3856   6.4123   7.1062
     8.0068   8.0332   8.6823   9.1673   9.4215  10.2282

          k = 0.1429 0.2857 0.0000 (  6885 PWs)   bands (ev):

   -45.2357 -21.9152 -21.8809 -21.8454  -6.7389  -5.9524  -5.7597  -4.5352
    -4.4912  -4.4608  -4.2951  -4.1953   3.6340   6.5355   6.9372   7.0820
     7.8642   8.2163   8.6882   9.0909   9.3121  10.0287

          k = 0.1429 0.2857 0.1896 (  6898 PWs)   bands (ev):

   -45.2355 -21.9303 -21.8802 -21.8447  -6.6361  -5.9434  -5.7086  -4.5202
    -4.4971  -4.4508  -4.2835  -4.1822   3.4636   6.3796   6.5416   7.1318
     7.6419   8.1438   8.7783   9.0612   9.3063   9.9978

          k = 0.1429 0.2857 0.3792 (  6896 PWs)   bands (ev):

   -45.2352 -21.9545 -21.8790 -21.8437  -6.4905  -5.9187  -5.6015  -4.5192
    -4.4791  -4.4189  -4.2932  -4.1519   3.1688   6.0246   6.4485   6.7920
     7.2210   7.9611   8.8216   9.1169   9.6078   9.8883

          k = 0.1429 0.4286 0.0000 (  6878 PWs)   bands (ev):

   -45.2352 -21.9140 -21.9080 -21.8442  -6.5158  -5.8913  -5.7732  -4.5455
    -4.4820  -4.4467  -4.2783  -4.2229   3.3407   6.0857   7.0141   7.4135
     7.4557   8.0485   8.4122   9.0885   9.3403  10.5536

          k = 0.1429 0.4286 0.1896 (  6891 PWs)   bands (ev):

   -45.2350 -21.9287 -21.9073 -21.8435  -6.4559  -5.8684  -5.7196  -4.5245
    -4.4851  -4.4338  -4.2542  -4.1850   3.2526   6.0547   6.4641   6.9383
     7.5004   8.2769   8.4387   9.0657   9.3183  10.1838

          k = 0.1429 0.4286 0.3792 (  6889 PWs)   bands (ev):

   -45.2346 -21.9528 -21.9059 -21.8424  -6.4088  -5.8205  -5.5736  -4.5138
    -4.4567  -4.4099  -4.2762  -4.0792   3.0739   5.8537   6.2759   6.4789
     6.8569   8.0999   8.7762   8.9504   9.3696   9.9748

          k = 0.2857 0.2857 0.0000 (  6886 PWs)   bands (ev):

   -45.2351 -21.9138 -21.8793 -21.8790  -6.5032  -5.8954  -5.7972  -4.5252
    -4.4868  -4.4173  -4.2353  -4.1906   3.2731   6.5297   6.6246   7.2882
     7.4429   7.7343   8.5251   9.0652   9.6220  10.0997

          k = 0.2857 0.2857 0.1896 (  6898 PWs)   bands (ev):

   -45.2349 -21.9287 -21.8786 -21.8784  -6.4039  -5.9145  -5.7596  -4.5003
    -4.4872  -4.3904  -4.2110  -4.1534   3.3037   6.2223   6.2341   6.6877
     7.3602   7.7456   8.9875   9.1925   9.6474   9.7341

          k = 0.2857 0.2857 0.3792 (  6900 PWs)   bands (ev):

   -45.2345 -21.9527 -21.8774 -21.8773  -6.2796  -5.9445  -5.6513  -4.4839
    -4.4606  -4.3336  -4.1790  -4.0975   3.2863   5.7516   5.8862   6.3806
     7.0299   7.2296   8.9219   9.5301   9.5940   9.7980

          k = 0.2857 0.4286 0.0000 (  6898 PWs)   bands (ev):

   -45.2345 -21.9125 -21.9061 -21.8778  -6.3120  -5.8466  -5.8246  -4.5176
    -4.4650  -4.3551  -4.2197  -4.1961   3.0155   6.1012   6.6498   7.1194
     7.5882   7.8049   8.0576   9.0760   9.7346  10.0160

          k = 0.2857 0.4286 0.1896 (  6878 PWs)   bands (ev):

   -45.2343 -21.9271 -21.9055 -21.8771  -6.2257  -5.8671  -5.8098  -4.4904
    -4.4585  -4.3094  -4.1842  -4.1400   3.1496   6.0154   6.1282   6.3364
     7.1035   7.8645   8.7801   9.2336   9.4368   9.8191

          k = 0.2857 0.4286 0.3792 (  6878 PWs)   bands (ev):

   -45.2340 -21.9511 -21.9043 -21.8761  -6.1721  -5.8922  -5.6904  -4.4628
    -4.4293  -4.2475  -4.1309  -4.0336   3.3594   5.5045   5.6442   6.0494
     6.6732   7.2196   8.1531   9.6556   9.7556   9.9850

          k = 0.4286 0.4286 0.0000 (  6910 PWs)   bands (ev):

   -45.2340 -21.9111 -21.9048 -21.9043  -6.1973  -5.8112  -5.8040  -4.5022
    -4.4189  -4.2840  -4.2367  -4.1305   2.7598   5.9514   6.3594   7.2953
     7.3983   7.7939   7.9715   8.8079   9.3524  10.1982

          k = 0.4286 0.4286 0.1896 (  6888 PWs)   bands (ev):

   -45.2338 -21.9257 -21.9041 -21.9040  -6.0662  -5.8588  -5.8516  -4.4725
    -4.4130  -4.2033  -4.1488  -4.0995   3.0054   5.9037   6.1170   6.1687
     6.5536   7.8340   8.4125   9.1442   9.1646  10.1903

          k = 0.4286 0.4286 0.3792 (  6885 PWs)   bands (ev):

   -45.2335 -21.9496 -21.9029 -21.9029  -5.9821  -5.9377  -5.7727  -4.4245
    -4.4074  -4.1052  -4.0140  -4.0104   3.5593   5.3069   5.4181   5.8297
     6.4687   6.7820   7.0987   9.9729   9.9934  10.1774

     highest occupied level (ev):    10.7504

!    total energy              =    -380.57767139 Ry
     estimated scf accuracy    <          3.4E-09 Ry

     The total energy is the sum of the following terms:
     one-electron contribution =     -80.32765310 Ry
     hartree contribution      =      70.13412699 Ry
     xc contribution           =    -102.66566365 Ry
     ewald contribution        =    -267.71848162 Ry

     convergence has been achieved in   5 iterations

     negative rho (up, down):  1.584E-02 0.000E+00

     Forces acting on atoms (cartesian axes, Ry/au):

     atom    1 type  1   force =     0.00000000    0.00000000   -0.00122121
     atom    2 type  2   force =     0.00000000    0.00000000   -0.00045330
     atom    3 type  3   force =     0.00000000    0.00000000    0.00092489
     atom    4 type  3   force =     0.00000000    0.00000000    0.00037481
     atom    5 type  3   force =     0.00000000    0.00000000    0.00037481

     Total force =     0.001683     Total SCF correction =     0.000213
     SCF correction compared to forces is large: reduce conv_thr to get better values


     Computing stress (Cartesian axis) and pressure


     negative rho (up, down):  1.584E-02 0.000E+00
          total   stress  (Ry/bohr**3)                   (kbar)     P=       -4.36
  -0.00002132   0.00000000   0.00000000           -3.14        0.00        0.00
   0.00000000  -0.00002132   0.00000000            0.00       -3.14        0.00
   0.00000000   0.00000000  -0.00004620            0.00        0.00       -6.80


     BFGS Geometry Optimization
     Energy error            =      0.0E+00 Ry
     Gradient error          =      1.2E-03 Ry/Bohr

     number of scf cycles    =   1
     number of bfgs steps    =   0

     energy             new  =    -380.5776713851 Ry

     new trust radius        =       0.0012212087 bohr
     new conv_thr            =       0.0000000100 Ry


ATOMIC_POSITIONS (crystal)
Pb            0.0000000000        0.0000000000        1.0047953271
Ti            0.5000000000        0.5000000000        0.5387578681
O             0.5000000000        0.5000000000        0.1004492955
O             0.5000000000        0.0000000000        0.6116408986
O             0.0000000000        0.5000000000        0.6116408986



     Writing config-only to output data dir ./PTO2.save/
     NEW-OLD atomic charge density approx. for the potential

     Check: negative core charge=   -0.000003

     negative rho (up, down):  1.586E-02 0.000E+00

     total cpu time spent up to now is     1114.0 secs

     Self-consistent Calculation

     iteration #  1     ecut=   100.00 Ry     beta= 0.70
     CG style diagonalization
     ethr =  1.00E-06,  avg # of iterations =  2.4

     Threshold (ethr) on eigenvalues was too large:
     Diagonalizing with lowered threshold

     CG style diagonalization
     c_bands:  1 eigenvalues not converged
     ethr =  2.32E-09,  avg # of iterations =  6.5

     negative rho (up, down):  1.586E-02 0.000E+00

     total cpu time spent up to now is     1192.6 secs

     total energy              =    -380.57767437 Ry
     estimated scf accuracy    <       0.00000033 Ry

     iteration #  2     ecut=   100.00 Ry     beta= 0.70
     CG style diagonalization
     ethr =  7.46E-10,  avg # of iterations =  4.6

     negative rho (up, down):  1.586E-02 0.000E+00

     total cpu time spent up to now is     1229.9 secs

     total energy              =    -380.57767443 Ry
     estimated scf accuracy    <       0.00000031 Ry

     iteration #  3     ecut=   100.00 Ry     beta= 0.70
     CG style diagonalization
     ethr =  7.09E-10,  avg # of iterations =  4.2

     negative rho (up, down):  1.586E-02 0.000E+00

     total cpu time spent up to now is     1263.5 secs

     total energy              =    -380.57767451 Ry
     estimated scf accuracy    <       0.00000011 Ry

     iteration #  4     ecut=   100.00 Ry     beta= 0.70
     CG style diagonalization
     ethr =  2.58E-10,  avg # of iterations =  3.7

     negative rho (up, down):  1.586E-02 0.000E+00

     total cpu time spent up to now is     1293.2 secs

     End of self-consistent calculation

          k = 0.0000 0.0000 0.0000 (  6933 PWs)   bands (ev):

   -45.2361 -21.9180 -21.8315 -21.8315  -7.2090  -6.0626  -5.8105  -4.4843
    -4.4843  -4.4447  -4.3252  -4.2173   4.7582   6.6913   6.6913   7.0541
     8.6278   8.6278   8.8859   9.1992   9.3893   9.3893

          k = 0.0000 0.0000 0.1896 (  6905 PWs)   bands (ev):

   -45.2359 -21.9335 -21.8309 -21.8309  -7.0698  -6.0214  -5.7653  -4.4960
    -4.4960  -4.4437  -4.3180  -4.2687   4.1201   6.7278   6.7278   7.3667
     8.4523   8.4523   8.8296   9.0943   9.4750   9.4750

          k = 0.0000 0.0000 0.3792 (  6912 PWs)   bands (ev):

   -45.2355 -21.9583 -21.8299 -21.8299  -6.8271  -5.9493  -5.6990  -4.5149
    -4.5149  -4.4421  -4.3574  -4.3080   3.4607   6.7240   6.7668   6.7668
     8.2677   8.2677   8.7423   9.5652   9.5652  10.2378

          k = 0.0000 0.1429 0.0000 (  6909 PWs)   bands (ev):

   -45.2358 -21.9174 -21.8467 -21.8308  -7.1009  -6.0374  -5.7872  -4.5030
    -4.4831  -4.4558  -4.3274  -4.2072   4.3843   6.7285   6.7730   7.1146
     8.5726   8.6485   8.9003   9.0946   9.1116   9.4749

          k = 0.0000 0.1429 0.1896 (  6903 PWs)   bands (ev):

   -45.2356 -21.9327 -21.8461 -21.8302  -6.9692  -6.0046  -5.7398  -4.5056
    -4.4951  -4.4551  -4.3228  -4.2398   3.9095   6.6072   6.8155   7.4015
     8.2204   8.4470   8.8309   9.0155   9.2102   9.6649

          k = 0.0000 0.1429 0.3792 (  6919 PWs)   bands (ev):

   -45.2353 -21.9574 -21.8450 -21.8292  -6.7456  -5.9470  -5.6637  -4.5145
    -4.5073  -4.4540  -4.3256  -4.2888   3.3450   6.3582   6.8605   7.0402
     7.9695   8.2627   8.9206   9.0617   9.3106  10.3515

          k = 0.0000 0.2857 0.0000 (  6901 PWs)   bands (ev):

   -45.2352 -21.9160 -21.8808 -21.8294  -6.8421  -5.9790  -5.7427  -4.5357
    -4.4814  -4.4796  -4.3271  -4.2031   3.8075   6.5637   6.9601   6.9916
     8.4590   8.4807   8.7540   8.7838   9.1799   9.8381

          k = 0.0000 0.2857 0.1896 (  6883 PWs)   bands (ev):

   -45.2350 -21.9311 -21.8801 -21.8287  -6.7392  -5.9560  -5.6859  -4.5183
    -4.4932  -4.4806  -4.3214  -4.1995   3.5158   6.4146   7.0468   7.0513
     8.0307   8.2956   8.4685   8.8588   9.1878  10.0727

          k = 0.0000 0.2857 0.3792 (  6911 PWs)   bands (ev):

   -45.2346 -21.9554 -21.8788 -21.8277  -6.5907  -5.9006  -5.5754  -4.5136
    -4.4835  -4.4807  -4.3456  -4.1725   3.1097   6.0814   6.8982   7.1085
     7.6968   7.9835   8.1625   8.9347   9.5900  10.1770

          k = 0.0000 0.4286 0.0000 (  6870 PWs)   bands (ev):

   -45.2346 -21.9147 -21.9080 -21.8282  -6.6139  -5.9148  -5.7345  -4.5573
    -4.5004  -4.4781  -4.3050  -4.2309   3.4847   6.0727   7.2125   7.2633
     7.8994   8.0144   8.6801   8.7970   9.2313  10.7503

          k = 0.0000 0.4286 0.1896 (  6878 PWs)   bands (ev):

   -45.2344 -21.9295 -21.9073 -21.8276  -6.5596  -5.8720  -5.6700  -4.5331
    -4.5010  -4.4914  -4.2842  -4.2039   3.2700   6.0502   7.0651   7.3677
     7.4344   7.8964   8.5958   8.8094   9.1709  10.5121

          k = 0.0000 0.4286 0.3792 (  6895 PWs)   bands (ev):

   -45.2341 -21.9536 -21.9058 -21.8265  -6.5127  -5.7876  -5.5114  -4.5128
    -4.5018  -4.4874  -4.3322  -4.0979   2.9546   5.8853   6.5353   7.3361
     7.4404   7.8457   7.8663   8.8218   9.7560  10.0640

          k = 0.1429 0.1429 0.0000 (  6903 PWs)   bands (ev):

   -45.2355 -21.9168 -21.8462 -21.8459  -6.9941  -6.0116  -5.7763  -4.5064
    -4.4972  -4.4624  -4.3125  -4.1978   4.1132   6.6864   6.8573   7.1734
     8.2067   8.4556   8.9299   8.9827   9.3539   9.6087

          k = 0.1429 0.1429 0.1896 (  6898 PWs)   bands (ev):

   -45.2353 -21.9320 -21.8455 -21.8453  -6.8680  -5.9883  -5.7290  -4.5112
    -4.4970  -4.4611  -4.3061  -4.2166   3.7673   6.5736   6.6425   7.4104
     8.0856   8.2276   8.7542   9.0899   9.3824   9.6781

          k = 0.1429 0.1429 0.3792 (  6890 PWs)   bands (ev):

   -45.2350 -21.9566 -21.8444 -21.8442  -6.6588  -5.9494  -5.6470  -4.5300
    -4.4719  -4.4565  -4.3071  -4.2523   3.2939   6.3841   6.4113   7.1062
     8.0066   8.0315   8.6814   9.1662   9.4205  10.2287

          k = 0.1429 0.2857 0.0000 (  6885 PWs)   bands (ev):

   -45.2349 -21.9153 -21.8800 -21.8445  -6.7397  -5.9535  -5.7604  -4.5346
    -4.4907  -4.4602  -4.2945  -4.1941   3.6338   6.5351   6.9364   7.0820
     7.8633   8.2142   8.6879   9.0896   9.3109  10.0278

          k = 0.1429 0.2857 0.1896 (  6898 PWs)   bands (ev):

   -45.2347 -21.9304 -21.8793 -21.8439  -6.6369  -5.9444  -5.7092  -4.5196
    -4.4965  -4.4502  -4.2830  -4.1810   3.4636   6.3788   6.5408   7.1313
     7.6410   8.1433   8.7770   9.0600   9.3051   9.9977

          k = 0.1429 0.2857 0.3792 (  6896 PWs)   bands (ev):

   -45.2343 -21.9546 -21.8781 -21.8428  -6.4914  -5.9198  -5.6021  -4.5186
    -4.4785  -4.4183  -4.2926  -4.1508   3.1688   6.0232   6.4473   6.7921
     7.2205   7.9607   8.8200   9.1160   9.6064   9.8889

          k = 0.1429 0.4286 0.0000 (  6878 PWs)   bands (ev):

   -45.2343 -21.9141 -21.9072 -21.8433  -6.5166  -5.8925  -5.7741  -4.5448
    -4.4815  -4.4461  -4.2773  -4.2219   3.3405   6.0857   7.0130   7.4136
     7.4550   8.0485   8.4094   9.0874   9.3387  10.5535

          k = 0.1429 0.4286 0.1896 (  6891 PWs)   bands (ev):

   -45.2341 -21.9288 -21.9065 -21.8426  -6.4568  -5.8696  -5.7204  -4.5239
    -4.4845  -4.4333  -4.2534  -4.1838   3.2526   6.0545   6.4632   6.9376
     7.4997   8.2762   8.4379   9.0638   9.3172  10.1838

          k = 0.1429 0.4286 0.3792 (  6889 PWs)   bands (ev):

   -45.2338 -21.9529 -21.9051 -21.8416  -6.4096  -5.8218  -5.5742  -4.5132
    -4.4561  -4.4095  -4.2754  -4.0782   3.0741   5.8526   6.2750   6.4785
     6.8565   8.0998   8.7753   8.9488   9.3703   9.9734

          k = 0.2857 0.2857 0.0000 (  6886 PWs)   bands (ev):

   -45.2342 -21.9139 -21.8784 -21.8782  -6.5040  -5.8966  -5.7979  -4.5245
    -4.4862  -4.4167  -4.2348  -4.1894   3.2727   6.5297   6.6238   7.2883
     7.4418   7.7324   8.5256   9.0644   9.6209  10.0992

          k = 0.2857 0.2857 0.1896 (  6898 PWs)   bands (ev):

   -45.2340 -21.9287 -21.8778 -21.8775  -6.4048  -5.9156  -5.7603  -4.4997
    -4.4866  -4.3898  -4.2105  -4.1522   3.3033   6.2218   6.2334   6.6872
     7.3601   7.7454   8.9863   9.1917   9.6463   9.7339

          k = 0.2857 0.2857 0.3792 (  6900 PWs)   bands (ev):

   -45.2337 -21.9528 -21.8766 -21.8764  -6.2806  -5.9456  -5.6517  -4.4833
    -4.4600  -4.3332  -4.1785  -4.0964   3.2860   5.7509   5.8851   6.3800
     7.0299   7.2302   8.9222   9.5288   9.5930   9.7967

          k = 0.2857 0.4286 0.0000 (  6898 PWs)   bands (ev):

   -45.2337 -21.9125 -21.9052 -21.8769  -6.3128  -5.8478  -5.8256  -4.5169
    -4.4644  -4.3543  -4.2187  -4.1954   3.0149   6.1012   6.6497   7.1183
     7.5882   7.8031   8.0578   9.0755   9.7339  10.0160

          k = 0.2857 0.4286 0.1896 (  6878 PWs)   bands (ev):

   -45.2335 -21.9272 -21.9046 -21.8763  -6.2265  -5.8683  -5.8106  -4.4897
    -4.4579  -4.3089  -4.1834  -4.1391   3.1489   6.0151   6.1277   6.3360
     7.1034   7.8642   8.7800   9.2324   9.4367   9.8181

          k = 0.2857 0.4286 0.3792 (  6878 PWs)   bands (ev):

   -45.2331 -21.9512 -21.9034 -21.8752  -6.1731  -5.8933  -5.6908  -4.4622
    -4.4286  -4.2473  -4.1301  -4.0327   3.3588   5.5038   5.6434   6.0493
     6.6733   7.2200   8.1544   9.6540   9.7545   9.9837

          k = 0.4286 0.4286 0.0000 (  6910 PWs)   bands (ev):

   -45.2332 -21.9112 -21.9039 -21.9035  -6.1977  -5.8125  -5.8054  -4.5016
    -4.4182  -4.2829  -4.2355  -4.1304   2.7588   5.9511   6.3601   7.2942
     7.3971   7.7937   7.9715   8.8077   9.3534  10.1971

          k = 0.4286 0.4286 0.1896 (  6888 PWs)   bands (ev):

   -45.2330 -21.9258 -21.9032 -21.9031  -6.0666  -5.8600  -5.8526  -4.4719
    -4.4124  -4.2025  -4.1477  -4.0993   3.0042   5.9034   6.1168   6.1683
     6.5541   7.8339   8.4138   9.1433   9.1636  10.1893

          k = 0.4286 0.4286 0.3792 (  6885 PWs)   bands (ev):

   -45.2326 -21.9497 -21.9020 -21.9020  -5.9831  -5.9388  -5.7729  -4.4238
    -4.4068  -4.1051  -4.0134  -4.0095   3.5576   5.3067   5.4179   5.8295
     6.4695   6.7821   7.1005   9.9715   9.9922  10.1764

     highest occupied level (ev):    10.7503

!    total energy              =    -380.57767453 Ry
     estimated scf accuracy    <          5.5E-09 Ry

     The total energy is the sum of the following terms:
     one-electron contribution =     -80.34852079 Ry
     hartree contribution      =      70.14533067 Ry
     xc contribution           =    -102.66641645 Ry
     ewald contribution        =    -267.70806797 Ry

     convergence has been achieved in   4 iterations

     negative rho (up, down):  1.586E-02 0.000E+00

     Forces acting on atoms (cartesian axes, Ry/au):

     atom    1 type  1   force =     0.00000000    0.00000000   -0.00105383
     atom    2 type  2   force =     0.00000000    0.00000000   -0.00020579
     atom    3 type  3   force =     0.00000000    0.00000000    0.00051855
     atom    4 type  3   force =     0.00000000    0.00000000    0.00037053
     atom    5 type  3   force =     0.00000000    0.00000000    0.00037053

     Total force =     0.001302     Total SCF correction =     0.000111


     Computing stress (Cartesian axis) and pressure


     negative rho (up, down):  1.586E-02 0.000E+00
          total   stress  (Ry/bohr**3)                   (kbar)     P=       -3.80
  -0.00001875   0.00000000   0.00000000           -2.76        0.00        0.00
   0.00000000  -0.00001875   0.00000000            0.00       -2.76        0.00
   0.00000000   0.00000000  -0.00003995            0.00        0.00       -5.88


     BFGS Geometry Optimization
     Energy error            =      0.0E+00 Ry
     Gradient error          =      1.1E-03 Ry/Bohr

     number of scf cycles    =   1
     number of bfgs steps    =   0

     energy             new  =    -380.5776745328 Ry

     new trust radius        =       0.0010538271 bohr
     new conv_thr            =       0.0000000100 Ry


ATOMIC_POSITIONS (crystal)
Pb            0.0000000000        0.0000000000        1.0046582287
Ti            0.5000000000        0.5000000000        0.5387310954
O             0.5000000000        0.5000000000        0.1005167569
O             0.5000000000        0.0000000000        0.6116891035
O             0.0000000000        0.5000000000        0.6116891035



     Writing config-only to output data dir ./PTO2.save/
     NEW-OLD atomic charge density approx. for the potential

     Check: negative core charge=   -0.000003

     negative rho (up, down):  1.588E-02 0.000E+00

     total cpu time spent up to now is     1312.9 secs

     Self-consistent Calculation

     iteration #  1     ecut=   100.00 Ry     beta= 0.70
     CG style diagonalization
     ethr =  1.00E-06,  avg # of iterations =  2.2

     Threshold (ethr) on eigenvalues was too large:
     Diagonalizing with lowered threshold

     CG style diagonalization
     c_bands:  1 eigenvalues not converged
     ethr =  1.45E-09,  avg # of iterations =  6.3

     negative rho (up, down):  1.588E-02 0.000E+00

     total cpu time spent up to now is     1387.8 secs

     total energy              =    -380.57767612 Ry
     estimated scf accuracy    <       0.00000011 Ry

     iteration #  2     ecut=   100.00 Ry     beta= 0.70
     CG style diagonalization
     ethr =  2.61E-10,  avg # of iterations =  4.6

     negative rho (up, down):  1.588E-02 0.000E+00

     total cpu time spent up to now is     1424.7 secs

     total energy              =    -380.57767615 Ry
     estimated scf accuracy    <       0.00000011 Ry

     iteration #  3     ecut=   100.00 Ry     beta= 0.70
     CG style diagonalization
     ethr =  2.51E-10,  avg # of iterations =  4.0

     negative rho (up, down):  1.587E-02 0.000E+00

     total cpu time spent up to now is     1457.1 secs

     total energy              =    -380.57767618 Ry
     estimated scf accuracy    <       0.00000003 Ry

     iteration #  4     ecut=   100.00 Ry     beta= 0.70
     CG style diagonalization
     ethr =  7.82E-11,  avg # of iterations =  3.7

     negative rho (up, down):  1.587E-02 0.000E+00

     total cpu time spent up to now is     1486.6 secs

     End of self-consistent calculation

          k = 0.0000 0.0000 0.0000 (  6933 PWs)   bands (ev):

   -45.2355 -21.9179 -21.8309 -21.8309  -7.2096  -6.0633  -5.8104  -4.4840
    -4.4840  -4.4443  -4.3252  -4.2165   4.7581   6.6907   6.6907   7.0560
     8.6264   8.6264   8.8854   9.1979   9.3887   9.3887

          k = 0.0000 0.0000 0.1896 (  6905 PWs)   bands (ev):

   -45.2353 -21.9333 -21.8302 -21.8302  -7.0704  -6.0222  -5.7651  -4.4957
    -4.4957  -4.4433  -4.3180  -4.2678   4.1202   6.7269   6.7269   7.3680
     8.4514   8.4514   8.8292   9.0937   9.4743   9.4743

          k = 0.0000 0.0000 0.3792 (  6912 PWs)   bands (ev):

   -45.2349 -21.9581 -21.8293 -21.8293  -6.8278  -5.9502  -5.6987  -4.5146
    -4.5146  -4.4417  -4.3563  -4.3079   3.4607   6.7248   6.7654   6.7654
     8.2676   8.2676   8.7418   9.5645   9.5645  10.2378

          k = 0.0000 0.1429 0.0000 (  6909 PWs)   bands (ev):

   -45.2352 -21.9172 -21.8461 -21.8302  -7.1015  -6.0382  -5.7871  -4.5028
    -4.4828  -4.4554  -4.3273  -4.2063   4.3843   6.7283   6.7724   7.1152
     8.5722   8.6471   8.8997   9.0939   9.1107   9.4743

          k = 0.0000 0.1429 0.1896 (  6903 PWs)   bands (ev):

   -45.2350 -21.9326 -21.8455 -21.8296  -6.9698  -6.0055  -5.7397  -4.5053
    -4.4948  -4.4547  -4.3226  -4.2389   3.9096   6.6066   6.8146   7.4021
     8.2200   8.4461   8.8304   9.0148   9.2095   9.6646

          k = 0.0000 0.1429 0.3792 (  6919 PWs)   bands (ev):

   -45.2346 -21.9572 -21.8444 -21.8286  -6.7463  -5.9479  -5.6635  -4.5142
    -4.5069  -4.4537  -4.3252  -4.2880   3.3451   6.3576   6.8592   7.0404
     7.9694   8.2625   8.9199   9.0611   9.3100  10.3518

          k = 0.0000 0.2857 0.0000 (  6901 PWs)   bands (ev):

   -45.2345 -21.9158 -21.8802 -21.8288  -6.8427  -5.9800  -5.7428  -4.5354
    -4.4811  -4.4792  -4.3266  -4.2023   3.8075   6.5633   6.9604   6.9910
     8.4588   8.4804   8.7522   8.7832   9.1789   9.8384

          k = 0.0000 0.2857 0.1896 (  6883 PWs)   bands (ev):

   -45.2343 -21.9309 -21.8795 -21.8281  -6.7399  -5.9569  -5.6860  -4.5179
    -4.4929  -4.4802  -4.3211  -4.1986   3.5160   6.4141   7.0468   7.0505
     8.0304   8.2948   8.4683   8.8580   9.1872  10.0730

          k = 0.0000 0.2857 0.3792 (  6911 PWs)   bands (ev):

   -45.2340 -21.9552 -21.8782 -21.8271  -6.5915  -5.9016  -5.5753  -4.5133
    -4.4831  -4.4803  -4.3452  -4.1717   3.1100   6.0805   6.8986   7.1073
     7.6965   7.9829   8.1620   8.9343   9.5893  10.1778

          k = 0.0000 0.4286 0.0000 (  6870 PWs)   bands (ev):

   -45.2340 -21.9145 -21.9074 -21.8276  -6.6145  -5.9158  -5.7348  -4.5569
    -4.5000  -4.4778  -4.3042  -4.2302   3.4848   6.0727   7.2124   7.2627
     7.8993   8.0141   8.6794   8.7952   9.2302  10.7507

          k = 0.0000 0.4286 0.1896 (  6878 PWs)   bands (ev):

   -45.2338 -21.9294 -21.9067 -21.8270  -6.5603  -5.8731  -5.6703  -4.5327
    -4.5006  -4.4911  -4.2837  -4.2030   3.2703   6.0500   7.0647   7.3670
     7.4339   7.8957   8.5955   8.8083   9.1704  10.5124

          k = 0.0000 0.4286 0.3792 (  6895 PWs)   bands (ev):

   -45.2334 -21.9535 -21.9052 -21.8259  -6.5134  -5.7887  -5.5115  -4.5125
    -4.5015  -4.4870  -4.3316  -4.0971   2.9550   5.8847   6.5354   7.3350
     7.4393   7.8449   7.8666   8.8214   9.7562  10.0639

          k = 0.1429 0.1429 0.0000 (  6903 PWs)   bands (ev):

   -45.2349 -21.9166 -21.8456 -21.8453  -6.9947  -6.0125  -5.7763  -4.5061
    -4.4969  -4.4621  -4.3122  -4.1969   4.1131   6.6859   6.8574   7.1733
     8.2057   8.4550   8.9293   8.9823   9.3534   9.6080

          k = 0.1429 0.1429 0.1896 (  6898 PWs)   bands (ev):

   -45.2347 -21.9319 -21.8449 -21.8447  -6.8686  -5.9892  -5.7290  -4.5109
    -4.4967  -4.4607  -4.3059  -4.2157   3.7673   6.5729   6.6421   7.4104
     8.0852   8.2271   8.7534   9.0893   9.3819   9.6782

          k = 0.1429 0.1429 0.3792 (  6890 PWs)   bands (ev):

   -45.2343 -21.9564 -21.8438 -21.8436  -6.6596  -5.9504  -5.6469  -4.5296
    -4.4715  -4.4561  -4.3069  -4.2514   3.2940   6.3832   6.4109   7.1062
     8.0067   8.0305   8.6811   9.1655   9.4198  10.2292

          k = 0.1429 0.2857 0.0000 (  6885 PWs)   bands (ev):

   -45.2342 -21.9152 -21.8794 -21.8439  -6.7403  -5.9544  -5.7606  -4.5343
    -4.4904  -4.4598  -4.2941  -4.1932   3.6337   6.5348   6.9360   7.0821
     7.8627   8.2134   8.6878   9.0889   9.3102  10.0277

          k = 0.1429 0.2857 0.1896 (  6898 PWs)   bands (ev):

   -45.2340 -21.9302 -21.8787 -21.8433  -6.6376  -5.9454  -5.7093  -4.5193
    -4.4962  -4.4499  -4.2826  -4.1801   3.4636   6.3783   6.5403   7.1311
     7.6407   8.1433   8.7763   9.0593   9.3044   9.9980

          k = 0.1429 0.2857 0.3792 (  6896 PWs)   bands (ev):

   -45.2337 -21.9544 -21.8775 -21.8422  -6.4922  -5.9207  -5.6020  -4.5183
    -4.4781  -4.4180  -4.2922  -4.1499   3.1689   6.0224   6.4466   6.7924
     7.2201   7.9606   8.8195   9.1153   9.6059   9.8895

          k = 0.1429 0.4286 0.0000 (  6878 PWs)   bands (ev):

   -45.2337 -21.9139 -21.9066 -21.8427  -6.5172  -5.8935  -5.7745  -4.5445
    -4.4811  -4.4457  -4.2765  -4.2212   3.3404   6.0857   7.0124   7.4137
     7.4545   8.0487   8.4082   9.0866   9.3380  10.5538

          k = 0.1429 0.4286 0.1896 (  6891 PWs)   bands (ev):

   -45.2335 -21.9287 -21.9059 -21.8420  -6.4574  -5.8706  -5.7206  -4.5235
    -4.4842  -4.4330  -4.2529  -4.1830   3.2526   6.0544   6.4627   6.9372
     7.4995   8.2761   8.4374   9.0629   9.3166  10.1842

          k = 0.1429 0.4286 0.3792 (  6889 PWs)   bands (ev):

   -45.2332 -21.9527 -21.9045 -21.8409  -6.4104  -5.8228  -5.5742  -4.5129
    -4.4558  -4.4092  -4.2748  -4.0775   3.0743   5.8520   6.2743   6.4783
     6.8564   8.0998   8.7746   8.9481   9.3711   9.9728

          k = 0.2857 0.2857 0.0000 (  6886 PWs)   bands (ev):

   -45.2336 -21.9137 -21.8778 -21.8776  -6.5046  -5.8976  -5.7983  -4.5242
    -4.4859  -4.4162  -4.2344  -4.1885   3.2722   6.5296   6.6233   7.2884
     7.4413   7.7319   8.5258   9.0643   9.6201  10.0993

          k = 0.2857 0.2857 0.1896 (  6898 PWs)   bands (ev):

   -45.2334 -21.9286 -21.8772 -21.8769  -6.4055  -5.9166  -5.7604  -4.4993
    -4.4863  -4.3895  -4.2101  -4.1513   3.3029   6.2215   6.2330   6.6868
     7.3604   7.7455   8.9858   9.1913   9.6455   9.7342

          k = 0.2857 0.2857 0.3792 (  6900 PWs)   bands (ev):

   -45.2330 -21.9526 -21.8760 -21.8758  -6.2814  -5.9465  -5.6516  -4.4830
    -4.4596  -4.3329  -4.1781  -4.0956   3.2858   5.7506   5.8843   6.3797
     7.0300   7.2307   8.9230   9.5283   9.5921   9.7960

          k = 0.2857 0.4286 0.0000 (  6898 PWs)   bands (ev):

   -45.2331 -21.9124 -21.9047 -21.8763  -6.3131  -5.8488  -5.8263  -4.5166
    -4.4640  -4.3538  -4.2180  -4.1948   3.0142   6.1012   6.6496   7.1179
     7.5883   7.8025   8.0579   9.0755   9.7334  10.0162

          k = 0.2857 0.4286 0.1896 (  6878 PWs)   bands (ev):

   -45.2328 -21.9271 -21.9040 -21.8757  -6.2271  -5.8693  -5.8109  -4.4894
    -4.4576  -4.3085  -4.1828  -4.1384   3.1483   6.0149   6.1276   6.3358
     7.1036   7.8644   8.7801   9.2318   9.4370   9.8173

          k = 0.2857 0.4286 0.3792 (  6878 PWs)   bands (ev):

   -45.2325 -21.9510 -21.9028 -21.8746  -6.1739  -5.8943  -5.6906  -4.4618
    -4.4283  -4.2471  -4.1296  -4.0320   3.3583   5.5032   5.6430   6.0492
     6.6735   7.2204   8.1557   9.6533   9.7537   9.9831

          k = 0.4286 0.4286 0.0000 (  6910 PWs)   bands (ev):

   -45.2325 -21.9110 -21.9033 -21.9029  -6.1976  -5.8136  -5.8066  -4.5012
    -4.4179  -4.2820  -4.2345  -4.1302   2.7578   5.9510   6.3605   7.2940
     7.3969   7.7937   7.9714   8.8080   9.3543  10.1963

          k = 0.4286 0.4286 0.1896 (  6888 PWs)   bands (ev):

   -45.2323 -21.9256 -21.9026 -21.9025  -6.0667  -5.8611  -5.8534  -4.4715
    -4.4121  -4.2019  -4.1469  -4.0990   3.0031   5.9033   6.1169   6.1684
     6.5545   7.8341   8.4149   9.1429   9.1633  10.1884

          k = 0.4286 0.4286 0.3792 (  6885 PWs)   bands (ev):

   -45.2320 -21.9495 -21.9014 -21.9014  -5.9840  -5.9397  -5.7727  -4.4235
    -4.4065  -4.1050  -4.0129  -4.0088   3.5558   5.3068   5.4180   5.8294
     6.4701   6.7824   7.1022   9.9710   9.9917  10.1756

     highest occupied level (ev):    10.7507

!    total energy              =    -380.57767619 Ry
     estimated scf accuracy    <          2.8E-10 Ry

     The total energy is the sum of the following terms:
     one-electron contribution =     -80.36389151 Ry
     hartree contribution      =      70.15288295 Ry
     xc contribution           =    -102.66672689 Ry
     ewald contribution        =    -267.69994074 Ry

     convergence has been achieved in   4 iterations

     negative rho (up, down):  1.587E-02 0.000E+00

     Forces acting on atoms (cartesian axes, Ry/au):

     atom    1 type  1   force =     0.00000000    0.00000000   -0.00099139
     atom    2 type  2   force =     0.00000000    0.00000000   -0.00009437
     atom    3 type  3   force =     0.00000000    0.00000000    0.00035598
     atom    4 type  3   force =     0.00000000    0.00000000    0.00036489
     atom    5 type  3   force =     0.00000000    0.00000000    0.00036489

     Total force =     0.001177     Total SCF correction =     0.000037


     Computing stress (Cartesian axis) and pressure


     negative rho (up, down):  1.587E-02 0.000E+00
          total   stress  (Ry/bohr**3)                   (kbar)     P=       -3.72
  -0.00001883   0.00000000   0.00000000           -2.77        0.00        0.00
   0.00000000  -0.00001883   0.00000000            0.00       -2.77        0.00
   0.00000000   0.00000000  -0.00003817            0.00        0.00       -5.62

     Energy error            =      1.7E-06 Ry
     Gradient error          =      9.9E-04 Ry/Bohr

     bfgs converged in   2 scf cycles and   1 bfgs steps
     (criteria: energy <  1.0E-04 Ry, force <  1.0E-03 Ry/Bohr)

     End of BFGS Geometry Optimization

     Final energy             =    -380.5776761860 Ry

     File ./PTO2.bfgs deleted, as requested
Begin final coordinates

ATOMIC_POSITIONS (crystal)
Pb            0.0000000000        0.0000000000        1.0046582287
Ti            0.5000000000        0.5000000000        0.5387310954
O             0.5000000000        0.5000000000        0.1005167569
O             0.5000000000        0.0000000000        0.6116891035
O             0.0000000000        0.5000000000        0.6116891035
End final coordinates



     Writing all to output data dir ./PTO2.save/
 
     init_run     :     11.80s CPU     12.08s WALL (       1 calls)
     electrons    :   1352.38s CPU   1394.99s WALL (       5 calls)
     update_pot   :      1.64s CPU      1.66s WALL (       4 calls)
     forces       :     11.57s CPU     11.97s WALL (       5 calls)
     stress       :     78.76s CPU     79.92s WALL (       5 calls)

     Called by init_run:
     wfcinit      :      7.41s CPU      7.59s WALL (       1 calls)
     potinit      :      0.10s CPU      0.10s WALL (       1 calls)
     hinit0       :      3.59s CPU      3.61s WALL (       1 calls)

     Called by electrons:
     c_bands      :   1218.27s CPU   1254.29s WALL (      37 calls)
     sum_band     :    113.68s CPU    117.59s WALL (      37 calls)
     v_of_rho     :      1.05s CPU      1.07s WALL (      38 calls)
     newd         :     21.82s CPU     24.63s WALL (      38 calls)
     mix_rho      :      0.41s CPU      0.44s WALL (      37 calls)

     Called by c_bands:
     init_us_2    :     31.85s CPU     32.01s WALL (    2550 calls)
     init_us_2:cp :     31.76s CPU     31.96s WALL (    2550 calls)
     ccgdiagg     :   1086.10s CPU   1118.26s WALL (    1110 calls)
     wfcrot       :    122.49s CPU    124.53s WALL (     870 calls)

     Called by *cgdiagg:
     h_psi        :    811.77s CPU    831.10s WALL (   93757 calls)
     s_psi        :    205.20s CPU    215.03s WALL (  186644 calls)

     Called by h_psi:
     h_psi:calbec :    105.58s CPU    108.78s WALL (   93757 calls)
     vloc_psi     :    592.07s CPU    604.61s WALL (   93757 calls)
     add_vuspsi   :    105.57s CPU    110.19s WALL (   93757 calls)
     hs_1psi      :    809.52s CPU    830.22s WALL (   92887 calls)
     s_1psi       :    206.76s CPU    213.51s WALL (   92887 calls)

     General routines
     calbec       :    208.31s CPU    218.31s WALL (  188504 calls)
     fft          :      0.44s CPU      0.45s WALL (     200 calls)
     ffts         :      0.08s CPU      0.08s WALL (      37 calls)
     fftw         :    543.06s CPU    552.84s WALL (  249014 calls)
 
     Parallel routines
 
     PWSCF        :  24m20.02s CPU  25m 6.09s WALL

 
   This run was terminated on:   9:34:55  11Apr2022            

=------------------------------------------------------------------------------=
   JOB DONE.
=------------------------------------------------------------------------------=
