
     Program PWSCF v.7.0 starts on 11Apr2022 at  8: 8: 6 

     This program is part of the open-source Quantum ESPRESSO suite
     for quantum simulation of materials; please cite
         "P. Giannozzi et al., J. Phys.:Condens. Matter 21 395502 (2009);
         "P. Giannozzi et al., J. Phys.:Condens. Matter 29 465901 (2017);
         "P. Giannozzi et al., J. Chem. Phys. 152 154105 (2020);
          URL http://www.quantum-espresso.org", 
     in publications or presentations arising from this work. More details at
     http://www.quantum-espresso.org/quote

     Parallel version (MPI), running on     1 processors

     MPI processes distributed on     1 nodes
     91268 MiB available memory on the printing compute node when the environment starts
 
     Waiting for input...
     Reading input from standard input
Warning: card &CELL ignored
Warning: card  CELL_DYNAMICS = 'BFGS', ignored
Warning: card  PRESS=0.1D0, ignored
Warning: card / ignored

     Current dimensions of program PWSCF are:
     Max number of different atomic species (ntypx) = 10
     Max number of k-points (npk) =  40000
     Max angular momentum in pseudopotentials (lmaxx) =  4
     Message from routine setup:
     using ibrav=0 with symmetry is DISCOURAGED, use correct ibrav instead

     Subspace diagonalization in iterative solution of the eigenvalue problem:
     a serial algorithm will be used

 
     G-vector sticks info
     --------------------
     sticks:   dense  smooth     PW     G-vecs:    dense   smooth      PW
     Sum        1685    1685    481                54589    54589    8161
 
     Using Slab Decomposition
 


     bravais-lattice index     =            0
     lattice parameter (alat)  =       7.2864  a.u.
     unit-cell volume          =     404.0341 (a.u.)^3
     number of atoms/cell      =            5
     number of atomic types    =            3
     number of electrons       =        44.00
     number of Kohn-Sham states=           22
     kinetic-energy cutoff     =     100.0000  Ry
     charge density cutoff     =     400.0000  Ry
     scf convergence threshold =      1.0E-08
     mixing beta               =       0.7000
     number of iterations used =            8  plain     mixing
     energy convergence thresh.=      1.0E-04
     force convergence thresh. =      1.0E-03
     Exchange-correlation= SLA  PZ   NOGX NOGC
                           (   1   1   0   0   0   0   0)
     nstep                     =           50


     celldm(1)=   7.286406  celldm(2)=   0.000000  celldm(3)=   0.000000
     celldm(4)=   0.000000  celldm(5)=   0.000000  celldm(6)=   0.000000

     crystal axes: (cart. coord. in units of alat)
               a(1) = (   1.000000   0.000000   0.000000 )  
               a(2) = (   0.000000   1.000000   0.000000 )  
               a(3) = (   0.000000   0.000000   1.044427 )  

     reciprocal axes: (cart. coord. in units 2 pi/alat)
               b(1) = (  1.000000  0.000000  0.000000 )  
               b(2) = (  0.000000  1.000000  0.000000 )  
               b(3) = (  0.000000  0.000000  0.957463 )  


     PseudoPot. # 1 for Pb read from file:
     ./Pb_LDA.UPF
     MD5 check sum: 062a37469794d955244864f8fe2e5624
     Pseudo is Ultrasoft + core correction, Zval = 14.0
     Generated by new atomic code, or converted to UPF format
     Using radial grid of  899 points,  6 beta functions with: 
                l(1) =   0
                l(2) =   0
                l(3) =   1
                l(4) =   1
                l(5) =   2
                l(6) =   2
     Q(r) pseudized with  6 coefficients,  rinner =    1.000   1.000   1.000
                                                       1.000   1.000

     PseudoPot. # 2 for Ti read from file:
     ./Ti_LDA.UPF
     MD5 check sum: 0d9f225c038fe889ca2a701dcc8d72cb
     Pseudo is Ultrasoft + core correction, Zval = 12.0
     Generated by new atomic code, or converted to UPF format
     Using radial grid of  851 points,  6 beta functions with: 
                l(1) =   0
                l(2) =   0
                l(3) =   1
                l(4) =   1
                l(5) =   2
                l(6) =   2
     Q(r) pseudized with  6 coefficients,  rinner =    1.000   1.000   1.000
                                                       1.000   1.000

     PseudoPot. # 3 for O  read from file:
     ./O_LDA.UPF
     MD5 check sum: 194b818514d2a7dbb603bb78519a4f40
     Pseudo is Ultrasoft + core correction, Zval =  6.0
     Generated by new atomic code, or converted to UPF format
     Using radial grid of  737 points,  5 beta functions with: 
                l(1) =   0
                l(2) =   0
                l(3) =   1
                l(4) =   1
                l(5) =   2
     Q(r) pseudized with  8 coefficients,  rinner =    0.900   0.900   0.900
                                                       0.900   0.900

     atomic species   valence    mass     pseudopotential
        Pb            14.00   207.20000     Pb( 1.00)
        Ti            12.00    47.88000     Ti( 1.00)
        O              6.00    16.00000     O ( 1.00)

      8 Sym. Ops. (no inversion) found



   Cartesian axes

     site n.     atom                  positions (alat units)
         1           Pb  tau(   1) = (   0.0000000   0.0000000   1.0498476  )
         2           Ti  tau(   2) = (   0.5000000   0.5000000   0.5634811  )
         3           O   tau(   3) = (   0.5000000   0.5000000   0.1038982  )
         4           O   tau(   4) = (   0.5000000   0.0000000   0.6387205  )
         5           O   tau(   5) = (   0.0000000   0.5000000   0.6387205  )

     number of k points=    30
                       cart. coord. in units 2pi/alat
        k(    1) = (   0.0000000   0.0000000   0.0000000), wk =   0.0081633
        k(    2) = (   0.0000000   0.0000000   0.1914926), wk =   0.0163265
        k(    3) = (   0.0000000   0.0000000   0.3829853), wk =   0.0163265
        k(    4) = (   0.0000000   0.1428571   0.0000000), wk =   0.0326531
        k(    5) = (   0.0000000   0.1428571   0.1914926), wk =   0.0653061
        k(    6) = (   0.0000000   0.1428571   0.3829853), wk =   0.0653061
        k(    7) = (   0.0000000   0.2857143   0.0000000), wk =   0.0326531
        k(    8) = (   0.0000000   0.2857143   0.1914926), wk =   0.0653061
        k(    9) = (   0.0000000   0.2857143   0.3829853), wk =   0.0653061
        k(   10) = (   0.0000000   0.4285714   0.0000000), wk =   0.0326531
        k(   11) = (   0.0000000   0.4285714   0.1914926), wk =   0.0653061
        k(   12) = (   0.0000000   0.4285714   0.3829853), wk =   0.0653061
        k(   13) = (   0.1428571   0.1428571   0.0000000), wk =   0.0326531
        k(   14) = (   0.1428571   0.1428571   0.1914926), wk =   0.0653061
        k(   15) = (   0.1428571   0.1428571   0.3829853), wk =   0.0653061
        k(   16) = (   0.1428571   0.2857143   0.0000000), wk =   0.0653061
        k(   17) = (   0.1428571   0.2857143   0.1914926), wk =   0.1306122
        k(   18) = (   0.1428571   0.2857143   0.3829853), wk =   0.1306122
        k(   19) = (   0.1428571   0.4285714   0.0000000), wk =   0.0653061
        k(   20) = (   0.1428571   0.4285714   0.1914926), wk =   0.1306122
        k(   21) = (   0.1428571   0.4285714   0.3829853), wk =   0.1306122
        k(   22) = (   0.2857143   0.2857143   0.0000000), wk =   0.0326531
        k(   23) = (   0.2857143   0.2857143   0.1914926), wk =   0.0653061
        k(   24) = (   0.2857143   0.2857143   0.3829853), wk =   0.0653061
        k(   25) = (   0.2857143   0.4285714   0.0000000), wk =   0.0653061
        k(   26) = (   0.2857143   0.4285714   0.1914926), wk =   0.1306122
        k(   27) = (   0.2857143   0.4285714   0.3829853), wk =   0.1306122
        k(   28) = (   0.4285714   0.4285714   0.0000000), wk =   0.0326531
        k(   29) = (   0.4285714   0.4285714   0.1914926), wk =   0.0653061
        k(   30) = (   0.4285714   0.4285714   0.3829853), wk =   0.0653061

     Dense  grid:    54589 G-vectors     FFT dimensions: (  48,  48,  50)

     Estimated max dynamical RAM per process >     284.99 MB

     Check: negative core charge=   -0.000003

     Initial potential from superposition of free atoms

     starting charge      42.9982, renormalised to      44.0000

     negative rho (up, down):  1.704E-02 0.000E+00
     Starting wfcs are   31 randomized atomic wfcs

     total cpu time spent up to now is       14.1 secs

     Self-consistent Calculation

     iteration #  1     ecut=   100.00 Ry     beta= 0.70
     CG style diagonalization
     ethr =  1.00E-02,  avg # of iterations =  2.2

     negative rho (up, down):  1.435E-02 0.000E+00

     total cpu time spent up to now is       35.7 secs

     total energy              =    -380.06496048 Ry
     estimated scf accuracy    <       1.02190662 Ry

     iteration #  2     ecut=   100.00 Ry     beta= 0.70
     CG style diagonalization
     ethr =  2.32E-03,  avg # of iterations =  4.8

     negative rho (up, down):  1.506E-02 0.000E+00

     total cpu time spent up to now is       75.7 secs

     total energy              =    -379.79973042 Ry
     estimated scf accuracy    <       3.69885610 Ry

     iteration #  3     ecut=   100.00 Ry     beta= 0.70
     CG style diagonalization
     ethr =  2.32E-03,  avg # of iterations =  4.4

     negative rho (up, down):  1.564E-02 0.000E+00

     total cpu time spent up to now is      112.1 secs

     total energy              =    -380.54862258 Ry
     estimated scf accuracy    <       0.24068636 Ry

     iteration #  4     ecut=   100.00 Ry     beta= 0.70
     CG style diagonalization
     ethr =  5.47E-04,  avg # of iterations =  3.4

     negative rho (up, down):  1.567E-02 0.000E+00

     total cpu time spent up to now is      140.0 secs

     total energy              =    -380.56181076 Ry
     estimated scf accuracy    <       0.04768793 Ry

     iteration #  5     ecut=   100.00 Ry     beta= 0.70
     CG style diagonalization
     ethr =  1.08E-04,  avg # of iterations =  3.8

     negative rho (up, down):  1.567E-02 0.000E+00

     total cpu time spent up to now is      171.3 secs

     total energy              =    -380.57581167 Ry
     estimated scf accuracy    <       0.00504005 Ry

     iteration #  6     ecut=   100.00 Ry     beta= 0.70
     CG style diagonalization
     ethr =  1.15E-05,  avg # of iterations =  4.0

     negative rho (up, down):  1.566E-02 0.000E+00

     total cpu time spent up to now is      204.1 secs

     total energy              =    -380.57730628 Ry
     estimated scf accuracy    <       0.00699638 Ry

     iteration #  7     ecut=   100.00 Ry     beta= 0.70
     CG style diagonalization
     ethr =  1.15E-05,  avg # of iterations =  3.3

     negative rho (up, down):  1.567E-02 0.000E+00

     total cpu time spent up to now is      230.6 secs

     total energy              =    -380.57696896 Ry
     estimated scf accuracy    <       0.00227498 Ry

     iteration #  8     ecut=   100.00 Ry     beta= 0.70
     CG style diagonalization
     ethr =  5.17E-06,  avg # of iterations =  3.7

     negative rho (up, down):  1.569E-02 0.000E+00

     total cpu time spent up to now is      260.6 secs

     total energy              =    -380.57744654 Ry
     estimated scf accuracy    <       0.00001066 Ry

     iteration #  9     ecut=   100.00 Ry     beta= 0.70
     CG style diagonalization
     c_bands:  1 eigenvalues not converged
     c_bands:  1 eigenvalues not converged
     ethr =  2.42E-08,  avg # of iterations =  7.6

     negative rho (up, down):  1.572E-02 0.000E+00

     total cpu time spent up to now is      322.6 secs

     total energy              =    -380.57750211 Ry
     estimated scf accuracy    <       0.00001333 Ry

     iteration # 10     ecut=   100.00 Ry     beta= 0.70
     CG style diagonalization
     ethr =  2.42E-08,  avg # of iterations =  3.4

     negative rho (up, down):  1.582E-02 0.000E+00

     total cpu time spent up to now is      350.2 secs

     total energy              =    -380.57749926 Ry
     estimated scf accuracy    <       0.00000941 Ry

     iteration # 11     ecut=   100.00 Ry     beta= 0.70
     CG style diagonalization
     ethr =  2.14E-08,  avg # of iterations =  3.9

     negative rho (up, down):  1.582E-02 0.000E+00

     total cpu time spent up to now is      381.9 secs

     total energy              =    -380.57750137 Ry
     estimated scf accuracy    <       0.00000019 Ry

     iteration # 12     ecut=   100.00 Ry     beta= 0.70
     CG style diagonalization
     ethr =  4.42E-10,  avg # of iterations = 10.3

     negative rho (up, down):  1.582E-02 0.000E+00

     total cpu time spent up to now is      464.5 secs

     total energy              =    -380.57750287 Ry
     estimated scf accuracy    <       0.00000004 Ry

     iteration # 13     ecut=   100.00 Ry     beta= 0.70
     CG style diagonalization
     ethr =  8.18E-11,  avg # of iterations =  6.8

     negative rho (up, down):  1.583E-02 0.000E+00

     total cpu time spent up to now is      519.1 secs

     End of self-consistent calculation

          k = 0.0000 0.0000 0.0000 (  6853 PWs)   bands (ev):

   -45.0465 -21.7419 -21.6459 -21.6459  -7.0979  -5.9332  -5.6829  -4.3080
    -4.3080  -4.2694  -4.1566  -4.0270   4.9617   6.8014   6.8014   7.2111
     8.7906   8.7906   9.0485   9.3839   9.5246   9.5246

          k = 0.0000 0.0000 0.1915 (  6836 PWs)   bands (ev):

   -45.0463 -21.7595 -21.6452 -21.6452  -6.9502  -5.8893  -5.6298  -4.3211
    -4.3211  -4.2683  -4.1459  -4.0818   4.2945   6.8408   6.8408   7.5123
     8.5974   8.5974   8.9877   9.2747   9.6179   9.6179

          k = 0.0000 0.0000 0.3830 (  6808 PWs)   bands (ev):

   -45.0459 -21.7877 -21.6441 -21.6441  -6.6939  -5.8123  -5.5486  -4.3422
    -4.3422  -4.2665  -4.1766  -4.1298   3.6135   6.8038   6.8820   6.8820
     8.3987   8.3987   8.8936   9.7137   9.7137  10.4608

          k = 0.0000 0.1429 0.0000 (  6843 PWs)   bands (ev):

   -45.0462 -21.7413 -21.6614 -21.6453  -6.9892  -5.9070  -5.6601  -4.3274
    -4.3068  -4.2807  -4.1580  -4.0183   4.5610   6.8756   6.8841   7.2755
     8.7220   8.8050   9.0459   9.2354   9.2740   9.6450

          k = 0.0000 0.1429 0.1915 (  6831 PWs)   bands (ev):

   -45.0460 -21.7587 -21.6606 -21.6446  -6.8489  -5.8719  -5.6049  -4.3303
    -4.3203  -4.2799  -4.1503  -4.0536   4.0732   6.7349   6.9299   7.5599
     8.3517   8.5863   8.9765   9.1704   9.3579   9.8384

          k = 0.0000 0.1429 0.3830 (  6842 PWs)   bands (ev):

   -45.0456 -21.7868 -21.6594 -21.6434  -6.6123  -5.8100  -5.5138  -4.3418
    -4.3324  -4.2787  -4.1470  -4.1082   3.4930   6.4583   6.9774   7.1508
     8.0947   8.3902   9.0651   9.2086   9.4617  10.5651

          k = 0.0000 0.2857 0.0000 (  6825 PWs)   bands (ev):

   -45.0456 -21.7398 -21.6959 -21.6438  -6.7281  -5.8467  -5.6171  -4.3618
    -4.3062  -4.3037  -4.1555  -4.0174   3.9614   6.7199   7.1051   7.1261
     8.6022   8.6062   8.9263   8.9312   9.3585   9.9989

          k = 0.0000 0.2857 0.1915 (  6829 PWs)   bands (ev):

   -45.0453 -21.7570 -21.6950 -21.6431  -6.6168  -5.8220  -5.5531  -4.3429
    -4.3183  -4.3057  -4.1470  -4.0151   3.6646   6.5588   7.1693   7.1999
     8.1560   8.4200   8.6097   9.0172   9.3528  10.2452

          k = 0.0000 0.2857 0.3830 (  6841 PWs)   bands (ev):

   -45.0449 -21.7848 -21.6936 -21.6419  -6.4582  -5.7624  -5.4267  -4.3410
    -4.3058  -4.3053  -4.1684  -3.9884   3.2491   6.1940   7.0256   7.2290
     7.8071   8.1090   8.2850   9.0876   9.7405  10.3744

          k = 0.0000 0.4286 0.0000 (  6790 PWs)   bands (ev):

   -45.0450 -21.7384 -21.7235 -21.6427  -6.4965  -5.7821  -5.6106  -4.3846
    -4.3259  -4.3018  -4.1309  -4.0487   3.6316   6.2183   7.3738   7.3776
     8.0652   8.1425   8.8265   8.9603   9.4132  10.9187

          k = 0.0000 0.4286 0.1915 (  6806 PWs)   bands (ev):

   -45.0448 -21.7555 -21.7225 -21.6419  -6.4343  -5.7369  -5.5407  -4.3581
    -4.3265  -4.3166  -4.1054  -4.0226   3.4123   6.1958   7.2060   7.4892
     7.5666   8.0203   8.7433   8.9638   9.3487  10.6707

          k = 0.0000 0.4286 0.3830 (  6834 PWs)   bands (ev):

   -45.0444 -21.7830 -21.7208 -21.6407  -6.3816  -5.6470  -5.3645  -4.3404
    -4.3273  -4.3082  -4.1543  -3.9108   3.0889   6.0132   6.6501   7.4514
     7.5617   7.9744   7.9818   8.9675   9.9379  10.2194

          k = 0.1429 0.1429 0.0000 (  6819 PWs)   bands (ev):

   -45.0460 -21.7406 -21.6609 -21.6605  -6.8818  -5.8800  -5.6492  -4.3320
    -4.3208  -4.2872  -4.1425  -4.0101   4.2743   6.8054   7.0152   7.3391
     8.3689   8.5862   9.0865   9.1356   9.4864   9.7854

          k = 0.1429 0.1429 0.1915 (  6837 PWs)   bands (ev):

   -45.0457 -21.7580 -21.6601 -21.6598  -6.7471  -5.8548  -5.5945  -4.3361
    -4.3220  -4.2859  -4.1337  -4.0306   3.9239   6.6908   6.7729   7.5712
     8.2335   8.3556   8.8972   9.2451   9.5173   9.8546

          k = 0.1429 0.1429 0.3830 (  6831 PWs)   bands (ev):

   -45.0453 -21.7860 -21.6588 -21.6586  -6.5254  -5.8127  -5.4973  -4.3564
    -4.2957  -4.2808  -4.1307  -4.0699   3.4396   6.4954   6.5067   7.2347
     8.1468   8.1497   8.8184   9.3178   9.5567  10.4338

          k = 0.1429 0.2857 0.0000 (  6821 PWs)   bands (ev):

   -45.0453 -21.7391 -21.6951 -21.6592  -6.6256  -5.8196  -5.6334  -4.3614
    -4.3148  -4.2850  -4.1236  -4.0093   3.7756   6.6787   7.0832   7.2425
     8.0067   8.3685   8.8459   9.2335   9.4700  10.1893

          k = 0.1429 0.2857 0.1915 (  6828 PWs)   bands (ev):

   -45.0450 -21.7563 -21.6943 -21.6584  -6.5141  -5.8095  -5.5758  -4.3447
    -4.3217  -4.2749  -4.1093  -3.9965   3.6069   6.5167   6.6653   7.2722
     7.7815   8.2885   8.9280   9.2076   9.4545  10.1637

          k = 0.1429 0.2857 0.3830 (  6833 PWs)   bands (ev):

   -45.0446 -21.7840 -21.6928 -21.6571  -6.3583  -5.7824  -5.4531  -4.3445
    -4.3024  -4.2402  -4.1163  -3.9662   3.3081   6.1350   6.5589   6.9017
     7.3537   8.1014   8.9441   9.2533   9.7572  10.0753

          k = 0.1429 0.4286 0.0000 (  6804 PWs)   bands (ev):

   -45.0448 -21.7377 -21.7227 -21.6579  -6.4000  -5.7580  -5.6470  -4.3724
    -4.3056  -4.2718  -4.1046  -4.0405   3.4740   6.2307   7.1535   7.5711
     7.6014   8.2035   8.5656   9.2222   9.5155  10.7302

          k = 0.1429 0.4286 0.1915 (  6811 PWs)   bands (ev):

   -45.0445 -21.7548 -21.7217 -21.6571  -6.3312  -5.7337  -5.5890  -4.3491
    -4.3098  -4.2593  -4.0749  -4.0031   3.3882   6.1992   6.5837   7.0694
     7.6386   8.4229   8.5900   9.2157   9.4786  10.3462

          k = 0.1429 0.4286 0.3830 (  6818 PWs)   bands (ev):

   -45.0441 -21.7822 -21.7201 -21.6559  -6.2778  -5.6821  -5.4262  -4.3387
    -4.2787  -4.2340  -4.0965  -3.8913   3.2083   5.9760   6.3913   6.6015
     6.9530   8.2437   8.9148   9.0755   9.5292  10.1421

          k = 0.2857 0.2857 0.0000 (  6808 PWs)   bands (ev):

   -45.0446 -21.7376 -21.6936 -21.6932  -6.3901  -5.7596  -5.6673  -4.3524
    -4.3107  -4.2414  -4.0653  -4.0069   3.3940   6.6668   6.7788   7.4537
     7.5988   7.8819   8.6759   9.2394   9.7527  10.2713

          k = 0.2857 0.2857 0.1915 (  6814 PWs)   bands (ev):

   -45.0444 -21.7546 -21.6927 -21.6924  -6.2808  -5.7788  -5.6255  -4.3252
    -4.3116  -4.2141  -4.0380  -3.9680   3.4326   6.3449   6.3644   6.8307
     7.4995   7.8949   9.1605   9.3539   9.7808   9.8942

          k = 0.2857 0.2857 0.3830 (  6824 PWs)   bands (ev):

   -45.0440 -21.7821 -21.6913 -21.6911  -6.1463  -5.8092  -5.5024  -4.3083
    -4.2823  -4.1550  -4.0011  -3.9101   3.4233   5.8543   5.9974   6.4879
     7.1586   7.3710   9.0668   9.6872   9.7329   9.9493

          k = 0.2857 0.4286 0.0000 (  6822 PWs)   bands (ev):

   -45.0441 -21.7362 -21.7207 -21.6919  -6.1995  -5.7099  -5.6899  -4.3450
    -4.2891  -4.1793  -4.0404  -4.0252   3.1245   6.2462   6.7949   7.2734
     7.7506   7.9503   8.2152   9.2482   9.8758  10.2071

          k = 0.2857 0.4286 0.1915 (  6804 PWs)   bands (ev):

   -45.0438 -21.7531 -21.7198 -21.6912  -6.1008  -5.7306  -5.6750  -4.3151
    -4.2828  -4.1337  -4.0050  -3.9614   3.2670   6.1470   6.2598   6.4660
     7.2433   8.0038   8.9717   9.3974   9.6027   9.9546

          k = 0.2857 0.4286 0.3830 (  6822 PWs)   bands (ev):

   -45.0434 -21.7805 -21.7184 -21.6899  -6.0391  -5.7556  -5.5416  -4.2860
    -4.2502  -4.0720  -3.9476  -3.8461   3.4914   5.6087   5.7473   6.1830
     6.7793   7.3503   8.3058   9.8050   9.8909  10.1527

          k = 0.4286 0.4286 0.0000 (  6820 PWs)   bands (ev):

   -45.0436 -21.7347 -21.7192 -21.7191  -6.0874  -5.6711  -5.6635  -4.3298
    -4.2427  -4.1074  -4.0584  -3.9638   2.8538   6.0968   6.5037   7.4448
     7.5394   7.9534   8.1277   8.9825   9.5872  10.3318

          k = 0.4286 0.4286 0.1915 (  6827 PWs)   bands (ev):

   -45.0433 -21.7516 -21.7184 -21.7183  -5.9420  -5.7204  -5.7135  -4.2972
    -4.2365  -4.0246  -3.9661  -3.9289   3.1078   6.0459   6.2392   6.2913
     6.6902   7.9694   8.6223   9.3184   9.3365  10.3232

          k = 0.4286 0.4286 0.3830 (  6819 PWs)   bands (ev):

   -45.0429 -21.7790 -21.7170 -21.7170  -5.8470  -5.8023  -5.6237  -4.2445
    -4.2305  -3.9299  -3.8291  -3.8206   3.6844   5.4052   5.5111   5.9673
     6.6133   6.8740   7.2501  10.1417  10.1628  10.3096

     highest occupied level (ev):    10.9187

!    total energy              =    -380.57750296 Ry
     estimated scf accuracy    <          6.0E-09 Ry

     The total energy is the sum of the following terms:
     one-electron contribution =     -78.87936465 Ry
     hartree contribution      =      69.68529171 Ry
     xc contribution           =    -102.70040511 Ry
     ewald contribution        =    -268.68302492 Ry

     convergence has been achieved in  13 iterations

     negative rho (up, down):  1.583E-02 0.000E+00

     Forces acting on atoms (cartesian axes, Ry/au):

     atom    1 type  1   force =     0.00000000    0.00000000    0.00118008
     atom    2 type  2   force =     0.00000000    0.00000000    0.00699037
     atom    3 type  3   force =     0.00000000    0.00000000   -0.00756068
     atom    4 type  3   force =     0.00000000    0.00000000   -0.00030488
     atom    5 type  3   force =     0.00000000    0.00000000   -0.00030488

     Total force =     0.010373     Total SCF correction =     0.000120


     Computing stress (Cartesian axis) and pressure


     negative rho (up, down):  1.583E-02 0.000E+00
          total   stress  (Ry/bohr**3)                   (kbar)     P=       13.36
   0.00006670   0.00000000   0.00000000            9.81        0.00        0.00
   0.00000000   0.00006670   0.00000000            0.00        9.81        0.00
   0.00000000   0.00000000   0.00013903            0.00        0.00       20.45


     BFGS Geometry Optimization
     Energy error            =      0.0E+00 Ry
     Gradient error          =      7.6E-03 Ry/Bohr

     number of scf cycles    =   1
     number of bfgs steps    =   0

     energy             new  =    -380.5775029639 Ry

     new trust radius        =       0.0075606839 bohr
     new conv_thr            =       0.0000000100 Ry


ATOMIC_POSITIONS (crystal)
Pb            0.0000000000        0.0000000000        1.0053454750
Ti            0.5000000000        0.5000000000        0.5404309518
O             0.5000000000        0.5000000000        0.0984852267
O             0.5000000000        0.0000000000        0.6115113172
O             0.0000000000        0.5000000000        0.6115113172



     Writing config-only to output data dir ./PTO2.save/
     NEW-OLD atomic charge density approx. for the potential

     Check: negative core charge=   -0.000003

     negative rho (up, down):  1.580E-02 0.000E+00

     total cpu time spent up to now is      539.4 secs

     Self-consistent Calculation

     iteration #  1     ecut=   100.00 Ry     beta= 0.70
     CG style diagonalization
     ethr =  1.00E-06,  avg # of iterations =  4.9

     negative rho (up, down):  1.581E-02 0.000E+00

     total cpu time spent up to now is      582.0 secs

     total energy              =    -380.57753486 Ry
     estimated scf accuracy    <       0.00005379 Ry

     iteration #  2     ecut=   100.00 Ry     beta= 0.70
     CG style diagonalization
     ethr =  1.22E-07,  avg # of iterations =  4.8

     negative rho (up, down):  1.580E-02 0.000E+00

     total cpu time spent up to now is      620.6 secs

     total energy              =    -380.57754183 Ry
     estimated scf accuracy    <       0.00016564 Ry

     iteration #  3     ecut=   100.00 Ry     beta= 0.70
     CG style diagonalization
     ethr =  1.22E-07,  avg # of iterations =  4.4

     negative rho (up, down):  1.580E-02 0.000E+00

     total cpu time spent up to now is      655.7 secs

     total energy              =    -380.57757291 Ry
     estimated scf accuracy    <       0.00000782 Ry

     iteration #  4     ecut=   100.00 Ry     beta= 0.70
     CG style diagonalization
     ethr =  1.78E-08,  avg # of iterations =  3.9

     negative rho (up, down):  1.580E-02 0.000E+00

     total cpu time spent up to now is      687.1 secs

     total energy              =    -380.57757511 Ry
     estimated scf accuracy    <       0.00000135 Ry

     iteration #  5     ecut=   100.00 Ry     beta= 0.70
     CG style diagonalization
     ethr =  3.07E-09,  avg # of iterations =  4.5

     negative rho (up, down):  1.580E-02 0.000E+00

     total cpu time spent up to now is      723.5 secs

     total energy              =    -380.57757582 Ry
     estimated scf accuracy    <       0.00000028 Ry

     iteration #  6     ecut=   100.00 Ry     beta= 0.70
     CG style diagonalization
     ethr =  6.32E-10,  avg # of iterations =  3.9

     negative rho (up, down):  1.580E-02 0.000E+00

     total cpu time spent up to now is      755.3 secs

     total energy              =    -380.57757588 Ry
     estimated scf accuracy    <       0.00000004 Ry

     iteration #  7     ecut=   100.00 Ry     beta= 0.70
     CG style diagonalization
     ethr =  9.84E-11,  avg # of iterations =  4.9

     negative rho (up, down):  1.580E-02 0.000E+00

     total cpu time spent up to now is      794.7 secs

     total energy              =    -380.57757591 Ry
     estimated scf accuracy    <       0.00000002 Ry

     iteration #  8     ecut=   100.00 Ry     beta= 0.70
     CG style diagonalization
     ethr =  4.24E-11,  avg # of iterations =  4.4

     negative rho (up, down):  1.580E-02 0.000E+00

     total cpu time spent up to now is      830.1 secs

     End of self-consistent calculation

          k = 0.0000 0.0000 0.0000 (  6853 PWs)   bands (ev):

   -45.0628 -21.7463 -21.6630 -21.6630  -7.1008  -5.9389  -5.6787  -4.3063
    -4.3063  -4.2668  -4.1534  -4.0269   4.9651   6.7991   6.7991   7.2006
     8.8246   8.8246   9.0478   9.4100   9.5191   9.5191

          k = 0.0000 0.0000 0.1915 (  6836 PWs)   bands (ev):

   -45.0625 -21.7638 -21.6623 -21.6623  -6.9542  -5.8952  -5.6246  -4.3194
    -4.3194  -4.2657  -4.1426  -4.0816   4.3005   6.8424   6.8424   7.5043
     8.6208   8.6208   8.9872   9.2881   9.6137   9.6137

          k = 0.0000 0.0000 0.3830 (  6808 PWs)   bands (ev):

   -45.0621 -21.7920 -21.6611 -21.6611  -6.7004  -5.8186  -5.5415  -4.3405
    -4.3405  -4.2639  -4.1760  -4.1264   3.6241   6.7979   6.8915   6.8915
     8.4079   8.4079   8.8934   9.7092   9.7092  10.4601

          k = 0.0000 0.1429 0.0000 (  6843 PWs)   bands (ev):

   -45.0625 -21.7457 -21.6784 -21.6623  -6.9918  -5.9125  -5.6556  -4.3255
    -4.3051  -4.2781  -4.1553  -4.0182   4.5629   6.8730   6.8814   7.2716
     8.7398   8.8378   9.0494   9.2312   9.2819   9.6561

          k = 0.0000 0.1429 0.1915 (  6831 PWs)   bands (ev):

   -45.0622 -21.7631 -21.6777 -21.6616  -6.8527  -5.8775  -5.5995  -4.3285
    -4.3185  -4.2773  -4.1474  -4.0535   4.0776   6.7363   6.9309   7.5559
     8.3635   8.6082   8.9794   9.1772   9.3554   9.8401

          k = 0.0000 0.1429 0.3830 (  6842 PWs)   bands (ev):

   -45.0618 -21.7911 -21.6764 -21.6605  -6.6186  -5.8158  -5.5063  -4.3401
    -4.3306  -4.2760  -4.1442  -4.1075   3.5015   6.4649   6.9864   7.1458
     8.0997   8.3992   9.0600   9.2154   9.4575  10.5620

          k = 0.0000 0.2857 0.0000 (  6825 PWs)   bands (ev):

   -45.0618 -21.7443 -21.7129 -21.6609  -6.7304  -5.8513  -5.6121  -4.3598
    -4.3037  -4.3018  -4.1538  -4.0171   3.9623   6.7167   7.1010   7.1255
     8.6007   8.6074   8.9300   8.9581   9.3732  10.0073

          k = 0.0000 0.2857 0.1915 (  6829 PWs)   bands (ev):

   -45.0616 -21.7614 -21.7120 -21.6601  -6.6205  -5.8263  -5.5472  -4.3410
    -4.3166  -4.3031  -4.1450  -4.0149   3.6668   6.5585   7.1686   7.1993
     8.1547   8.4298   8.6128   9.0289   9.3599  10.2484

          k = 0.0000 0.2857 0.3830 (  6841 PWs)   bands (ev):

   -45.0611 -21.7891 -21.7106 -21.6589  -6.4642  -5.7667  -5.4186  -4.3393
    -4.3035  -4.3032  -4.1661  -3.9884   3.2535   6.2028   7.0170   7.2369
     7.8076   8.1027   8.2905   9.0882   9.7543  10.3698

          k = 0.0000 0.4286 0.0000 (  6790 PWs)   bands (ev):

   -45.0613 -21.7434 -21.7400 -21.6597  -6.4991  -5.7857  -5.6050  -4.3830
    -4.3233  -4.3001  -4.1302  -4.0476   3.6329   6.2090   7.3712   7.3769
     8.0600   8.1391   8.8260   8.9969   9.4298  10.9254

          k = 0.0000 0.4286 0.1915 (  6806 PWs)   bands (ev):

   -45.0610 -21.7599 -21.7395 -21.6589  -6.4385  -5.7402  -5.5336  -4.3565
    -4.3238  -4.3149  -4.1040  -4.0225   3.4137   6.1882   7.2070   7.4847
     7.5668   8.0244   8.7462   8.9857   9.3520  10.6778

          k = 0.0000 0.4286 0.3830 (  6834 PWs)   bands (ev):

   -45.0606 -21.7873 -21.7379 -21.6577  -6.3875  -5.6503  -5.3552  -4.3387
    -4.3247  -4.3066  -4.1527  -3.9110   3.0906   6.0161   6.6460   7.4504
     7.5700   7.9737   7.9745   8.9747   9.9431  10.2275

          k = 0.1429 0.1429 0.0000 (  6819 PWs)   bands (ev):

   -45.0622 -21.7450 -21.6779 -21.6776  -6.8841  -5.8854  -5.6446  -4.3300
    -4.3189  -4.2848  -4.1399  -4.0100   4.2754   6.8016   7.0116   7.3406
     8.3931   8.5865   9.1045   9.1374   9.4792   9.8062

          k = 0.1429 0.1429 0.1915 (  6837 PWs)   bands (ev):

   -45.0619 -21.7624 -21.6771 -21.6768  -6.7506  -5.8602  -5.5889  -4.3342
    -4.3201  -4.2835  -4.1310  -4.0305   3.9273   6.6925   6.7731   7.5716
     8.2446   8.3563   8.9147   9.2492   9.5125   9.8592

          k = 0.1429 0.1429 0.3830 (  6831 PWs)   bands (ev):

   -45.0615 -21.7903 -21.6758 -21.6756  -6.5313  -5.8183  -5.4896  -4.3543
    -4.2935  -4.2789  -4.1276  -4.0698   3.4468   6.5036   6.5116   7.2277
     8.1460   8.1571   8.8252   9.3220   9.5530  10.4303

          k = 0.1429 0.2857 0.0000 (  6821 PWs)   bands (ev):

   -45.0615 -21.7436 -21.7121 -21.6762  -6.6273  -5.8242  -5.6288  -4.3596
    -4.3129  -4.2826  -4.1215  -4.0090   3.7759   6.6727   7.0865   7.2381
     8.0069   8.3925   8.8422   9.2389   9.4734  10.2036

          k = 0.1429 0.2857 0.1915 (  6828 PWs)   bands (ev):

   -45.0613 -21.7607 -21.7113 -21.6754  -6.5172  -5.8139  -5.5700  -4.3428
    -4.3199  -4.2724  -4.1071  -3.9964   3.6086   6.5166   6.6659   7.2708
     7.7845   8.2906   8.9354   9.2124   9.4601  10.1676

          k = 0.1429 0.2857 0.3830 (  6833 PWs)   bands (ev):

   -45.0609 -21.7883 -21.7099 -21.6742  -6.3638  -5.7867  -5.4451  -4.3424
    -4.3002  -4.2382  -4.1139  -3.9663   3.3122   6.1432   6.5613   6.8968
     7.3486   8.0980   8.9597   9.2470   9.7696  10.0710

          k = 0.1429 0.4286 0.0000 (  6804 PWs)   bands (ev):

   -45.0610 -21.7427 -21.7392 -21.6749  -6.4014  -5.7615  -5.6426  -4.3707
    -4.3038  -4.2690  -4.1035  -4.0396   3.4744   6.2211   7.1588   7.5633
     7.5992   8.1975   8.5976   9.2224   9.5243  10.7363

          k = 0.1429 0.4286 0.1915 (  6811 PWs)   bands (ev):

   -45.0607 -21.7592 -21.7387 -21.6742  -6.3346  -5.7368  -5.5829  -4.3473
    -4.3081  -4.2562  -4.0735  -4.0028   3.3891   6.1918   6.5837   7.0704
     7.6400   8.4255   8.5912   9.2292   9.4806  10.3525

          k = 0.1429 0.4286 0.3830 (  6818 PWs)   bands (ev):

   -45.0603 -21.7866 -21.7371 -21.6729  -6.2831  -5.6854  -5.4178  -4.3366
    -4.2769  -4.2308  -4.0953  -3.8914   3.2098   5.9805   6.3886   6.5968
     6.9540   8.2373   8.9113   9.0894   9.5304  10.1524

          k = 0.2857 0.2857 0.0000 (  6808 PWs)   bands (ev):

   -45.0609 -21.7422 -21.7104 -21.7102  -6.3900  -5.7638  -5.6641  -4.3509
    -4.3086  -4.2392  -4.0626  -4.0067   3.3934   6.6573   6.7776   7.4482
     7.6077   7.9072   8.6614   9.2454   9.7501  10.2819

          k = 0.2857 0.2857 0.1915 (  6814 PWs)   bands (ev):

   -45.0606 -21.7591 -21.7097 -21.7094  -6.2825  -5.7830  -5.6205  -4.3237
    -4.3094  -4.2116  -4.0354  -3.9680   3.4328   6.3447   6.3668   6.8272
     7.4983   7.8945   9.1697   9.3550   9.7798   9.9012

          k = 0.2857 0.2857 0.3830 (  6824 PWs)   bands (ev):

   -45.0602 -21.7865 -21.7083 -21.7081  -6.1507  -5.8132  -5.4948  -4.3060
    -4.2805  -4.1521  -3.9988  -3.9103   3.4259   5.8593   5.9970   6.4889
     7.1521   7.3602   9.0742   9.6958   9.7279   9.9584

          k = 0.2857 0.4286 0.0000 (  6822 PWs)   bands (ev):

   -45.0603 -21.7411 -21.7373 -21.7089  -6.1972  -5.7122  -5.6899  -4.3435
    -4.2870  -4.1772  -4.0392  -4.0230   3.1236   6.2370   6.7863   7.2855
     7.7436   7.9772   8.2048   9.2495   9.8752  10.2073

          k = 0.2857 0.4286 0.1915 (  6804 PWs)   bands (ev):

   -45.0601 -21.7576 -21.7368 -21.7082  -6.1013  -5.7333  -5.6717  -4.3135
    -4.2806  -4.1307  -4.0036  -3.9604   3.2664   6.1443   6.2588   6.4647
     7.2396   8.0057   8.9707   9.4057   9.6110   9.9509

          k = 0.2857 0.4286 0.3830 (  6822 PWs)   bands (ev):

   -45.0597 -21.7848 -21.7354 -21.7069  -6.0431  -5.7587  -5.5345  -4.2838
    -4.2485  -4.0675  -3.9468  -3.8458   3.4920   5.6073   5.7536   6.1772
     6.7745   7.3409   8.3078   9.8163   9.8870  10.1627

          k = 0.4286 0.4286 0.0000 (  6820 PWs)   bands (ev):

   -45.0598 -21.7399 -21.7362 -21.7353  -6.0810  -5.6734  -5.6668  -4.3284
    -4.2404  -4.1067  -4.0582  -3.9591   2.8524   6.0900   6.4879   7.4605
     7.5590   7.9485   8.1195   8.9830   9.5844  10.3265

          k = 0.4286 0.4286 0.1915 (  6827 PWs)   bands (ev):

   -45.0596 -21.7561 -21.7354 -21.7353  -5.9373  -5.7235  -5.7143  -4.2957
    -4.2341  -4.0230  -3.9661  -3.9248   3.1063   6.0404   6.2386   6.2950
     6.6807   7.9700   8.6194   9.3249   9.3448  10.3179

          k = 0.4286 0.4286 0.3830 (  6819 PWs)   bands (ev):

   -45.0592 -21.7833 -21.7340 -21.7340  -5.8498  -5.8052  -5.6173  -4.2429
    -4.2280  -3.9246  -3.8277  -3.8208   3.6828   5.4072   5.5148   5.9617
     6.5971   6.8729   7.2499  10.1526  10.1722  10.3048

     highest occupied level (ev):    10.9254

!    total energy              =    -380.57757592 Ry
     estimated scf accuracy    <          2.1E-09 Ry

     The total energy is the sum of the following terms:
     one-electron contribution =     -78.81553731 Ry
     hartree contribution      =      69.64897378 Ry
     xc contribution           =    -102.69648419 Ry
     ewald contribution        =    -268.71452819 Ry

     convergence has been achieved in   8 iterations

     negative rho (up, down):  1.580E-02 0.000E+00

     Forces acting on atoms (cartesian axes, Ry/au):

     atom    1 type  1   force =     0.00000000    0.00000000    0.00202534
     atom    2 type  2   force =     0.00000000    0.00000000    0.00229004
     atom    3 type  3   force =     0.00000000    0.00000000   -0.00278499
     atom    4 type  3   force =     0.00000000    0.00000000   -0.00076520
     atom    5 type  3   force =     0.00000000    0.00000000   -0.00076520

     Total force =     0.004275     Total SCF correction =     0.000245


     Computing stress (Cartesian axis) and pressure


     negative rho (up, down):  1.580E-02 0.000E+00
          total   stress  (Ry/bohr**3)                   (kbar)     P=       11.07
   0.00006476   0.00000000   0.00000000            9.53        0.00        0.00
   0.00000000   0.00006476   0.00000000            0.00        9.53        0.00
   0.00000000   0.00000000   0.00009633            0.00        0.00       14.17

     Energy error            =      7.3E-05 Ry
     Gradient error          =      2.8E-03 Ry/Bohr

     number of scf cycles    =   2
     number of bfgs steps    =   1

     energy             old  =    -380.5775029639 Ry
     energy             new  =    -380.5775759179 Ry

     CASE: energy            _new < energy            _old

     new trust radius        =       0.0050425661 bohr
     new conv_thr            =            1.0E-10 Ry


ATOMIC_POSITIONS (crystal)
Pb            0.0000000000        0.0000000000        1.0057811937
Ti            0.5000000000        0.5000000000        0.5409840717
O             0.5000000000        0.5000000000        0.0978226131
O             0.5000000000        0.0000000000        0.6113482047
O             0.0000000000        0.5000000000        0.6113482047



     Writing config-only to output data dir ./PTO2.save/
     NEW-OLD atomic charge density approx. for the potential

     Check: negative core charge=   -0.000003

     negative rho (up, down):  1.572E-02 0.000E+00

     total cpu time spent up to now is      849.3 secs

     Self-consistent Calculation

     iteration #  1     ecut=   100.00 Ry     beta= 0.70
     CG style diagonalization
     ethr =  1.00E-06,  avg # of iterations =  4.0

     Threshold (ethr) on eigenvalues was too large:
     Diagonalizing with lowered threshold

     CG style diagonalization
     c_bands:  1 eigenvalues not converged
     c_bands:  1 eigenvalues not converged
     c_bands:  1 eigenvalues not converged
     c_bands:  1 eigenvalues not converged
     c_bands:  1 eigenvalues not converged
     c_bands:  1 eigenvalues not converged
     c_bands:  1 eigenvalues not converged
     c_bands:  1 eigenvalues not converged
     c_bands:  1 eigenvalues not converged
     c_bands:  1 eigenvalues not converged
     ethr =  4.09E-08,  avg # of iterations =  5.8

     negative rho (up, down):  1.573E-02 0.000E+00

     total cpu time spent up to now is      935.4 secs

     total energy              =    -380.57758397 Ry
     estimated scf accuracy    <       0.00001744 Ry

     iteration #  2     ecut=   100.00 Ry     beta= 0.70
     CG style diagonalization
     ethr =  3.96E-08,  avg # of iterations =  4.8

     negative rho (up, down):  1.573E-02 0.000E+00

     total cpu time spent up to now is      973.6 secs

     total energy              =    -380.57758609 Ry
     estimated scf accuracy    <       0.00004077 Ry

     iteration #  3     ecut=   100.00 Ry     beta= 0.70
     CG style diagonalization
     ethr =  3.96E-08,  avg # of iterations =  4.4

     negative rho (up, down):  1.573E-02 0.000E+00

     total cpu time spent up to now is     1009.0 secs

     total energy              =    -380.57759460 Ry
     estimated scf accuracy    <       0.00000351 Ry

     iteration #  4     ecut=   100.00 Ry     beta= 0.70
     CG style diagonalization
     ethr =  7.98E-09,  avg # of iterations =  3.7

     negative rho (up, down):  1.573E-02 0.000E+00

     total cpu time spent up to now is     1039.1 secs

     total energy              =    -380.57759532 Ry
     estimated scf accuracy    <       0.00000037 Ry

     iteration #  5     ecut=   100.00 Ry     beta= 0.70
     CG style diagonalization
     ethr =  8.51E-10,  avg # of iterations =  4.4

     negative rho (up, down):  1.573E-02 0.000E+00

     total cpu time spent up to now is     1074.6 secs

     total energy              =    -380.57759554 Ry
     estimated scf accuracy    <       0.00000005 Ry

     iteration #  6     ecut=   100.00 Ry     beta= 0.70
     CG style diagonalization
     ethr =  1.10E-10,  avg # of iterations =  4.7

     negative rho (up, down):  1.573E-02 0.000E+00

     total cpu time spent up to now is     1112.2 secs

     total energy              =    -380.57759556 Ry
     estimated scf accuracy    <       0.00000002 Ry

     iteration #  7     ecut=   100.00 Ry     beta= 0.70
     CG style diagonalization
     ethr =  4.28E-11,  avg # of iterations =  4.3

     negative rho (up, down):  1.573E-02 0.000E+00

     total cpu time spent up to now is     1146.4 secs

     total energy              =    -380.57759557 Ry
     estimated scf accuracy    <          4.6E-09 Ry

     iteration #  8     ecut=   100.00 Ry     beta= 0.70
     CG style diagonalization
     ethr =  1.05E-11,  avg # of iterations =  4.8

     negative rho (up, down):  1.573E-02 0.000E+00

     total cpu time spent up to now is     1184.7 secs

     total energy              =    -380.57759557 Ry
     estimated scf accuracy    <          2.1E-10 Ry

     iteration #  9     ecut=   100.00 Ry     beta= 0.70
     CG style diagonalization
     c_bands:  1 eigenvalues not converged
     ethr =  4.85E-13,  avg # of iterations =  8.5

     negative rho (up, down):  1.573E-02 0.000E+00

     total cpu time spent up to now is     1252.5 secs

     End of self-consistent calculation

          k = 0.0000 0.0000 0.0000 (  6853 PWs)   bands (ev):

   -45.0719 -21.7485 -21.6725 -21.6725  -7.1003  -5.9394  -5.6767  -4.3066
    -4.3066  -4.2670  -4.1523  -4.0296   4.9670   6.8000   6.8000   7.1907
     8.8456   8.8456   9.0492   9.4266   9.5189   9.5189

          k = 0.0000 0.0000 0.1915 (  6836 PWs)   bands (ev):

   -45.0717 -21.7660 -21.6718 -21.6718  -6.9541  -5.8957  -5.6223  -4.3198
    -4.3198  -4.2659  -4.1416  -4.0843   4.3031   6.8458   6.8458   7.4974
     8.6352   8.6352   8.9887   9.2966   9.6142   9.6142

          k = 0.0000 0.0000 0.3830 (  6808 PWs)   bands (ev):

   -45.0712 -21.7942 -21.6707 -21.6707  -6.7011  -5.8189  -5.5384  -4.3409
    -4.3409  -4.2640  -4.1789  -4.1255   3.6294   6.7930   6.9002   6.9002
     8.4130   8.4130   8.8950   9.7096   9.7096  10.4599

          k = 0.0000 0.1429 0.0000 (  6843 PWs)   bands (ev):

   -45.0716 -21.7479 -21.6879 -21.6718  -6.9912  -5.9127  -5.6533  -4.3258
    -4.3054  -4.2783  -4.1548  -4.0209   4.5638   6.8727   6.8821   7.2681
     8.7499   8.8578   9.0537   9.2319   9.2882   9.6641

          k = 0.0000 0.1429 0.1915 (  6831 PWs)   bands (ev):

   -45.0714 -21.7653 -21.6872 -21.6711  -6.8525  -5.8776  -5.5968  -4.3289
    -4.3189  -4.2775  -4.1468  -4.0562   4.0794   6.7391   6.9340   7.5527
     8.3707   8.6218   8.9826   9.1830   9.3567   9.8419

          k = 0.0000 0.1429 0.3830 (  6842 PWs)   bands (ev):

   -45.0709 -21.7933 -21.6859 -21.6700  -6.6192  -5.8158  -5.5029  -4.3406
    -4.3312  -4.2762  -4.1442  -4.1098   3.5055   6.4701   6.9949   7.1434
     8.1026   8.4044   9.0598   9.2209   9.4575  10.5599

          k = 0.0000 0.2857 0.0000 (  6825 PWs)   bands (ev):

   -45.0710 -21.7465 -21.7223 -21.6704  -6.7296  -5.8508  -5.6090  -4.3602
    -4.3040  -4.3022  -4.1545  -4.0196   3.9626   6.7166   7.1010   7.1246
     8.6008   8.6086   8.9316   8.9796   9.3833  10.0110

          k = 0.0000 0.2857 0.1915 (  6829 PWs)   bands (ev):

   -45.0707 -21.7637 -21.7215 -21.6697  -6.6202  -5.8257  -5.5437  -4.3414
    -4.3170  -4.3033  -4.1454  -4.0177   3.6674   6.5602   7.1708   7.1993
     8.1549   8.4367   8.6153   9.0379   9.3656  10.2496

          k = 0.0000 0.2857 0.3830 (  6841 PWs)   bands (ev):

   -45.0703 -21.7913 -21.7201 -21.6685  -6.4648  -5.7658  -5.4144  -4.3398
    -4.3042  -4.3034  -4.1665  -3.9910   3.2549   6.2099   7.0119   7.2446
     7.8086   8.1015   8.2948   9.0901   9.7636  10.3656

          k = 0.0000 0.4286 0.0000 (  6790 PWs)   bands (ev):

   -45.0704 -21.7505 -21.7446 -21.6692  -6.4984  -5.7845  -5.6009  -4.3837
    -4.3235  -4.3005  -4.1325  -4.0492   3.6333   6.2047   7.3699   7.3786
     8.0582   8.1387   8.8280   9.0207   9.4411  10.9279

          k = 0.0000 0.4286 0.1915 (  6806 PWs)   bands (ev):

   -45.0702 -21.7621 -21.7490 -21.6685  -6.4385  -5.7387  -5.5291  -4.3573
    -4.3241  -4.3153  -4.1051  -4.0251   3.4138   6.1850   7.2085   7.4847
     7.5682   8.0286   8.7488   9.0001   9.3553  10.6805

          k = 0.0000 0.4286 0.3830 (  6834 PWs)   bands (ev):

   -45.0698 -21.7895 -21.7474 -21.6672  -6.3882  -5.6485  -5.3501  -4.3391
    -4.3249  -4.3075  -4.1539  -3.9135   3.0902   6.0195   6.6440   7.4532
     7.5774   7.9703   7.9758   8.9796   9.9445  10.2327

          k = 0.1429 0.1429 0.0000 (  6819 PWs)   bands (ev):

   -45.0713 -21.7472 -21.6874 -21.6871  -6.8833  -5.8854  -5.6421  -4.3303
    -4.3192  -4.2851  -4.1396  -4.0127   4.2760   6.8014   7.0099   7.3419
     8.4080   8.5883   9.1156   9.1401   9.4772   9.8188

          k = 0.1429 0.1429 0.1915 (  6837 PWs)   bands (ev):

   -45.0711 -21.7646 -21.6866 -21.6864  -6.7502  -5.8602  -5.5860  -4.3346
    -4.3205  -4.2837  -4.1306  -4.0332   3.9288   6.6955   6.7746   7.5722
     8.2514   8.3581   8.9260   9.2535   9.5121   9.8615

          k = 0.1429 0.1429 0.3830 (  6831 PWs)   bands (ev):

   -45.0707 -21.7925 -21.6853 -21.6852  -6.5317  -5.8182  -5.4859  -4.3547
    -4.2940  -4.2794  -4.1271  -4.0726   3.4501   6.5106   6.5155   7.2247
     8.1454   8.1638   8.8299   9.3262   9.5536  10.4274

          k = 0.1429 0.2857 0.0000 (  6821 PWs)   bands (ev):

   -45.0707 -21.7459 -21.7215 -21.6857  -6.6262  -5.8236  -5.6258  -4.3601
    -4.3132  -4.2828  -4.1220  -4.0116   3.7763   6.6711   7.0898   7.2356
     8.0089   8.4065   8.8411   9.2438   9.4770  10.2113

          k = 0.1429 0.2857 0.1915 (  6828 PWs)   bands (ev):

   -45.0704 -21.7630 -21.7208 -21.6849  -6.5166  -5.8133  -5.5666  -4.3433
    -4.3203  -4.2726  -4.1074  -3.9991   3.6093   6.5183   6.6676   7.2710
     7.7872   8.2919   8.9408   9.2175   9.4651  10.1689

          k = 0.1429 0.2857 0.3830 (  6833 PWs)   bands (ev):

   -45.0700 -21.7905 -21.7194 -21.6837  -6.3640  -5.7860  -5.4410  -4.3426
    -4.3007  -4.2386  -4.1142  -3.9689   3.3138   6.1497   6.5648   6.8939
     7.3472   8.0969   8.9691   9.2463   9.7776  10.0673

          k = 0.1429 0.4286 0.0000 (  6804 PWs)   bands (ev):

   -45.0701 -21.7497 -21.7439 -21.6844  -6.4002  -5.7602  -5.6391  -4.3714
    -4.3042  -4.2691  -4.1054  -4.0414   3.4750   6.2166   7.1631   7.5592
     7.6001   8.1943   8.6172   9.2251   9.5308  10.7387

          k = 0.1429 0.4286 0.1915 (  6811 PWs)   bands (ev):

   -45.0699 -21.7614 -21.7482 -21.6837  -6.3341  -5.7353  -5.5789  -4.3480
    -4.3086  -4.2560  -4.0747  -4.0054   3.3894   6.1886   6.5852   7.0722
     7.6419   8.4272   8.5932   9.2390   9.4836  10.3547

          k = 0.1429 0.4286 0.3830 (  6818 PWs)   bands (ev):

   -45.0695 -21.7887 -21.7466 -21.6824  -6.2834  -5.6837  -5.4134  -4.3370
    -4.2775  -4.2304  -4.0967  -3.8938   3.2098   5.9848   6.3895   6.5953
     6.9549   8.2345   8.9115   9.0985   9.5287  10.1597

          k = 0.2857 0.2857 0.0000 (  6808 PWs)   bands (ev):

   -45.0700 -21.7445 -21.7198 -21.7197  -6.3881  -5.7628  -5.6613  -4.3516
    -4.3089  -4.2398  -4.0628  -4.0095   3.3942   6.6531   6.7787   7.4450
     7.6139   7.9215   8.6536   9.2488   9.7515  10.2869

          k = 0.2857 0.2857 0.1915 (  6814 PWs)   bands (ev):

   -45.0698 -21.7613 -21.7191 -21.7189  -6.2812  -5.7820  -5.6173  -4.3244
    -4.3097  -4.2119  -4.0356  -3.9707   3.4339   6.3457   6.3692   6.8271
     7.4971   7.8940   9.1757   9.3571   9.7820   9.9041

          k = 0.2857 0.2857 0.3830 (  6824 PWs)   bands (ev):

   -45.0693 -21.7887 -21.7178 -21.7176  -6.1503  -5.8124  -5.4911  -4.3061
    -4.2811  -4.1517  -3.9991  -3.9129   3.4277   5.8629   5.9992   6.4906
     7.1488   7.3537   9.0756   9.7021   9.7280   9.9650

          k = 0.2857 0.4286 0.0000 (  6822 PWs)   bands (ev):

   -45.0695 -21.7477 -21.7424 -21.7183  -6.1948  -5.7104  -5.6875  -4.3443
    -4.2874  -4.1782  -4.0410  -4.0238   3.1248   6.2328   6.7828   7.2926
     7.7403   7.9921   8.1996   9.2502   9.8767  10.2067

          k = 0.2857 0.4286 0.1915 (  6804 PWs)   bands (ev):

   -45.0692 -21.7598 -21.7463 -21.7176  -6.0997  -5.7316  -5.6688  -4.3143
    -4.2810  -4.1306  -4.0048  -3.9622   3.2678   6.1435   6.2589   6.4651
     7.2377   8.0062   8.9700   9.4118   9.6146   9.9516

          k = 0.2857 0.4286 0.3830 (  6822 PWs)   bands (ev):

   -45.0688 -21.7870 -21.7449 -21.7164  -6.0426  -5.7573  -5.5311  -4.2841
    -4.2491  -4.0661  -3.9481  -3.8478   3.4935   5.6083   5.7578   6.1749
     6.7718   7.3352   8.3051   9.8241   9.8879  10.1696

          k = 0.4286 0.4286 0.0000 (  6820 PWs)   bands (ev):

   -45.0690 -21.7465 -21.7457 -21.7404  -6.0778  -5.6712  -5.6647  -4.3292
    -4.2407  -4.1091  -4.0611  -3.9577   2.8543   6.0875   6.4791   7.4688
     7.5692   7.9468   8.1160   8.9827   9.5807  10.3266

          k = 0.4286 0.4286 0.1915 (  6827 PWs)   bands (ev):

   -45.0687 -21.7584 -21.7449 -21.7447  -5.9345  -5.7218  -5.7122  -4.2965
    -4.2343  -4.0242  -3.9687  -3.9238   3.1086   6.0384   6.2380   6.2969
     6.6751   7.9697   8.6150   9.3295   9.3503  10.3180

          k = 0.4286 0.4286 0.3830 (  6819 PWs)   bands (ev):

   -45.0683 -21.7855 -21.7436 -21.7436  -5.8485  -5.8039  -5.6146  -4.2437
    -4.2282  -3.9225  -3.8286  -3.8229   3.6866   5.4080   5.5163   5.9597
     6.5878   6.8716   7.2450  10.1599  10.1784  10.3051

     highest occupied level (ev):    10.9279

!    total energy              =    -380.57759557 Ry
     estimated scf accuracy    <          2.5E-11 Ry

     The total energy is the sum of the following terms:
     one-electron contribution =     -78.74546155 Ry
     hartree contribution      =      69.61128476 Ry
     xc contribution           =    -102.69352366 Ry
     ewald contribution        =    -268.74989513 Ry

     convergence has been achieved in   9 iterations

     negative rho (up, down):  1.573E-02 0.000E+00

     Forces acting on atoms (cartesian axes, Ry/au):

     atom    1 type  1   force =     0.00000000    0.00000000    0.00210313
     atom    2 type  2   force =     0.00000000    0.00000000   -0.00023303
     atom    3 type  3   force =     0.00000000    0.00000000   -0.00005380
     atom    4 type  3   force =     0.00000000    0.00000000   -0.00090815
     atom    5 type  3   force =     0.00000000    0.00000000   -0.00090815

     Total force =     0.002476     Total SCF correction =     0.000013


     Computing stress (Cartesian axis) and pressure


     negative rho (up, down):  1.573E-02 0.000E+00
          total   stress  (Ry/bohr**3)                   (kbar)     P=        9.42
   0.00006188   0.00000000   0.00000000            9.10        0.00        0.00
   0.00000000   0.00006188   0.00000000            0.00        9.10        0.00
   0.00000000   0.00000000   0.00006830            0.00        0.00       10.05

     Energy error            =      9.3E-05 Ry
     Gradient error          =      2.1E-03 Ry/Bohr

     number of scf cycles    =   3
     number of bfgs steps    =   1

     energy             old  =    -380.5775024817 Ry
     energy             new  =    -380.5775955745 Ry

     CASE: energy            _new < energy            _old


     WARNING: bfgs curvature condition failed, Theta= 0.784
     new trust radius        =       0.0138635750 bohr
     new conv_thr            =            1.0E-10 Ry


ATOMIC_POSITIONS (crystal)
Pb            0.0000000000        0.0000000000        1.0063959394
Ti            0.5000000000        0.5000000000        0.5426135314
O             0.5000000000        0.5000000000        0.0960008834
O             0.5000000000        0.0000000000        0.6110628206
O             0.0000000000        0.5000000000        0.6112111132



 %%%%%%%%%%%%%%%%%%%%%%%%%%%%%%%%%%%%%%%%%%%%%%%%%%%%%%%%%%%%%%%%%%%%%%%%%%%%%%
     Error in routine checkallsym (1):
     some of the original symmetry operations not satisfied
 %%%%%%%%%%%%%%%%%%%%%%%%%%%%%%%%%%%%%%%%%%%%%%%%%%%%%%%%%%%%%%%%%%%%%%%%%%%%%%

     stopping ...
