
     Program PWSCF v.7.0 starts on 14Mar2022 at 17: 9: 8 

     This program is part of the open-source Quantum ESPRESSO suite
     for quantum simulation of materials; please cite
         "P. Giannozzi et al., J. Phys.:Condens. Matter 21 395502 (2009);
         "P. Giannozzi et al., J. Phys.:Condens. Matter 29 465901 (2017);
         "P. Giannozzi et al., J. Chem. Phys. 152 154105 (2020);
          URL http://www.quantum-espresso.org", 
     in publications or presentations arising from this work. More details at
     http://www.quantum-espresso.org/quote

     Parallel version (MPI), running on     1 processors

     MPI processes distributed on     1 nodes
     91921 MiB available memory on the printing compute node when the environment starts
 
     Waiting for input...
     Reading input from standard input
Warning: card &CELL ignored
Warning: card  CELL_DYNAMICS = 'BFGS', ignored
Warning: card  PRESS=0.1D0, ignored
Warning: card / ignored
     Message from routine read_cards :
     DEPRECATED: no units specified in ATOMIC_POSITIONS card
     Message from routine read_cards :
     ATOMIC_POSITIONS: units set to alat

     Current dimensions of program PWSCF are:
     Max number of different atomic species (ntypx) = 10
     Max number of k-points (npk) =  40000
     Max angular momentum in pseudopotentials (lmaxx) =  4

     Subspace diagonalization in iterative solution of the eigenvalue problem:
     a serial algorithm will be used

 
     G-vector sticks info
     --------------------
     sticks:   dense  smooth     PW     G-vecs:    dense   smooth      PW
     Sum         253     253     85                 2685     2685     537
 
     Using Slab Decomposition
 


     bravais-lattice index     =            2
     lattice parameter (alat)  =       6.7400  a.u.
     unit-cell volume          =      76.5455 (a.u.)^3
     number of atoms/cell      =            2
     number of atomic types    =            1
     number of electrons       =         8.00
     number of Kohn-Sham states=            4
     kinetic-energy cutoff     =      40.0000  Ry
     charge density cutoff     =     160.0000  Ry
     scf convergence threshold =      1.0E-08
     mixing beta               =       0.7000
     number of iterations used =            8  plain     mixing
     Exchange-correlation= SLA  PZ   NOGX NOGC
                           (   1   1   0   0   0   0   0)

     celldm(1)=   6.740000  celldm(2)=   0.000000  celldm(3)=   0.000000
     celldm(4)=   0.000000  celldm(5)=   0.000000  celldm(6)=   0.000000

     crystal axes: (cart. coord. in units of alat)
               a(1) = (  -0.500000   0.000000   0.500000 )  
               a(2) = (   0.000000   0.500000   0.500000 )  
               a(3) = (  -0.500000   0.500000   0.000000 )  

     reciprocal axes: (cart. coord. in units 2 pi/alat)
               b(1) = ( -1.000000 -1.000000  1.000000 )  
               b(2) = (  1.000000  1.000000  1.000000 )  
               b(3) = ( -1.000000  1.000000 -1.000000 )  


     PseudoPot. # 1 for C  read from file:
     ../C_LDA.UPF
     MD5 check sum: 407c1fe918d93b14b177d5600f28733c
     Pseudo is Ultrasoft + core correction, Zval =  4.0
     Generated by new atomic code, or converted to UPF format
     Using radial grid of  721 points,  4 beta functions with: 
                l(1) =   0
                l(2) =   0
                l(3) =   1
                l(4) =   1
     Q(r) pseudized with  8 coefficients,  rinner =    1.100   1.100   1.100


     atomic species   valence    mass     pseudopotential
        C              4.00    12.01100     C ( 1.00)

     48 Sym. Ops., with inversion, found (24 have fractional translation)



   Cartesian axes

     site n.     atom                  positions (alat units)
         1           C   tau(   1) = (   0.0000000   0.0000000   0.0000000  )
         2           C   tau(   2) = (   0.2500000   0.2500000   0.2500000  )

     number of k points=    47
                       cart. coord. in units 2pi/alat
        k(    1) = (   0.0000000   0.0000000   0.0000000), wk =   0.0020000
        k(    2) = (  -0.1000000   0.1000000  -0.1000000), wk =   0.0160000
        k(    3) = (  -0.2000000   0.2000000  -0.2000000), wk =   0.0160000
        k(    4) = (  -0.3000000   0.3000000  -0.3000000), wk =   0.0160000
        k(    5) = (  -0.4000000   0.4000000  -0.4000000), wk =   0.0160000
        k(    6) = (   0.5000000  -0.5000000   0.5000000), wk =   0.0080000
        k(    7) = (   0.0000000   0.2000000   0.0000000), wk =   0.0120000
        k(    8) = (  -0.1000000   0.3000000  -0.1000000), wk =   0.0480000
        k(    9) = (  -0.2000000   0.4000000  -0.2000000), wk =   0.0480000
        k(   10) = (  -0.3000000   0.5000000  -0.3000000), wk =   0.0480000
        k(   11) = (   0.6000000  -0.4000000   0.6000000), wk =   0.0480000
        k(   12) = (   0.5000000  -0.3000000   0.5000000), wk =   0.0480000
        k(   13) = (   0.4000000  -0.2000000   0.4000000), wk =   0.0480000
        k(   14) = (   0.3000000  -0.1000000   0.3000000), wk =   0.0480000
        k(   15) = (   0.2000000   0.0000000   0.2000000), wk =   0.0240000
        k(   16) = (   0.0000000   0.4000000   0.0000000), wk =   0.0120000
        k(   17) = (  -0.1000000   0.5000000  -0.1000000), wk =   0.0480000
        k(   18) = (  -0.2000000   0.6000000  -0.2000000), wk =   0.0480000
        k(   19) = (   0.7000000  -0.3000000   0.7000000), wk =   0.0480000
        k(   20) = (   0.6000000  -0.2000000   0.6000000), wk =   0.0480000
        k(   21) = (   0.5000000  -0.1000000   0.5000000), wk =   0.0480000
        k(   22) = (   0.4000000   0.0000000   0.4000000), wk =   0.0240000
        k(   23) = (  -0.0000000   0.6000000  -0.0000000), wk =   0.0120000
        k(   24) = (  -0.1000000   0.7000000  -0.1000000), wk =   0.0480000
        k(   25) = (   0.8000000  -0.2000000   0.8000000), wk =   0.0480000
        k(   26) = (   0.7000000  -0.1000000   0.7000000), wk =   0.0480000
        k(   27) = (   0.6000000   0.0000000   0.6000000), wk =   0.0240000
        k(   28) = (   0.0000000   0.8000000   0.0000000), wk =   0.0120000
        k(   29) = (   0.9000000  -0.1000000   0.9000000), wk =   0.0480000
        k(   30) = (   0.8000000   0.0000000   0.8000000), wk =   0.0240000
        k(   31) = (   0.0000000  -1.0000000   0.0000000), wk =   0.0060000
        k(   32) = (  -0.2000000   0.4000000   0.0000000), wk =   0.0480000
        k(   33) = (  -0.3000000   0.5000000  -0.1000000), wk =   0.0960000
        k(   34) = (   0.6000000  -0.4000000   0.8000000), wk =   0.0960000
        k(   35) = (   0.5000000  -0.3000000   0.7000000), wk =   0.0480000
        k(   36) = (  -0.2000000   0.6000000   0.0000000), wk =   0.0480000
        k(   37) = (   0.7000000  -0.3000000   0.9000000), wk =   0.0960000
        k(   38) = (   0.6000000  -0.2000000   0.8000000), wk =   0.0960000
        k(   39) = (   0.5000000  -0.1000000   0.7000000), wk =   0.0960000
        k(   40) = (   0.4000000   0.0000000   0.6000000), wk =   0.0480000
        k(   41) = (   0.8000000  -0.2000000   1.0000000), wk =   0.0480000
        k(   42) = (   0.7000000  -0.1000000   0.9000000), wk =   0.0960000
        k(   43) = (   0.6000000   0.0000000   0.8000000), wk =   0.0480000
        k(   44) = (  -0.2000000  -1.0000000  -0.0000000), wk =   0.0240000
        k(   45) = (   0.6000000  -0.2000000   1.0000000), wk =   0.0480000
        k(   46) = (   0.5000000  -0.1000000   0.9000000), wk =   0.0480000
        k(   47) = (  -0.4000000  -1.0000000  -0.0000000), wk =   0.0240000

     Dense  grid:     2685 G-vectors     FFT dimensions: (  20,  20,  20)

     Estimated max dynamical RAM per process >       5.04 MB

     Initial potential from superposition of free atoms

     starting charge       7.9999, renormalised to       8.0000
     Starting wfcs are    8 randomized atomic wfcs

     total cpu time spent up to now is        1.1 secs

     Self-consistent Calculation

     iteration #  1     ecut=    40.00 Ry     beta= 0.70
     CG style diagonalization
     ethr =  1.00E-02,  avg # of iterations =  3.0

     total cpu time spent up to now is        1.8 secs

     total energy              =     -23.04022905 Ry
     estimated scf accuracy    <       0.13180554 Ry

     iteration #  2     ecut=    40.00 Ry     beta= 0.70
     CG style diagonalization
     ethr =  1.65E-03,  avg # of iterations =  3.6

     total cpu time spent up to now is        2.5 secs

     total energy              =     -23.05556524 Ry
     estimated scf accuracy    <       0.00142932 Ry

     iteration #  3     ecut=    40.00 Ry     beta= 0.70
     CG style diagonalization
     ethr =  1.79E-05,  avg # of iterations =  4.0

     total cpu time spent up to now is        3.3 secs

     total energy              =     -23.05601748 Ry
     estimated scf accuracy    <       0.00005036 Ry

     iteration #  4     ecut=    40.00 Ry     beta= 0.70
     CG style diagonalization
     ethr =  6.29E-07,  avg # of iterations =  4.1

     total cpu time spent up to now is        4.2 secs

     total energy              =     -23.05603869 Ry
     estimated scf accuracy    <       0.00000217 Ry

     iteration #  5     ecut=    40.00 Ry     beta= 0.70
     CG style diagonalization
     ethr =  2.71E-08,  avg # of iterations =  4.0

     total cpu time spent up to now is        5.0 secs

     total energy              =     -23.05603956 Ry
     estimated scf accuracy    <       0.00000003 Ry

     iteration #  6     ecut=    40.00 Ry     beta= 0.70
     CG style diagonalization
     ethr =  3.26E-10,  avg # of iterations =  4.5

     total cpu time spent up to now is        5.9 secs

     End of self-consistent calculation

          k = 0.0000 0.0000 0.0000 (   331 PWs)   bands (ev):

    -8.2167  13.0937  13.0937  13.0937

          k =-0.1000 0.1000-0.1000 (   329 PWs)   bands (ev):

    -7.9405  11.4373  12.6481  12.6481

          k =-0.2000 0.2000-0.2000 (   320 PWs)   bands (ev):

    -7.1163   8.2597  11.7749  11.7749

          k =-0.3000 0.3000-0.3000 (   326 PWs)   bands (ev):

    -5.7627   4.8802  10.9868  10.9868

          k =-0.4000 0.4000-0.4000 (   329 PWs)   bands (ev):

    -3.9433   1.7505  10.4770  10.4770

          k = 0.5000-0.5000 0.5000 (   332 PWs)   bands (ev):

    -2.3798  -0.2630  10.3030  10.3030

          k = 0.0000 0.2000 0.0000 (   327 PWs)   bands (ev):

    -7.8485  11.8680  11.8680  12.2552

          k =-0.1000 0.3000-0.1000 (   321 PWs)   bands (ev):

    -7.2072   9.3672  10.9028  11.7816

          k =-0.2000 0.4000-0.2000 (   328 PWs)   bands (ev):

    -6.0298   6.1187  10.1592  10.9163

          k =-0.3000 0.5000-0.3000 (   328 PWs)   bands (ev):

    -4.3571   2.9303   9.7848  10.0489

          k = 0.6000-0.4000 0.6000 (   329 PWs)   bands (ev):

    -2.4547   0.3043   9.4150   9.8144

          k = 0.5000-0.3000 0.5000 (   327 PWs)   bands (ev):

    -3.0546   1.0537   9.1200  10.2269

          k = 0.4000-0.2000 0.4000 (   324 PWs)   bands (ev):

    -4.9651   3.9725   9.2169  10.9565

          k = 0.3000-0.1000 0.3000 (   321 PWs)   bands (ev):

    -6.4807   7.2307   9.7231  11.8638

          k = 0.2000 0.0000 0.2000 (   325 PWs)   bands (ev):

    -7.4816  10.2030  10.7677  12.6215

          k = 0.0000 0.4000 0.0000 (   331 PWs)   bands (ev):

    -6.7511   9.8709   9.8709  10.0958

          k =-0.1000 0.5000-0.1000 (   327 PWs)   bands (ev):

    -5.7572   7.3344   9.0830   9.4937

          k =-0.2000 0.6000-0.2000 (   324 PWs)   bands (ev):

    -4.2558   4.3845   8.4386   8.6987

          k = 0.7000-0.3000 0.7000 (   325 PWs)   bands (ev):

    -2.3750   1.6355   7.4405   8.7641

          k = 0.6000-0.2000 0.6000 (   332 PWs)   bands (ev):

    -1.8095   0.9621   6.7675   9.2613

          k = 0.5000-0.1000 0.5000 (   325 PWs)   bands (ev):

    -3.6671   3.4970   6.5402  10.1089

          k = 0.4000 0.0000 0.4000 (   323 PWs)   bands (ev):

    -5.3155   6.2089   7.1012  11.1156

          k =-0.0000 0.6000-0.0000 (   323 PWs)   bands (ev):

    -4.9500   7.1461   8.2123   8.2123

          k =-0.1000 0.7000-0.1000 (   327 PWs)   bands (ev):

    -3.6317   5.1785   7.1200   7.7419

          k = 0.8000-0.2000 0.8000 (   326 PWs)   bands (ev):

    -1.8820   2.9916   5.5890   7.7388

          k = 0.7000-0.1000 0.7000 (   326 PWs)   bands (ev):

    -0.4899   1.5135   4.4451   8.1987

          k = 0.6000 0.0000 0.6000 (   329 PWs)   bands (ev):

    -1.9569   3.0814   4.2280   9.0507

          k = 0.0000 0.8000 0.0000 (   322 PWs)   bands (ev):

    -2.5006   3.8115   7.1596   7.1596

          k = 0.9000-0.1000 0.9000 (   328 PWs)   bands (ev):

    -0.9193   2.1878   6.0425   7.0434

          k = 0.8000 0.0000 0.8000 (   330 PWs)   bands (ev):

     0.5792   1.1421   4.2881   7.4073

          k = 0.0000-1.0000 0.0000 (   342 PWs)   bands (ev):

     0.4873   0.4873   6.8006   6.8006

          k =-0.2000 0.4000 0.0000 (   326 PWs)   bands (ev):

    -6.3893   8.1292   8.8794  11.2125

          k =-0.3000 0.5000-0.1000 (   327 PWs)   bands (ev):

    -5.0485   5.3090   8.0295  10.3159

          k = 0.6000-0.4000 0.8000 (   324 PWs)   bands (ev):

    -3.2547   2.3422   7.8031   9.4441

          k = 0.5000-0.3000 0.7000 (   326 PWs)   bands (ev):

    -1.7359   0.4098   7.8033   9.0552

          k =-0.2000 0.6000 0.0000 (   329 PWs)   bands (ev):

    -4.6004   6.1383   7.2921   8.7750

          k = 0.7000-0.3000 0.9000 (   327 PWs)   bands (ev):

    -2.9681   3.7949   6.4353   7.9215

          k = 0.6000-0.2000 0.8000 (   326 PWs)   bands (ev):

    -1.1502   1.4964   5.8028   7.7541

          k = 0.5000-0.1000 0.7000 (   330 PWs)   bands (ev):

    -1.7382   2.2333   5.3267   8.3319

          k = 0.4000 0.0000 0.6000 (   324 PWs)   bands (ev):

    -3.5725   4.5375   5.6046   9.3198

          k = 0.8000-0.2000 1.0000 (   326 PWs)   bands (ev):

    -2.1809   3.7307   6.3143   6.7941

          k = 0.7000-0.1000 0.9000 (   327 PWs)   bands (ev):

    -0.3989   2.1986   4.7328   6.6758

          k = 0.6000 0.0000 0.8000 (   333 PWs)   bands (ev):

    -0.0776   2.0102   3.7470   7.2952

          k =-0.2000-1.0000-0.0000 (   328 PWs)   bands (ev):

     0.7203   0.7203   6.0837   6.0837

          k = 0.6000-0.2000 1.0000 (   325 PWs)   bands (ev):

    -1.2770   3.0924   4.7702   6.7018

          k = 0.5000-0.1000 0.9000 (   326 PWs)   bands (ev):

     0.1213   1.8560   4.4665   6.1130

          k =-0.4000-1.0000-0.0000 (   326 PWs)   bands (ev):

     1.2118   1.2118   4.9428   4.9428

     highest occupied level (ev):    13.0937

!    total energy              =     -23.05603958 Ry
     estimated scf accuracy    <          3.2E-10 Ry

     The total energy is the sum of the following terms:
     one-electron contribution =       7.94587575 Ry
     hartree contribution      =       1.91681111 Ry
     xc contribution           =      -7.34342403 Ry
     ewald contribution        =     -25.57530241 Ry

     convergence has been achieved in   6 iterations

     Forces acting on atoms (cartesian axes, Ry/au):

     atom    1 type  1   force =    -0.00000000    0.00000000   -0.00000000
     atom    2 type  1   force =    -0.00000000    0.00000000    0.00000000

     Total force =     0.000000     Total SCF correction =     0.000000


     Computing stress (Cartesian axis) and pressure

          total   stress  (Ry/bohr**3)                   (kbar)     P=     -130.63
  -0.00088798   0.00000000  -0.00000000         -130.63        0.00       -0.00
   0.00000000  -0.00088798   0.00000000            0.00     -130.63        0.00
   0.00000000   0.00000000  -0.00088798            0.00        0.00     -130.63


     Writing all to output data dir ./Diamond.save/
 
     init_run     :      0.64s CPU      0.68s WALL (       1 calls)
     electrons    :      4.39s CPU      4.85s WALL (       1 calls)
     forces       :      0.03s CPU      0.03s WALL (       1 calls)
     stress       :      0.18s CPU      0.18s WALL (       1 calls)

     Called by init_run:
     wfcinit      :      0.32s CPU      0.34s WALL (       1 calls)
     potinit      :      0.00s CPU      0.01s WALL (       1 calls)
     hinit0       :      0.30s CPU      0.31s WALL (       1 calls)

     Called by electrons:
     c_bands      :      3.85s CPU      4.25s WALL (       6 calls)
     sum_band     :      0.49s CPU      0.53s WALL (       6 calls)
     v_of_rho     :      0.01s CPU      0.02s WALL (       7 calls)
     newd         :      0.03s CPU      0.03s WALL (       7 calls)
     mix_rho      :      0.01s CPU      0.01s WALL (       6 calls)

     Called by c_bands:
     init_us_2    :      0.15s CPU      0.17s WALL (     705 calls)
     init_us_2:cp :      0.14s CPU      0.16s WALL (     705 calls)
     ccgdiagg     :      2.97s CPU      3.30s WALL (     282 calls)
     wfcrot       :      1.04s CPU      1.10s WALL (     282 calls)

     Called by *cgdiagg:
     h_psi        :      3.31s CPU      3.61s WALL (    3671 calls)
     s_psi        :      0.14s CPU      0.16s WALL (    7060 calls)

     Called by h_psi:
     h_psi:calbec :      0.13s CPU      0.14s WALL (    3671 calls)
     vloc_psi     :      2.96s CPU      3.21s WALL (    3671 calls)
     add_vuspsi   :      0.08s CPU      0.09s WALL (    3671 calls)
     hs_1psi      :      2.62s CPU      2.89s WALL (    3389 calls)
     s_1psi       :      0.24s CPU      0.26s WALL (    3389 calls)

     General routines
     calbec       :      0.16s CPU      0.18s WALL (    7577 calls)
     fft          :      0.02s CPU      0.03s WALL (      36 calls)
     ffts         :      0.00s CPU      0.00s WALL (       6 calls)
     fftw         :      3.02s CPU      3.28s WALL (   10538 calls)
 
     Parallel routines
 
     PWSCF        :      5.59s CPU      6.55s WALL

 
   This run was terminated on:  17: 9:15  14Mar2022            

=------------------------------------------------------------------------------=
   JOB DONE.
=------------------------------------------------------------------------------=
