
     Program PWSCF v.7.0 starts on 18Mar2022 at 10: 2: 7 

     This program is part of the open-source Quantum ESPRESSO suite
     for quantum simulation of materials; please cite
         "P. Giannozzi et al., J. Phys.:Condens. Matter 21 395502 (2009);
         "P. Giannozzi et al., J. Phys.:Condens. Matter 29 465901 (2017);
         "P. Giannozzi et al., J. Chem. Phys. 152 154105 (2020);
          URL http://www.quantum-espresso.org", 
     in publications or presentations arising from this work. More details at
     http://www.quantum-espresso.org/quote

     Parallel version (MPI), running on     1 processors

     MPI processes distributed on     1 nodes
     89684 MiB available memory on the printing compute node when the environment starts
 
     Waiting for input...
     Reading input from standard input
Warning: card &CELL ignored
Warning: card  CELL_DYNAMICS = 'BFGS', ignored
Warning: card  PRESS=0.1D0, ignored
Warning: card / ignored

     Current dimensions of program PWSCF are:
     Max number of different atomic species (ntypx) = 10
     Max number of k-points (npk) =  40000
     Max angular momentum in pseudopotentials (lmaxx) =  4
     Message from routine setup:
     using ibrav=0 with symmetry is DISCOURAGED, use correct ibrav instead

     Subspace diagonalization in iterative solution of the eigenvalue problem:
     a serial algorithm will be used

 
     G-vector sticks info
     --------------------
     sticks:   dense  smooth     PW     G-vecs:    dense   smooth      PW
     Sum         433     433    151                 5893     5893    1185
 
     Using Slab Decomposition
 


     bravais-lattice index     =            0
     lattice parameter (alat)  =      10.1900  a.u.
     unit-cell volume          =     263.5970 (a.u.)^3
     number of atoms/cell      =            2
     number of atomic types    =            1
     number of electrons       =         8.00
     number of Kohn-Sham states=            4
     kinetic-energy cutoff     =      30.0000  Ry
     charge density cutoff     =     120.0000  Ry
     scf convergence threshold =      1.0E-08
     mixing beta               =       0.7000
     number of iterations used =            8  plain     mixing
     energy convergence thresh.=      1.0E-04
     force convergence thresh. =      1.0E-03
     Exchange-correlation= SLA  PZ   NOGX NOGC
                           (   1   1   0   0   0   0   0)
     nstep                     =           50


     celldm(1)=  10.190000  celldm(2)=   0.000000  celldm(3)=   0.000000
     celldm(4)=   0.000000  celldm(5)=   0.000000  celldm(6)=   0.000000

     crystal axes: (cart. coord. in units of alat)
               a(1) = (  -0.500000   0.001500   0.500000 )  
               a(2) = (   0.001000   0.500000   0.500000 )  
               a(3) = (  -0.498500   0.498500   0.000000 )  

     reciprocal axes: (cart. coord. in units 2 pi/alat)
               b(1) = ( -1.000500 -1.000500  1.002501 )  
               b(2) = (  1.000500  1.000500  0.997499 )  
               b(3) = ( -1.000500  1.005518 -1.003517 )  


     PseudoPot. # 1 for Si read from file:
     ./Si_LDA.UPF
     MD5 check sum: b5ade7b37ee992b02096e360e546dc2d
     Pseudo is Ultrasoft + core correction, Zval =  4.0
     Generated by new atomic code, or converted to UPF format
     Using radial grid of  899 points,  6 beta functions with: 
                l(1) =   0
                l(2) =   0
                l(3) =   1
                l(4) =   1
                l(5) =   2
                l(6) =   2
     Q(r) pseudized with  8 coefficients,  rinner =    0.900   0.900   0.900
                                                       0.900   0.900

     atomic species   valence    mass     pseudopotential
        Si             4.00    28.08550     Si( 1.00)

      2 Sym. Ops., with inversion, found ( 1 have fractional translation)



   Cartesian axes

     site n.     atom                  positions (alat units)
         1           Si  tau(   1) = (   0.0000000   0.0000000   0.0000000  )
         2           Si  tau(   2) = (  -0.2493750   0.2500000   0.2500000  )

     number of k points=   260

     Number of k-points >= 100: set verbosity='high' to print them.

     Dense  grid:     5893 G-vectors     FFT dimensions: (  32,  32,  32)

     Estimated max dynamical RAM per process >      35.70 MB

     Initial potential from superposition of free atoms

     starting charge       7.9988, renormalised to       8.0000
     Starting wfcs are    8 randomized atomic wfcs

     total cpu time spent up to now is        6.1 secs

     Self-consistent Calculation

     iteration #  1     ecut=    30.00 Ry     beta= 0.70
     CG style diagonalization
     ethr =  1.00E-02,  avg # of iterations =  3.0

     Threshold (ethr) on eigenvalues was too large:
     Diagonalizing with lowered threshold

     CG style diagonalization
     ethr =  7.42E-04,  avg # of iterations =  2.0

     total cpu time spent up to now is       18.1 secs

     total energy              =     -19.25641825 Ry
     estimated scf accuracy    <       0.06023461 Ry

     iteration #  2     ecut=    30.00 Ry     beta= 0.70
     CG style diagonalization
     ethr =  7.53E-04,  avg # of iterations =  3.0

     total cpu time spent up to now is       24.6 secs

     total energy              =     -19.25952254 Ry
     estimated scf accuracy    <       0.00196897 Ry

     iteration #  3     ecut=    30.00 Ry     beta= 0.70
     CG style diagonalization
     ethr =  2.46E-05,  avg # of iterations =  4.2

     total cpu time spent up to now is       33.0 secs

     total energy              =     -19.26011320 Ry
     estimated scf accuracy    <       0.00007244 Ry

     iteration #  4     ecut=    30.00 Ry     beta= 0.70
     CG style diagonalization
     ethr =  9.05E-07,  avg # of iterations =  4.3

     total cpu time spent up to now is       41.6 secs

     total energy              =     -19.26014955 Ry
     estimated scf accuracy    <       0.00001540 Ry

     iteration #  5     ecut=    30.00 Ry     beta= 0.70
     CG style diagonalization
     ethr =  1.93E-07,  avg # of iterations =  4.0

     total cpu time spent up to now is       49.6 secs

     total energy              =     -19.26015247 Ry
     estimated scf accuracy    <       0.00000004 Ry

     iteration #  6     ecut=    30.00 Ry     beta= 0.70
     CG style diagonalization
     ethr =  5.57E-10,  avg # of iterations =  5.8

     total cpu time spent up to now is       60.9 secs

     End of self-consistent calculation

     Number of k-points >= 100: set verbosity='high' to print the bands.

     highest occupied level (ev):     6.2843

!    total energy              =     -19.26015267 Ry
     estimated scf accuracy    <          4.5E-09 Ry

     The total energy is the sum of the following terms:
     one-electron contribution =       5.23351448 Ry
     hartree contribution      =       1.09381732 Ry
     xc contribution           =      -8.65139702 Ry
     ewald contribution        =     -16.93608745 Ry

     convergence has been achieved in   6 iterations

     Forces acting on atoms (cartesian axes, Ry/au):

     atom    1 type  1   force =    -0.00120414    0.00021650   -0.00100866
     atom    2 type  1   force =     0.00120414   -0.00021650    0.00100866

     Total force =     0.002242     Total SCF correction =     0.000002


     Computing stress (Cartesian axis) and pressure

          total   stress  (Ry/bohr**3)                   (kbar)     P=        7.94
   0.00004960  -0.00001835   0.00000378            7.30       -2.70        0.56
  -0.00001835   0.00006601  -0.00002202           -2.70        9.71       -3.24
   0.00000378  -0.00002202   0.00004637            0.56       -3.24        6.82


     BFGS Geometry Optimization
     Energy error            =      0.0E+00 Ry
     Gradient error          =      1.2E-03 Ry/Bohr

     number of scf cycles    =   1
     number of bfgs steps    =   0

     energy             new  =     -19.2601526728 Ry

     new trust radius        =       0.0015856323 bohr
     new conv_thr            =       0.0000000100 Ry


ATOMIC_POSITIONS (crystal)
Si           -0.0000022614       -0.0001957094        0.0002389250
Si            0.2500022614        0.2501957094        0.2497610750



     Writing config-only to output data dir ./Si_elastic_isotropic.save/
     NEW-OLD atomic charge density approx. for the potential

     total cpu time spent up to now is       65.9 secs

     Self-consistent Calculation

     iteration #  1     ecut=    30.00 Ry     beta= 0.70
     CG style diagonalization
     ethr =  1.00E-06,  avg # of iterations =  2.1

     Threshold (ethr) on eigenvalues was too large:
     Diagonalizing with lowered threshold

     CG style diagonalization
     c_bands:  1 eigenvalues not converged
     c_bands:  1 eigenvalues not converged
     c_bands:  1 eigenvalues not converged
     c_bands:  1 eigenvalues not converged
     c_bands:  1 eigenvalues not converged
     c_bands:  1 eigenvalues not converged
     c_bands:  1 eigenvalues not converged
     c_bands:  1 eigenvalues not converged
     c_bands:  1 eigenvalues not converged
     c_bands:  1 eigenvalues not converged
     c_bands:  1 eigenvalues not converged
     c_bands:  1 eigenvalues not converged
     c_bands:  1 eigenvalues not converged
     c_bands:  1 eigenvalues not converged
     ethr =  8.78E-10,  avg # of iterations =  6.6

     total cpu time spent up to now is       84.0 secs

     total energy              =     -19.26015675 Ry
     estimated scf accuracy    <       0.00000009 Ry

     iteration #  2     ecut=    30.00 Ry     beta= 0.70
     CG style diagonalization
     ethr =  1.11E-09,  avg # of iterations =  3.1

     total cpu time spent up to now is       90.6 secs

     End of self-consistent calculation

     Number of k-points >= 100: set verbosity='high' to print the bands.

     highest occupied level (ev):     6.2898

!    total energy              =     -19.26015676 Ry
     estimated scf accuracy    <          4.8E-09 Ry

     The total energy is the sum of the following terms:
     one-electron contribution =       5.23354914 Ry
     hartree contribution      =       1.09381844 Ry
     xc contribution           =      -8.65140062 Ry
     ewald contribution        =     -16.93612372 Ry

     convergence has been achieved in   2 iterations

     Forces acting on atoms (cartesian axes, Ry/au):

     atom    1 type  1   force =    -0.00051795    0.00008661   -0.00043362
     atom    2 type  1   force =     0.00051795   -0.00008661    0.00043362

     Total force =     0.000963     Total SCF correction =     0.000010


     Computing stress (Cartesian axis) and pressure

          total   stress  (Ry/bohr**3)                   (kbar)     P=        7.94
   0.00004962  -0.00001525   0.00000305            7.30       -2.24        0.45
  -0.00001525   0.00006603  -0.00001830           -2.24        9.71       -2.69
   0.00000305  -0.00001830   0.00004637            0.45       -2.69        6.82

     Energy error            =      4.1E-06 Ry
     Gradient error          =      5.2E-04 Ry/Bohr

     bfgs converged in   2 scf cycles and   1 bfgs steps
     (criteria: energy <  1.0E-04 Ry, force <  1.0E-03 Ry/Bohr)

     End of BFGS Geometry Optimization

     Final energy             =     -19.2601567564 Ry

     File ./Si_elastic_isotropic.bfgs deleted, as requested
Begin final coordinates

ATOMIC_POSITIONS (crystal)
Si           -0.0000022614       -0.0001957094        0.0002389250
Si            0.2500022614        0.2501957094        0.2497610750
End final coordinates



     Writing all to output data dir ./Si_elastic_isotropic.save/
 
     init_run     :      3.58s CPU      4.21s WALL (       1 calls)
     electrons    :     69.33s CPU     79.48s WALL (       2 calls)
     update_pot   :      0.12s CPU      0.12s WALL (       1 calls)
     forces       :      1.29s CPU      1.48s WALL (       2 calls)
     stress       :      6.98s CPU      7.08s WALL (       2 calls)

     Called by init_run:
     wfcinit      :      2.76s CPU      2.98s WALL (       1 calls)
     potinit      :      0.03s CPU      0.08s WALL (       1 calls)
     hinit0       :      0.69s CPU      0.83s WALL (       1 calls)

     Called by electrons:
     c_bands      :     60.57s CPU     70.23s WALL (      10 calls)
     sum_band     :      8.36s CPU      8.72s WALL (      10 calls)
     v_of_rho     :      0.07s CPU      0.10s WALL (      10 calls)
     newd         :      0.41s CPU      0.46s WALL (      10 calls)
     mix_rho      :      0.01s CPU      0.02s WALL (      10 calls)

     Called by c_bands:
     init_us_2    :      4.66s CPU      5.28s WALL (    6500 calls)
     init_us_2:cp :      4.52s CPU      5.16s WALL (    6500 calls)
     ccgdiagg     :     50.20s CPU     54.62s WALL (    2600 calls)
     wfcrot       :      9.73s CPU     10.32s WALL (    1820 calls)

     Called by *cgdiagg:
     h_psi        :     48.16s CPU     51.84s WALL (   35061 calls)
     s_psi        :      3.87s CPU      4.35s WALL (   68302 calls)

     Called by h_psi:
     h_psi:calbec :      4.29s CPU      4.55s WALL (   35061 calls)
     vloc_psi     :     39.37s CPU     42.44s WALL (   35061 calls)
     add_vuspsi   :      2.65s CPU      2.89s WALL (   35061 calls)
     hs_1psi      :     43.22s CPU     46.80s WALL (   33241 calls)
     s_1psi       :      4.88s CPU      5.38s WALL (   33241 calls)

     General routines
     calbec       :      6.35s CPU      7.00s WALL (   73502 calls)
     fft          :      0.03s CPU      0.05s WALL (      59 calls)
     ffts         :      0.00s CPU      0.00s WALL (      10 calls)
     fftw         :     34.75s CPU     37.27s WALL (   93522 calls)
 
     Parallel routines
 
     PWSCF        :   1m22.18s CPU   1m41.30s WALL

 
   This run was terminated on:  10: 3:48  18Mar2022            

=------------------------------------------------------------------------------=
   JOB DONE.
=------------------------------------------------------------------------------=
