
     Program PWSCF v.7.0 starts on 18Mar2022 at 10: 6: 4 

     This program is part of the open-source Quantum ESPRESSO suite
     for quantum simulation of materials; please cite
         "P. Giannozzi et al., J. Phys.:Condens. Matter 21 395502 (2009);
         "P. Giannozzi et al., J. Phys.:Condens. Matter 29 465901 (2017);
         "P. Giannozzi et al., J. Chem. Phys. 152 154105 (2020);
          URL http://www.quantum-espresso.org", 
     in publications or presentations arising from this work. More details at
     http://www.quantum-espresso.org/quote

     Parallel version (MPI), running on     1 processors

     MPI processes distributed on     1 nodes
     89622 MiB available memory on the printing compute node when the environment starts
 
     Waiting for input...
     Reading input from standard input
Warning: card &CELL ignored
Warning: card  CELL_DYNAMICS = 'BFGS', ignored
Warning: card  PRESS=0.1D0, ignored
Warning: card / ignored

     Current dimensions of program PWSCF are:
     Max number of different atomic species (ntypx) = 10
     Max number of k-points (npk) =  40000
     Max angular momentum in pseudopotentials (lmaxx) =  4
     Message from routine setup:
     using ibrav=0 with symmetry is DISCOURAGED, use correct ibrav instead

     Subspace diagonalization in iterative solution of the eigenvalue problem:
     a serial algorithm will be used

 
     G-vector sticks info
     --------------------
     sticks:   dense  smooth     PW     G-vecs:    dense   smooth      PW
     Sum         433     433    151                 5961     5961    1211
 
     Using Slab Decomposition
 


     bravais-lattice index     =            0
     lattice parameter (alat)  =      10.1900  a.u.
     unit-cell volume          =     264.3902 (a.u.)^3
     number of atoms/cell      =            2
     number of atomic types    =            1
     number of electrons       =         8.00
     number of Kohn-Sham states=            4
     kinetic-energy cutoff     =      30.0000  Ry
     charge density cutoff     =     120.0000  Ry
     scf convergence threshold =      1.0E-08
     mixing beta               =       0.7000
     number of iterations used =            8  plain     mixing
     energy convergence thresh.=      1.0E-04
     force convergence thresh. =      1.0E-03
     Exchange-correlation= SLA  PZ   NOGX NOGC
                           (   1   1   0   0   0   0   0)
     nstep                     =           50


     celldm(1)=  10.190000  celldm(2)=   0.000000  celldm(3)=   0.000000
     celldm(4)=   0.000000  celldm(5)=   0.000000  celldm(6)=   0.000000

     crystal axes: (cart. coord. in units of alat)
               a(1) = (  -0.500000   0.000000   0.500000 )  
               a(2) = (  -0.000500   0.500000   0.500000 )  
               a(3) = (  -0.500000   0.500000   0.000000 )  

     reciprocal axes: (cart. coord. in units 2 pi/alat)
               b(1) = ( -1.000500 -1.000500  0.999500 )  
               b(2) = (  1.000500  1.000500  1.000500 )  
               b(3) = ( -1.000500  0.999500 -1.000500 )  


     PseudoPot. # 1 for Si read from file:
     ./Si_LDA.UPF
     MD5 check sum: b5ade7b37ee992b02096e360e546dc2d
     Pseudo is Ultrasoft + core correction, Zval =  4.0
     Generated by new atomic code, or converted to UPF format
     Using radial grid of  899 points,  6 beta functions with: 
                l(1) =   0
                l(2) =   0
                l(3) =   1
                l(4) =   1
                l(5) =   2
                l(6) =   2
     Q(r) pseudized with  8 coefficients,  rinner =    0.900   0.900   0.900
                                                       0.900   0.900

     atomic species   valence    mass     pseudopotential
        Si             4.00    28.08550     Si( 1.00)

      4 Sym. Ops., with inversion, found ( 2 have fractional translation)



   Cartesian axes

     site n.     atom                  positions (alat units)
         1           Si  tau(   1) = (   0.0000000   0.0000000   0.0000000  )
         2           Si  tau(   2) = (  -0.2501250   0.2500000   0.2500000  )

     number of k points=   150

     Number of k-points >= 100: set verbosity='high' to print them.

     Dense  grid:     5961 G-vectors     FFT dimensions: (  32,  32,  32)

     Estimated max dynamical RAM per process >      31.06 MB

     Initial potential from superposition of free atoms

     starting charge       7.9988, renormalised to       8.0000
     Starting wfcs are    8 randomized atomic wfcs

     total cpu time spent up to now is        3.0 secs

     Self-consistent Calculation

     iteration #  1     ecut=    30.00 Ry     beta= 0.70
     CG style diagonalization
     ethr =  1.00E-02,  avg # of iterations =  3.0

     Threshold (ethr) on eigenvalues was too large:
     Diagonalizing with lowered threshold

     CG style diagonalization
     ethr =  7.39E-04,  avg # of iterations =  2.0

     total cpu time spent up to now is        9.9 secs

     total energy              =     -19.25650823 Ry
     estimated scf accuracy    <       0.05992827 Ry

     iteration #  2     ecut=    30.00 Ry     beta= 0.70
     CG style diagonalization
     ethr =  7.49E-04,  avg # of iterations =  3.0

     total cpu time spent up to now is       13.7 secs

     total energy              =     -19.25957939 Ry
     estimated scf accuracy    <       0.00196903 Ry

     iteration #  3     ecut=    30.00 Ry     beta= 0.70
     CG style diagonalization
     ethr =  2.46E-05,  avg # of iterations =  4.1

     total cpu time spent up to now is       18.6 secs

     total energy              =     -19.26016967 Ry
     estimated scf accuracy    <       0.00007075 Ry

     iteration #  4     ecut=    30.00 Ry     beta= 0.70
     CG style diagonalization
     ethr =  8.84E-07,  avg # of iterations =  4.3

     total cpu time spent up to now is       23.6 secs

     total energy              =     -19.26020514 Ry
     estimated scf accuracy    <       0.00001467 Ry

     iteration #  5     ecut=    30.00 Ry     beta= 0.70
     CG style diagonalization
     ethr =  1.83E-07,  avg # of iterations =  4.0

     total cpu time spent up to now is       28.3 secs

     total energy              =     -19.26020799 Ry
     estimated scf accuracy    <       0.00000006 Ry

     iteration #  6     ecut=    30.00 Ry     beta= 0.70
     CG style diagonalization
     ethr =  6.94E-10,  avg # of iterations =  5.7

     total cpu time spent up to now is       34.6 secs

     End of self-consistent calculation

     Number of k-points >= 100: set verbosity='high' to print the bands.

     highest occupied level (ev):     6.2407

!    total energy              =     -19.26020819 Ry
     estimated scf accuracy    <          3.0E-09 Ry

     The total energy is the sum of the following terms:
     one-electron contribution =       5.21022909 Ry
     hartree contribution      =       1.09637584 Ry
     xc contribution           =      -8.64765047 Ry
     ewald contribution        =     -16.91916264 Ry

     convergence has been achieved in   6 iterations

     Forces acting on atoms (cartesian axes, Ry/au):

     atom    1 type  1   force =     0.00000032    0.00019797    0.00019797
     atom    2 type  1   force =    -0.00000032   -0.00019797   -0.00019797

     Total force =     0.000396     Total SCF correction =     0.000000


     Computing stress (Cartesian axis) and pressure

          total   stress  (Ry/bohr**3)                   (kbar)     P=        4.96
   0.00003590   0.00000363   0.00000363            5.28        0.53        0.53
   0.00000363   0.00003261   0.00000000            0.53        4.80        0.00
   0.00000363   0.00000000   0.00003261            0.53        0.00        4.80


     BFGS Geometry Optimization
     Energy error            =      0.0E+00 Ry
     Gradient error          =      2.0E-04 Ry/Bohr

     bfgs converged in   1 scf cycles and   0 bfgs steps
     (criteria: energy <  1.0E-04 Ry, force <  1.0E-03 Ry/Bohr)

     End of BFGS Geometry Optimization

     Final energy             =     -19.2602081853 Ry
Begin final coordinates

ATOMIC_POSITIONS (crystal)
Si            0.0000000000        0.0000000000        0.0000000000
Si            0.2500000000        0.2500000000        0.2500000000
End final coordinates



     Writing all to output data dir ./Si_elastic_isotropic.save/
 
     init_run     :      2.33s CPU      2.43s WALL (       1 calls)
     electrons    :     27.29s CPU     31.60s WALL (       1 calls)
     forces       :      0.40s CPU      0.42s WALL (       1 calls)
     stress       :      2.15s CPU      2.18s WALL (       1 calls)

     Called by init_run:
     wfcinit      :      1.58s CPU      1.66s WALL (       1 calls)
     potinit      :      0.02s CPU      0.02s WALL (       1 calls)
     hinit0       :      0.65s CPU      0.67s WALL (       1 calls)

     Called by electrons:
     c_bands      :     23.50s CPU     27.60s WALL (       7 calls)
     sum_band     :      3.49s CPU      3.65s WALL (       7 calls)
     v_of_rho     :      0.05s CPU      0.06s WALL (       7 calls)
     newd         :      0.27s CPU      0.30s WALL (       7 calls)
     mix_rho      :      0.01s CPU      0.01s WALL (       7 calls)

     Called by c_bands:
     init_us_2    :      1.82s CPU      2.08s WALL (    2550 calls)
     init_us_2:cp :      1.76s CPU      2.04s WALL (    2550 calls)
     ccgdiagg     :     18.72s CPU     20.44s WALL (    1050 calls)
     wfcrot       :      4.85s CPU      5.12s WALL (     900 calls)

     Called by *cgdiagg:
     h_psi        :     19.18s CPU     20.66s WALL (   13529 calls)
     s_psi        :      1.40s CPU      1.59s WALL (   26158 calls)

     Called by h_psi:
     h_psi:calbec :      1.63s CPU      1.73s WALL (   13529 calls)
     vloc_psi     :     15.87s CPU     17.11s WALL (   13529 calls)
     add_vuspsi   :      0.97s CPU      1.07s WALL (   13529 calls)
     hs_1psi      :     16.19s CPU     17.59s WALL (   12629 calls)
     s_1psi       :      1.77s CPU      1.97s WALL (   12629 calls)

     General routines
     calbec       :      2.33s CPU      2.59s WALL (   27958 calls)
     fft          :      0.02s CPU      0.02s WALL (      37 calls)
     ffts         :      0.00s CPU      0.00s WALL (       7 calls)
     fftw         :     14.03s CPU     15.05s WALL (   37858 calls)
 
     Parallel routines
 
     PWSCF        :     32.81s CPU     38.31s WALL

 
   This run was terminated on:  10: 6:42  18Mar2022            

=------------------------------------------------------------------------------=
   JOB DONE.
=------------------------------------------------------------------------------=
