
     Program PWSCF v.7.0 starts on 18Mar2022 at 10: 6:43 

     This program is part of the open-source Quantum ESPRESSO suite
     for quantum simulation of materials; please cite
         "P. Giannozzi et al., J. Phys.:Condens. Matter 21 395502 (2009);
         "P. Giannozzi et al., J. Phys.:Condens. Matter 29 465901 (2017);
         "P. Giannozzi et al., J. Chem. Phys. 152 154105 (2020);
          URL http://www.quantum-espresso.org", 
     in publications or presentations arising from this work. More details at
     http://www.quantum-espresso.org/quote

     Parallel version (MPI), running on     1 processors

     MPI processes distributed on     1 nodes
     89620 MiB available memory on the printing compute node when the environment starts
 
     Waiting for input...
     Reading input from standard input
Warning: card &CELL ignored
Warning: card  CELL_DYNAMICS = 'BFGS', ignored
Warning: card  PRESS=0.1D0, ignored
Warning: card / ignored

     Current dimensions of program PWSCF are:
     Max number of different atomic species (ntypx) = 10
     Max number of k-points (npk) =  40000
     Max angular momentum in pseudopotentials (lmaxx) =  4
     Message from routine setup:
     using ibrav=0 with symmetry is DISCOURAGED, use correct ibrav instead

     Subspace diagonalization in iterative solution of the eigenvalue problem:
     a serial algorithm will be used

 
     G-vector sticks info
     --------------------
     sticks:   dense  smooth     PW     G-vecs:    dense   smooth      PW
     Sum         433     433    151                 5961     5961    1211
 
     Using Slab Decomposition
 


     bravais-lattice index     =            0
     lattice parameter (alat)  =      10.1900  a.u.
     unit-cell volume          =     264.6546 (a.u.)^3
     number of atoms/cell      =            2
     number of atomic types    =            1
     number of electrons       =         8.00
     number of Kohn-Sham states=            4
     kinetic-energy cutoff     =      30.0000  Ry
     charge density cutoff     =     120.0000  Ry
     scf convergence threshold =      1.0E-08
     mixing beta               =       0.7000
     number of iterations used =            8  plain     mixing
     energy convergence thresh.=      1.0E-04
     force convergence thresh. =      1.0E-03
     Exchange-correlation= SLA  PZ   NOGX NOGC
                           (   1   1   0   0   0   0   0)
     nstep                     =           50


     celldm(1)=  10.190000  celldm(2)=   0.000000  celldm(3)=   0.000000
     celldm(4)=   0.000000  celldm(5)=   0.000000  celldm(6)=   0.000000

     crystal axes: (cart. coord. in units of alat)
               a(1) = (  -0.500000  -0.000500   0.500000 )  
               a(2) = (  -0.001000   0.500000   0.500000 )  
               a(3) = (  -0.500500   0.500500   0.000000 )  

     reciprocal axes: (cart. coord. in units 2 pi/alat)
               b(1) = ( -1.000500 -1.000500  0.998499 )  
               b(2) = (  1.000500  1.000500  1.001501 )  
               b(3) = ( -1.000500  0.997502 -0.999503 )  


     PseudoPot. # 1 for Si read from file:
     ./Si_LDA.UPF
     MD5 check sum: b5ade7b37ee992b02096e360e546dc2d
     Pseudo is Ultrasoft + core correction, Zval =  4.0
     Generated by new atomic code, or converted to UPF format
     Using radial grid of  899 points,  6 beta functions with: 
                l(1) =   0
                l(2) =   0
                l(3) =   1
                l(4) =   1
                l(5) =   2
                l(6) =   2
     Q(r) pseudized with  8 coefficients,  rinner =    0.900   0.900   0.900
                                                       0.900   0.900

     atomic species   valence    mass     pseudopotential
        Si             4.00    28.08550     Si( 1.00)

      2 Sym. Ops., with inversion, found ( 1 have fractional translation)



   Cartesian axes

     site n.     atom                  positions (alat units)
         1           Si  tau(   1) = (   0.0000000   0.0000000   0.0000000  )
         2           Si  tau(   2) = (  -0.2503750   0.2500000   0.2500000  )

     number of k points=   260

     Number of k-points >= 100: set verbosity='high' to print them.

     Dense  grid:     5961 G-vectors     FFT dimensions: (  32,  32,  32)

     Estimated max dynamical RAM per process >      35.99 MB

     Initial potential from superposition of free atoms

     starting charge       7.9988, renormalised to       8.0000
     Starting wfcs are    8 randomized atomic wfcs

     total cpu time spent up to now is        4.3 secs

     Self-consistent Calculation

     iteration #  1     ecut=    30.00 Ry     beta= 0.70
     CG style diagonalization
     ethr =  1.00E-02,  avg # of iterations =  3.0

     Threshold (ethr) on eigenvalues was too large:
     Diagonalizing with lowered threshold

     CG style diagonalization
     ethr =  7.37E-04,  avg # of iterations =  2.0

     total cpu time spent up to now is       16.4 secs

     total energy              =     -19.25653136 Ry
     estimated scf accuracy    <       0.05981966 Ry

     iteration #  2     ecut=    30.00 Ry     beta= 0.70
     CG style diagonalization
     ethr =  7.48E-04,  avg # of iterations =  3.0

     total cpu time spent up to now is       22.9 secs

     total energy              =     -19.25958731 Ry
     estimated scf accuracy    <       0.00197017 Ry

     iteration #  3     ecut=    30.00 Ry     beta= 0.70
     CG style diagonalization
     ethr =  2.46E-05,  avg # of iterations =  4.2

     total cpu time spent up to now is       31.5 secs

     total energy              =     -19.26017444 Ry
     estimated scf accuracy    <       0.00007105 Ry

     iteration #  4     ecut=    30.00 Ry     beta= 0.70
     CG style diagonalization
     ethr =  8.88E-07,  avg # of iterations =  4.3

     total cpu time spent up to now is       40.2 secs

     total energy              =     -19.26020958 Ry
     estimated scf accuracy    <       0.00001493 Ry

     iteration #  5     ecut=    30.00 Ry     beta= 0.70
     CG style diagonalization
     ethr =  1.87E-07,  avg # of iterations =  4.0

     total cpu time spent up to now is       48.4 secs

     total energy              =     -19.26021246 Ry
     estimated scf accuracy    <       0.00000005 Ry

     iteration #  6     ecut=    30.00 Ry     beta= 0.70
     CG style diagonalization
     ethr =  6.63E-10,  avg # of iterations =  5.7

     total cpu time spent up to now is       59.6 secs

     End of self-consistent calculation

     Number of k-points >= 100: set verbosity='high' to print the bands.

     highest occupied level (ev):     6.2328

!    total energy              =     -19.26021266 Ry
     estimated scf accuracy    <          4.4E-09 Ry

     The total energy is the sum of the following terms:
     one-electron contribution =       5.20248617 Ry
     hartree contribution      =       1.09721710 Ry
     xc contribution           =      -8.64639487 Ry
     ewald contribution        =     -16.91352106 Ry

     convergence has been achieved in   6 iterations

     Forces acting on atoms (cartesian axes, Ry/au):

     atom    1 type  1   force =     0.00039520    0.00019989    0.00059168
     atom    2 type  1   force =    -0.00039520   -0.00019989   -0.00059168

     Total force =     0.001045     Total SCF correction =     0.000001


     Computing stress (Cartesian axis) and pressure

          total   stress  (Ry/bohr**3)                   (kbar)     P=        3.96
   0.00003132   0.00001085   0.00000365            4.61        1.60        0.54
   0.00001085   0.00002146   0.00000724            1.60        3.16        1.07
   0.00000365   0.00000724   0.00002806            0.54        1.07        4.13


     BFGS Geometry Optimization
     Energy error            =      0.0E+00 Ry
     Gradient error          =      5.9E-04 Ry/Bohr

     bfgs converged in   1 scf cycles and   0 bfgs steps
     (criteria: energy <  1.0E-04 Ry, force <  1.0E-03 Ry/Bohr)

     End of BFGS Geometry Optimization

     Final energy             =     -19.2602126620 Ry
Begin final coordinates

ATOMIC_POSITIONS (crystal)
Si            0.0000000000        0.0000000000        0.0000000000
Si            0.2500000000        0.2500000000        0.2500000000
End final coordinates



     Writing all to output data dir ./Si_elastic_isotropic.save/
 
     init_run     :      3.56s CPU      3.68s WALL (       1 calls)
     electrons    :     48.17s CPU     55.38s WALL (       1 calls)
     forces       :      0.65s CPU      0.69s WALL (       1 calls)
     stress       :      3.52s CPU      3.56s WALL (       1 calls)

     Called by init_run:
     wfcinit      :      2.74s CPU      2.84s WALL (       1 calls)
     potinit      :      0.03s CPU      0.03s WALL (       1 calls)
     hinit0       :      0.69s CPU      0.70s WALL (       1 calls)

     Called by electrons:
     c_bands      :     42.02s CPU     48.91s WALL (       7 calls)
     sum_band     :      5.82s CPU      6.10s WALL (       7 calls)
     v_of_rho     :      0.05s CPU      0.05s WALL (       7 calls)
     newd         :      0.30s CPU      0.33s WALL (       7 calls)
     mix_rho      :      0.01s CPU      0.01s WALL (       7 calls)

     Called by c_bands:
     init_us_2    :      3.15s CPU      3.61s WALL (    4420 calls)
     init_us_2:cp :      3.06s CPU      3.54s WALL (    4420 calls)
     ccgdiagg     :     33.72s CPU     36.86s WALL (    1820 calls)
     wfcrot       :      8.56s CPU      8.97s WALL (    1560 calls)

     Called by *cgdiagg:
     h_psi        :     33.65s CPU     36.21s WALL (   23523 calls)
     s_psi        :      2.94s CPU      3.38s WALL (   45486 calls)

     Called by h_psi:
     h_psi:calbec :      2.95s CPU      3.11s WALL (   23523 calls)
     vloc_psi     :     27.53s CPU     29.67s WALL (   23523 calls)
     add_vuspsi   :      1.92s CPU      2.13s WALL (   23523 calls)
     hs_1psi      :     28.69s CPU     31.19s WALL (   21963 calls)
     s_1psi       :      3.57s CPU      3.97s WALL (   21963 calls)

     General routines
     calbec       :      4.32s CPU      4.82s WALL (   48606 calls)
     fft          :      0.02s CPU      0.02s WALL (      37 calls)
     ffts         :      0.00s CPU      0.00s WALL (       7 calls)
     fftw         :     24.34s CPU     26.10s WALL (   65766 calls)
 
     Parallel routines
 
     PWSCF        :     56.62s CPU   1m 5.71s WALL

 
   This run was terminated on:  10: 7:49  18Mar2022            

=------------------------------------------------------------------------------=
   JOB DONE.
=------------------------------------------------------------------------------=
