
     Program PWSCF v.7.0 starts on  6Mar2022 at 14:19:54 

     This program is part of the open-source Quantum ESPRESSO suite
     for quantum simulation of materials; please cite
         "P. Giannozzi et al., J. Phys.:Condens. Matter 21 395502 (2009);
         "P. Giannozzi et al., J. Phys.:Condens. Matter 29 465901 (2017);
         "P. Giannozzi et al., J. Chem. Phys. 152 154105 (2020);
          URL http://www.quantum-espresso.org", 
     in publications or presentations arising from this work. More details at
     http://www.quantum-espresso.org/quote

     Parallel version (MPI), running on     1 processors

     MPI processes distributed on     1 nodes
     89181 MiB available memory on the printing compute node when the environment starts
 
     Waiting for input...
     Reading input from standard input

     Current dimensions of program PWSCF are:
     Max number of different atomic species (ntypx) = 10
     Max number of k-points (npk) =  40000
     Max angular momentum in pseudopotentials (lmaxx) =  4

     Subspace diagonalization in iterative solution of the eigenvalue problem:
     a serial algorithm will be used

 
     G-vector sticks info
     --------------------
     sticks:   dense  smooth     PW     G-vecs:    dense   smooth      PW
     Sum        1069     283     97                23289     3143     645
 
     Using Slab Decomposition
 


     bravais-lattice index     =            2
     lattice parameter (alat)  =      10.1941  a.u.
     unit-cell volume          =     264.8419 (a.u.)^3
     number of atoms/cell      =            2
     number of atomic types    =            1
     number of electrons       =         8.00
     number of Kohn-Sham states=            4
     kinetic-energy cutoff     =      20.0000  Ry
     charge density cutoff     =     300.0000  Ry
     scf convergence threshold =      1.0E-08
     mixing beta               =       0.7000
     number of iterations used =            8  plain     mixing
     energy convergence thresh.=      1.0E-04
     force convergence thresh. =      1.0E-03
     press convergence thresh. =      5.0E-01
     Exchange-correlation= SLA  PZ   NOGX NOGC
                           (   1   1   0   0   0   0   0)
     nstep                     =           50


     celldm(1)=  10.194100  celldm(2)=   0.000000  celldm(3)=   0.000000
     celldm(4)=   0.000000  celldm(5)=   0.000000  celldm(6)=   0.000000

     crystal axes: (cart. coord. in units of alat)
               a(1) = (  -0.500000   0.000000   0.500000 )  
               a(2) = (   0.000000   0.500000   0.500000 )  
               a(3) = (  -0.500000   0.500000   0.000000 )  

     reciprocal axes: (cart. coord. in units 2 pi/alat)
               b(1) = ( -1.000000 -1.000000  1.000000 )  
               b(2) = (  1.000000  1.000000  1.000000 )  
               b(3) = ( -1.000000  1.000000 -1.000000 )  


     PseudoPot. # 1 for Si read from file:
     ./Si_LDA.UPF
     MD5 check sum: b5ade7b37ee992b02096e360e546dc2d
     Pseudo is Ultrasoft + core correction, Zval =  4.0
     Generated by new atomic code, or converted to UPF format
     Using radial grid of  899 points,  6 beta functions with: 
                l(1) =   0
                l(2) =   0
                l(3) =   1
                l(4) =   1
                l(5) =   2
                l(6) =   2
     Q(r) pseudized with  8 coefficients,  rinner =    0.900   0.900   0.900
                                                       0.900   0.900

     atomic species   valence    mass     pseudopotential
        Si             4.00    28.08550     Si( 1.00)

     48 Sym. Ops., with inversion, found (24 have fractional translation)



   Cartesian axes

     site n.     atom                  positions (alat units)
         1           Si  tau(   1) = (   0.0000000   0.0000000   0.0000000  )
         2           Si  tau(   2) = (  -0.2500000   0.2500000   0.2500000  )

     number of k points=    29
                       cart. coord. in units 2pi/alat
        k(    1) = (   0.0000000   0.0000000   0.0000000), wk =   0.0039062
        k(    2) = (  -0.1250000   0.1250000  -0.1250000), wk =   0.0312500
        k(    3) = (  -0.2500000   0.2500000  -0.2500000), wk =   0.0312500
        k(    4) = (  -0.3750000   0.3750000  -0.3750000), wk =   0.0312500
        k(    5) = (   0.5000000  -0.5000000   0.5000000), wk =   0.0156250
        k(    6) = (   0.0000000   0.2500000   0.0000000), wk =   0.0234375
        k(    7) = (  -0.1250000   0.3750000  -0.1250000), wk =   0.0937500
        k(    8) = (  -0.2500000   0.5000000  -0.2500000), wk =   0.0937500
        k(    9) = (   0.6250000  -0.3750000   0.6250000), wk =   0.0937500
        k(   10) = (   0.5000000  -0.2500000   0.5000000), wk =   0.0937500
        k(   11) = (   0.3750000  -0.1250000   0.3750000), wk =   0.0937500
        k(   12) = (   0.2500000   0.0000000   0.2500000), wk =   0.0468750
        k(   13) = (   0.0000000   0.5000000   0.0000000), wk =   0.0234375
        k(   14) = (  -0.1250000   0.6250000  -0.1250000), wk =   0.0937500
        k(   15) = (   0.7500000  -0.2500000   0.7500000), wk =   0.0937500
        k(   16) = (   0.6250000  -0.1250000   0.6250000), wk =   0.0937500
        k(   17) = (   0.5000000   0.0000000   0.5000000), wk =   0.0468750
        k(   18) = (   0.0000000   0.7500000   0.0000000), wk =   0.0234375
        k(   19) = (   0.8750000  -0.1250000   0.8750000), wk =   0.0937500
        k(   20) = (   0.7500000   0.0000000   0.7500000), wk =   0.0468750
        k(   21) = (   0.0000000  -1.0000000   0.0000000), wk =   0.0117188
        k(   22) = (  -0.2500000   0.5000000   0.0000000), wk =   0.0937500
        k(   23) = (   0.6250000  -0.3750000   0.8750000), wk =   0.1875000
        k(   24) = (   0.5000000  -0.2500000   0.7500000), wk =   0.0937500
        k(   25) = (   0.7500000  -0.2500000   1.0000000), wk =   0.0937500
        k(   26) = (   0.6250000  -0.1250000   0.8750000), wk =   0.1875000
        k(   27) = (   0.5000000   0.0000000   0.7500000), wk =   0.0937500
        k(   28) = (  -0.2500000  -1.0000000   0.0000000), wk =   0.0468750
        k(   29) = (  -0.5000000  -1.0000000   0.0000000), wk =   0.0234375

     Dense  grid:    23289 G-vectors     FFT dimensions: (  40,  40,  40)

     Smooth grid:     3143 G-vectors     FFT dimensions: (  24,  24,  24)

     Estimated max dynamical RAM per process >      89.09 MB

     Initial potential from superposition of free atoms

     starting charge       7.9988, renormalised to       8.0000
     Starting wfcs are    8 randomized atomic wfcs

     total cpu time spent up to now is        5.2 secs

     Self-consistent Calculation

     iteration #  1     ecut=    20.00 Ry     beta= 0.70
     CG style diagonalization
     ethr =  1.00E-02,  avg # of iterations =  2.9

     Threshold (ethr) on eigenvalues was too large:
     Diagonalizing with lowered threshold

     CG style diagonalization
     ethr =  7.36E-04,  avg # of iterations =  2.0

     total cpu time spent up to now is        6.6 secs

     total energy              =     -19.25586261 Ry
     estimated scf accuracy    <       0.05973151 Ry

     iteration #  2     ecut=    20.00 Ry     beta= 0.70
     CG style diagonalization
     ethr =  7.47E-04,  avg # of iterations =  3.0

     total cpu time spent up to now is        7.4 secs

     total energy              =     -19.25884887 Ry
     estimated scf accuracy    <       0.00197274 Ry

     iteration #  3     ecut=    20.00 Ry     beta= 0.70
     CG style diagonalization
     ethr =  2.47E-05,  avg # of iterations =  4.0

     total cpu time spent up to now is        8.2 secs

     total energy              =     -19.25938539 Ry
     estimated scf accuracy    <       0.00006498 Ry

     iteration #  4     ecut=    20.00 Ry     beta= 0.70
     CG style diagonalization
     ethr =  8.12E-07,  avg # of iterations =  4.1

     total cpu time spent up to now is        9.1 secs

     total energy              =     -19.25940975 Ry
     estimated scf accuracy    <       0.00000952 Ry

     iteration #  5     ecut=    20.00 Ry     beta= 0.70
     CG style diagonalization
     ethr =  1.19E-07,  avg # of iterations =  4.0

     total cpu time spent up to now is        9.9 secs

     total energy              =     -19.25941143 Ry
     estimated scf accuracy    <       0.00000008 Ry

     iteration #  6     ecut=    20.00 Ry     beta= 0.70
     CG style diagonalization
     ethr =  9.50E-10,  avg # of iterations =  4.6

     total cpu time spent up to now is       10.8 secs

     End of self-consistent calculation

          k = 0.0000 0.0000 0.0000 (   411 PWs)   bands (ev):

    -5.8819   6.2204   6.2204   6.2204

          k =-0.1250 0.1250-0.1250 (   390 PWs)   bands (ev):

    -5.6738   4.5987   5.9251   5.9251

          k =-0.2500 0.2500-0.2500 (   392 PWs)   bands (ev):

    -5.0675   2.2365   5.4478   5.4478

          k =-0.3750 0.3750-0.3750 (   401 PWs)   bands (ev):

    -4.1539   0.1806   5.1182   5.1182

          k = 0.5000-0.5000 0.5000 (   392 PWs)   bands (ev):

    -3.4933  -0.8689   5.0060   5.0060

          k = 0.0000 0.2500 0.0000 (   391 PWs)   bands (ev):

    -5.6039   4.8864   5.3924   5.3924

          k =-0.1250 0.3750-0.1250 (   392 PWs)   bands (ev):

    -5.1271   2.9626   4.8723   4.9521

          k =-0.2500 0.5000-0.2500 (   397 PWs)   bands (ev):

    -4.2957   0.8644   4.3489   4.6026

          k = 0.6250-0.3750 0.6250 (   397 PWs)   bands (ev):

    -3.4088  -0.6342   3.8943   4.6310

          k = 0.5000-0.2500 0.5000 (   399 PWs)   bands (ev):

    -3.6621  -0.2530   3.7058   4.9354

          k = 0.3750-0.1250 0.3750 (   398 PWs)   bands (ev):

    -4.6084   1.5363   3.8530   5.4373

          k = 0.2500 0.0000 0.2500 (   389 PWs)   bands (ev):

    -5.3318   3.5120   4.5424   5.9274

          k = 0.0000 0.5000 0.0000 (   415 PWs)   bands (ev):

    -4.7817   2.6905   4.2895   4.2895

          k =-0.1250 0.6250-0.1250 (   401 PWs)   bands (ev):

    -4.0582   1.2458   3.4829   3.9675

          k = 0.7500-0.2500 0.7500 (   399 PWs)   bands (ev):

    -3.1098  -0.2293   2.5966   3.9726

          k = 0.6250-0.1250 0.6250 (   398 PWs)   bands (ev):

    -2.8969  -0.4973   2.1243   4.2987

          k = 0.5000 0.0000 0.5000 (   407 PWs)   bands (ev):

    -3.7989   0.6909   2.3632   4.8700

          k = 0.0000 0.7500 0.0000 (   404 PWs)   bands (ev):

    -3.4461   0.4370   3.5622   3.5622

          k = 0.8750-0.1250 0.8750 (   407 PWs)   bands (ev):

    -2.5316  -0.6625   2.6944   3.4854

          k = 0.7500 0.0000 0.7500 (   399 PWs)   bands (ev):

    -2.0738  -1.0709   1.7938   3.7484

          k = 0.0000-1.0000 0.0000 (   388 PWs)   bands (ev):

    -1.6660  -1.6660   3.3130   3.3130

          k =-0.2500 0.5000 0.0000 (   397 PWs)   bands (ev):

    -4.5286   1.8987   3.4327   4.7636

          k = 0.6250-0.3750 0.8750 (   402 PWs)   bands (ev):

    -3.6212   0.3154   2.8180   4.2457

          k = 0.5000-0.2500 0.7500 (   394 PWs)   bands (ev):

    -2.9478  -0.6574   2.6917   4.0090

          k = 0.7500-0.2500 1.0000 (   410 PWs)   bands (ev):

    -3.2420   0.2159   2.7698   3.3900

          k = 0.6250-0.1250 0.8750 (   399 PWs)   bands (ev):

    -2.3444  -0.7694   2.0464   3.1822

          k = 0.5000 0.0000 0.7500 (   400 PWs)   bands (ev):

    -2.7016  -0.4020   1.8732   3.5692

          k =-0.2500-1.0000 0.0000 (   408 PWs)   bands (ev):

    -1.5832  -1.5832   2.7138   2.7138

          k =-0.5000-1.0000 0.0000 (   396 PWs)   bands (ev):

    -1.4900  -1.4900   2.2560   2.2560

     highest occupied level (ev):     6.2204

!    total energy              =     -19.25941152 Ry
     estimated scf accuracy    <          4.2E-09 Ry

     The total energy is the sum of the following terms:
     one-electron contribution =       5.19729598 Ry
     hartree contribution      =       1.09764149 Ry
     xc contribution           =      -8.64480941 Ry
     ewald contribution        =     -16.90953958 Ry

     convergence has been achieved in   6 iterations

     Forces acting on atoms (cartesian axes, Ry/au):

     atom    1 type  1   force =     0.00000000    0.00000000    0.00000000
     atom    2 type  1   force =     0.00000000    0.00000000    0.00000000

     Total force =     0.000000     Total SCF correction =     0.000000


     Computing stress (Cartesian axis) and pressure

          total   stress  (Ry/bohr**3)                   (kbar)     P=       -0.05
  -0.00000037  -0.00000000  -0.00000000           -0.05       -0.00       -0.00
  -0.00000000  -0.00000037   0.00000000           -0.00       -0.05        0.00
  -0.00000000   0.00000000  -0.00000037           -0.00        0.00       -0.05


     BFGS Geometry Optimization
     Energy error            =      0.0E+00 Ry
     Gradient error          =      0.0E+00 Ry/Bohr
     Cell gradient error     =      5.4E-02 kbar

     bfgs converged in   1 scf cycles and   0 bfgs steps
     (criteria: energy <  1.0E-04 Ry, force <  1.0E-03Ry/Bohr, cell <  5.0E-01kbar)

     End of BFGS Geometry Optimization

     Final enthalpy           =     -19.2594115192 Ry
Begin final coordinates
     new unit-cell volume =    264.84189 a.u.^3 (    39.24552 Ang^3 )
     density =      2.37668 g/cm^3

CELL_PARAMETERS (alat= 10.19410000)
  -0.500000000   0.000000000   0.500000000
   0.000000000   0.500000000   0.500000000
  -0.500000000   0.500000000   0.000000000

ATOMIC_POSITIONS (crystal)
Si            0.0000000000        0.0000000000        0.0000000000
Si            0.2500000000        0.2500000000        0.2500000000
End final coordinates



     Writing config-only to output data dir ./Si_relax1.save/

     Final scf calculation at the relaxed structure.
     The G-vectors are recalculated for the final unit cell
     Results may differ from those at the preceding step.
 
     G-vector sticks info
     --------------------
     sticks:   dense  smooth     PW     G-vecs:    dense   smooth      PW
     Sum        1069     283     97                23289     3143     645
 
     Using Slab Decomposition
 


     bravais-lattice index     =            2
     lattice parameter (alat)  =      10.1941  a.u.
     unit-cell volume          =     264.8419 (a.u.)^3
     number of atoms/cell      =            2
     number of atomic types    =            1
     number of electrons       =         8.00
     number of Kohn-Sham states=            4
     kinetic-energy cutoff     =      20.0000  Ry
     charge density cutoff     =     300.0000  Ry
     scf convergence threshold =      1.0E-08
     mixing beta               =       0.7000
     number of iterations used =            8  plain     mixing
     press convergence thresh. =      5.0E-01
     Exchange-correlation= SLA  PZ   NOGX NOGC
                           (   1   1   0   0   0   0   0)

     celldm(1)=  10.194100  celldm(2)=   0.000000  celldm(3)=   0.000000
     celldm(4)=   0.000000  celldm(5)=   0.000000  celldm(6)=   0.000000

     crystal axes: (cart. coord. in units of alat)
               a(1) = (  -0.500000   0.000000   0.500000 )  
               a(2) = (   0.000000   0.500000   0.500000 )  
               a(3) = (  -0.500000   0.500000   0.000000 )  

     reciprocal axes: (cart. coord. in units 2 pi/alat)
               b(1) = ( -1.000000 -1.000000  1.000000 )  
               b(2) = (  1.000000  1.000000  1.000000 )  
               b(3) = ( -1.000000  1.000000 -1.000000 )  


     PseudoPot. # 1 for Si read from file:
     ./Si_LDA.UPF
     MD5 check sum: b5ade7b37ee992b02096e360e546dc2d
     Pseudo is Ultrasoft + core correction, Zval =  4.0
     Generated by new atomic code, or converted to UPF format
     Using radial grid of  899 points,  6 beta functions with: 
                l(1) =   0
                l(2) =   0
                l(3) =   1
                l(4) =   1
                l(5) =   2
                l(6) =   2
     Q(r) pseudized with  8 coefficients,  rinner =    0.900   0.900   0.900
                                                       0.900   0.900

     atomic species   valence    mass     pseudopotential
        Si             4.00    28.08550     Si( 1.00)

     48 Sym. Ops., with inversion, found (24 have fractional translation)



   Cartesian axes

     site n.     atom                  positions (alat units)
         1           Si  tau(   1) = (   0.0000000   0.0000000   0.0000000  )
         2           Si  tau(   2) = (  -0.2500000   0.2500000   0.2500000  )

     number of k points=    29
                       cart. coord. in units 2pi/alat
        k(    1) = (   0.0000000   0.0000000   0.0000000), wk =   0.0039062
        k(    2) = (  -0.1250000   0.1250000  -0.1250000), wk =   0.0312500
        k(    3) = (  -0.2500000   0.2500000  -0.2500000), wk =   0.0312500
        k(    4) = (  -0.3750000   0.3750000  -0.3750000), wk =   0.0312500
        k(    5) = (   0.5000000  -0.5000000   0.5000000), wk =   0.0156250
        k(    6) = (   0.0000000   0.2500000   0.0000000), wk =   0.0234375
        k(    7) = (  -0.1250000   0.3750000  -0.1250000), wk =   0.0937500
        k(    8) = (  -0.2500000   0.5000000  -0.2500000), wk =   0.0937500
        k(    9) = (   0.6250000  -0.3750000   0.6250000), wk =   0.0937500
        k(   10) = (   0.5000000  -0.2500000   0.5000000), wk =   0.0937500
        k(   11) = (   0.3750000  -0.1250000   0.3750000), wk =   0.0937500
        k(   12) = (   0.2500000   0.0000000   0.2500000), wk =   0.0468750
        k(   13) = (   0.0000000   0.5000000   0.0000000), wk =   0.0234375
        k(   14) = (  -0.1250000   0.6250000  -0.1250000), wk =   0.0937500
        k(   15) = (   0.7500000  -0.2500000   0.7500000), wk =   0.0937500
        k(   16) = (   0.6250000  -0.1250000   0.6250000), wk =   0.0937500
        k(   17) = (   0.5000000   0.0000000   0.5000000), wk =   0.0468750
        k(   18) = (   0.0000000   0.7500000   0.0000000), wk =   0.0234375
        k(   19) = (   0.8750000  -0.1250000   0.8750000), wk =   0.0937500
        k(   20) = (   0.7500000   0.0000000   0.7500000), wk =   0.0468750
        k(   21) = (   0.0000000  -1.0000000   0.0000000), wk =   0.0117188
        k(   22) = (  -0.2500000   0.5000000   0.0000000), wk =   0.0937500
        k(   23) = (   0.6250000  -0.3750000   0.8750000), wk =   0.1875000
        k(   24) = (   0.5000000  -0.2500000   0.7500000), wk =   0.0937500
        k(   25) = (   0.7500000  -0.2500000   1.0000000), wk =   0.0937500
        k(   26) = (   0.6250000  -0.1250000   0.8750000), wk =   0.1875000
        k(   27) = (   0.5000000   0.0000000   0.7500000), wk =   0.0937500
        k(   28) = (  -0.2500000  -1.0000000   0.0000000), wk =   0.0468750
        k(   29) = (  -0.5000000  -1.0000000   0.0000000), wk =   0.0234375

     Dense  grid:    23289 G-vectors     FFT dimensions: (  40,  40,  40)

     Smooth grid:     3143 G-vectors     FFT dimensions: (  24,  24,  24)

     Estimated max dynamical RAM per process >      89.26 MB

     Initial potential from superposition of free atoms

     starting charge       7.9988, renormalised to       8.0000
     Starting wfcs are    8 randomized atomic wfcs

     total cpu time spent up to now is       17.2 secs

     Self-consistent Calculation

     iteration #  1     ecut=    20.00 Ry     beta= 0.70
     CG style diagonalization
     ethr =  1.00E-06,  avg # of iterations =  7.2

     total cpu time spent up to now is       18.4 secs

     total energy              =     -19.25572061 Ry
     estimated scf accuracy    <       0.06071634 Ry

     iteration #  2     ecut=    20.00 Ry     beta= 0.70
     CG style diagonalization
     ethr =  7.59E-04,  avg # of iterations =  3.0

     total cpu time spent up to now is       19.2 secs

     total energy              =     -19.25888363 Ry
     estimated scf accuracy    <       0.00189237 Ry

     iteration #  3     ecut=    20.00 Ry     beta= 0.70
     CG style diagonalization
     ethr =  2.37E-05,  avg # of iterations =  3.9

     total cpu time spent up to now is       20.0 secs

     total energy              =     -19.25939879 Ry
     estimated scf accuracy    <       0.00004855 Ry

     iteration #  4     ecut=    20.00 Ry     beta= 0.70
     CG style diagonalization
     ethr =  6.07E-07,  avg # of iterations =  4.0

     total cpu time spent up to now is       20.9 secs

     total energy              =     -19.25941061 Ry
     estimated scf accuracy    <       0.00000364 Ry

     iteration #  5     ecut=    20.00 Ry     beta= 0.70
     CG style diagonalization
     ethr =  4.55E-08,  avg # of iterations =  4.0

     total cpu time spent up to now is       21.7 secs

     total energy              =     -19.25941148 Ry
     estimated scf accuracy    <       0.00000009 Ry

     iteration #  6     ecut=    20.00 Ry     beta= 0.70
     CG style diagonalization
     ethr =  1.13E-09,  avg # of iterations =  4.3

     total cpu time spent up to now is       22.6 secs

     End of self-consistent calculation

          k = 0.0000 0.0000 0.0000 (   411 PWs)   bands (ev):

    -5.8820   6.2203   6.2203   6.2203

          k =-0.1250 0.1250-0.1250 (   390 PWs)   bands (ev):

    -5.6738   4.5986   5.9250   5.9250

          k =-0.2500 0.2500-0.2500 (   392 PWs)   bands (ev):

    -5.0676   2.2364   5.4477   5.4477

          k =-0.3750 0.3750-0.3750 (   401 PWs)   bands (ev):

    -4.1539   0.1805   5.1181   5.1181

          k = 0.5000-0.5000 0.5000 (   392 PWs)   bands (ev):

    -3.4934  -0.8690   5.0059   5.0059

          k = 0.0000 0.2500 0.0000 (   391 PWs)   bands (ev):

    -5.6040   4.8863   5.3923   5.3923

          k =-0.1250 0.3750-0.1250 (   392 PWs)   bands (ev):

    -5.1272   2.9625   4.8722   4.9520

          k =-0.2500 0.5000-0.2500 (   397 PWs)   bands (ev):

    -4.2957   0.8643   4.3489   4.6025

          k = 0.6250-0.3750 0.6250 (   397 PWs)   bands (ev):

    -3.4089  -0.6343   3.8942   4.6309

          k = 0.5000-0.2500 0.5000 (   399 PWs)   bands (ev):

    -3.6622  -0.2531   3.7057   4.9353

          k = 0.3750-0.1250 0.3750 (   398 PWs)   bands (ev):

    -4.6085   1.5362   3.8530   5.4372

          k = 0.2500 0.0000 0.2500 (   389 PWs)   bands (ev):

    -5.3319   3.5119   4.5424   5.9273

          k = 0.0000 0.5000 0.0000 (   415 PWs)   bands (ev):

    -4.7818   2.6904   4.2895   4.2895

          k =-0.1250 0.6250-0.1250 (   401 PWs)   bands (ev):

    -4.0583   1.2457   3.4828   3.9674

          k = 0.7500-0.2500 0.7500 (   399 PWs)   bands (ev):

    -3.1099  -0.2294   2.5965   3.9725

          k = 0.6250-0.1250 0.6250 (   398 PWs)   bands (ev):

    -2.8969  -0.4974   2.1243   4.2987

          k = 0.5000 0.0000 0.5000 (   407 PWs)   bands (ev):

    -3.7990   0.6908   2.3632   4.8699

          k = 0.0000 0.7500 0.0000 (   404 PWs)   bands (ev):

    -3.4462   0.4369   3.5621   3.5621

          k = 0.8750-0.1250 0.8750 (   407 PWs)   bands (ev):

    -2.5317  -0.6626   2.6944   3.4853

          k = 0.7500 0.0000 0.7500 (   399 PWs)   bands (ev):

    -2.0739  -1.0710   1.7938   3.7483

          k = 0.0000-1.0000 0.0000 (   388 PWs)   bands (ev):

    -1.6661  -1.6661   3.3129   3.3129

          k =-0.2500 0.5000 0.0000 (   397 PWs)   bands (ev):

    -4.5287   1.8986   3.4327   4.7635

          k = 0.6250-0.3750 0.8750 (   402 PWs)   bands (ev):

    -3.6213   0.3153   2.8180   4.2456

          k = 0.5000-0.2500 0.7500 (   394 PWs)   bands (ev):

    -2.9479  -0.6575   2.6916   4.0090

          k = 0.7500-0.2500 1.0000 (   410 PWs)   bands (ev):

    -3.2421   0.2158   2.7697   3.3899

          k = 0.6250-0.1250 0.8750 (   399 PWs)   bands (ev):

    -2.3445  -0.7695   2.0463   3.1821

          k = 0.5000 0.0000 0.7500 (   400 PWs)   bands (ev):

    -2.7017  -0.4021   1.8731   3.5691

          k =-0.2500-1.0000 0.0000 (   408 PWs)   bands (ev):

    -1.5833  -1.5833   2.7137   2.7137

          k =-0.5000-1.0000 0.0000 (   396 PWs)   bands (ev):

    -1.4901  -1.4901   2.2560   2.2560

     highest occupied level (ev):     6.2203

!    total energy              =     -19.25941152 Ry
     estimated scf accuracy    <          9.1E-09 Ry

     The total energy is the sum of the following terms:
     one-electron contribution =       5.19728431 Ry
     hartree contribution      =       1.09766494 Ry
     xc contribution           =      -8.64482119 Ry
     ewald contribution        =     -16.90953958 Ry

     convergence has been achieved in   6 iterations

     Forces acting on atoms (cartesian axes, Ry/au):

     atom    1 type  1   force =     0.00000000    0.00000000    0.00000000
     atom    2 type  1   force =     0.00000000    0.00000000   -0.00000000

     Total force =     0.000000     Total SCF correction =     0.000000


     Computing stress (Cartesian axis) and pressure

          total   stress  (Ry/bohr**3)                   (kbar)     P=       -0.04
  -0.00000025   0.00000000   0.00000000           -0.04        0.00        0.00
   0.00000000  -0.00000025   0.00000000            0.00       -0.04        0.00
   0.00000000   0.00000000  -0.00000025            0.00        0.00       -0.04


     Writing all to output data dir ./Si_relax1.save/
 
     init_run     :      5.03s CPU      5.67s WALL (       2 calls)
     electrons    :      9.57s CPU     11.06s WALL (       2 calls)
     forces       :      1.71s CPU      1.87s WALL (       2 calls)
     stress       :      4.68s CPU      4.74s WALL (       2 calls)

     Called by init_run:
     wfcinit      :      0.39s CPU      0.57s WALL (       2 calls)
     potinit      :      0.36s CPU      0.43s WALL (       2 calls)
     hinit0       :      3.98s CPU      4.11s WALL (       2 calls)

     Called by electrons:
     c_bands      :      5.58s CPU      6.86s WALL (      13 calls)
     sum_band     :      2.44s CPU      2.53s WALL (      13 calls)
     v_of_rho     :      0.21s CPU      0.25s WALL (      14 calls)
     newd         :      1.48s CPU      1.55s WALL (      14 calls)
     mix_rho      :      0.05s CPU      0.05s WALL (      13 calls)

     Called by c_bands:
     init_us_2    :      0.37s CPU      0.44s WALL (     928 calls)
     init_us_2:cp :      0.35s CPU      0.42s WALL (     928 calls)
     ccgdiagg     :      4.39s CPU      4.93s WALL (     377 calls)
     wfcrot       :      1.22s CPU      1.42s WALL (     348 calls)

     Called by *cgdiagg:
     h_psi        :      4.40s CPU      4.88s WALL (    5102 calls)
     s_psi        :      0.34s CPU      0.41s WALL (    9856 calls)

     Called by h_psi:
     h_psi:calbec :      0.31s CPU      0.38s WALL (    5102 calls)
     vloc_psi     :      3.66s CPU      4.02s WALL (    5102 calls)
     add_vuspsi   :      0.21s CPU      0.24s WALL (    5102 calls)
     hs_1psi      :      3.73s CPU      4.16s WALL (    4754 calls)
     s_1psi       :      0.45s CPU      0.50s WALL (    4754 calls)

     General routines
     calbec       :      0.44s CPU      0.53s WALL (   10523 calls)
     fft          :      0.12s CPU      0.15s WALL (      97 calls)
     ffts         :      0.01s CPU      0.01s WALL (      27 calls)
     fftw         :      3.50s CPU      3.84s WALL (   14264 calls)
     interpolate  :      0.03s CPU      0.03s WALL (      14 calls)
 
     Parallel routines
 
     PWSCF        :     21.58s CPU     26.25s WALL

 
   This run was terminated on:  14:20:20   6Mar2022            

=------------------------------------------------------------------------------=
   JOB DONE.
=------------------------------------------------------------------------------=
