
     Program PWSCF v.6.4.1 starts on 25Apr2022 at 13:33:32 

     This program is part of the open-source Quantum ESPRESSO suite
     for quantum simulation of materials; please cite
         "P. Giannozzi et al., J. Phys.:Condens. Matter 21 395502 (2009);
         "P. Giannozzi et al., J. Phys.:Condens. Matter 29 465901 (2017);
          URL http://www.quantum-espresso.org", 
     in publications or presentations arising from this work. More details at
     http://www.quantum-espresso.org/quote

     Parallel version (MPI & OpenMP), running on     120 processor cores
     Number of MPI processes:               120
     Threads/MPI process:                     1

     MPI processes distributed on     2 nodes
     R & G space division:  proc/nbgrp/npool/nimage =     120
     Waiting for input...
     Reading input from standard input

     Current dimensions of program PWSCF are:
     Max number of different atomic species (ntypx) = 10
     Max number of k-points (npk) =  40000
     Max angular momentum in pseudopotentials (lmaxx) =  3

     Subspace diagonalization in iterative solution of the eigenvalue problem:
     one sub-group per band group will be used
     scalapack distributed-memory algorithm (size of sub-group:  7*  7 procs)

 
     Parallelization info
     --------------------
     sticks:   dense  smooth     PW     G-vecs:    dense   smooth      PW
     Min          13      13      4                  326      326      53
     Max          14      14      5                  332      332      56
     Sum        1661    1661    501                39553    39553    6519
 


     bravais-lattice index     =            5
     lattice parameter (alat)  =      12.0000  a.u.
     unit-cell volume          =     826.4069 (a.u.)^3
     number of atoms/cell      =           10
     number of atomic types    =            3
     number of electrons       =        64.00
     number of Kohn-Sham states=           32
     kinetic-energy cutoff     =      50.0000  Ry
     charge density cutoff     =     200.0000  Ry
     convergence threshold     =      1.0E-08
     mixing beta               =       0.7000
     number of iterations used =            8  plain     mixing
     Exchange-correlation      = SLA  PW   PBE  PBE ( 1  4  3  4 0 0)
     nstep                     =           50


     celldm(1)=  12.000000  celldm(2)=   0.000000  celldm(3)=   0.000000
     celldm(4)=   0.690000  celldm(5)=   0.000000  celldm(6)=   0.000000

     crystal axes: (cart. coord. in units of alat)
               a(1) = (   0.393700  -0.227303   0.890693 )  
               a(2) = (   0.000000   0.454606   0.890693 )  
               a(3) = (  -0.393700  -0.227303   0.890693 )  

     reciprocal axes: (cart. coord. in units 2 pi/alat)
               b(1) = (  1.270001 -0.733236  0.374241 )  
               b(2) = (  0.000000  1.466471  0.374241 )  
               b(3) = ( -1.270001 -0.733236  0.374241 )  


     PseudoPot. # 1 for Ca read from file:
     ./Ca_PBE.UPF
     MD5 check sum: 403a4c14b9e4d4dfdc3024c9a3812218
     Pseudo is Ultrasoft + core correction, Zval = 10.0
     Generated by new atomic code, or converted to UPF format
     Using radial grid of  845 points,  6 beta functions with: 
                l(1) =   0
                l(2) =   0
                l(3) =   1
                l(4) =   1
                l(5) =   2
                l(6) =   2
     Q(r) pseudized with  8 coefficients,  rinner =    1.500   1.500   1.500
                                                       1.500   1.500

     PseudoPot. # 2 for C  read from file:
     ./C_PBE.UPF
     MD5 check sum: d1aef80898a10debaa0f26306b886e00
     Pseudo is Ultrasoft + core correction, Zval =  4.0
     Generated by new atomic code, or converted to UPF format
     Using radial grid of  721 points,  4 beta functions with: 
                l(1) =   0
                l(2) =   0
                l(3) =   1
                l(4) =   1
     Q(r) pseudized with  8 coefficients,  rinner =    1.100   1.100   1.100


     PseudoPot. # 3 for O  read from file:
     ./O_PBE.UPF
     MD5 check sum: 734c27235a0248c51dbae37a1fbe46ec
     Pseudo is Ultrasoft + core correction, Zval =  6.0
     Generated by new atomic code, or converted to UPF format
     Using radial grid of  737 points,  5 beta functions with: 
                l(1) =   0
                l(2) =   0
                l(3) =   1
                l(4) =   1
                l(5) =   2
     Q(r) pseudized with  8 coefficients,  rinner =    0.900   0.900   0.900
                                                       0.900   0.900

     atomic species   valence    mass     pseudopotential
        Ca            10.00    40.07800     Ca( 1.00)
        C              4.00    12.01070     C ( 1.00)
        O              6.00    16.00000     O ( 1.00)

     12 Sym. Ops., with inversion, found ( 6 have fractional translation)



   Cartesian axes

     site n.     atom                  positions (alat units)
         1           Ca  tau(   1) = (   0.0000000  -0.0000000   1.3360389  )
         2           Ca  tau(   2) = (   0.0000000   0.0000000   0.0000000  )
         3           C   tau(   3) = (   0.0000000  -0.0000000   0.6680195  )
         4           C   tau(   4) = (   0.0000000  -0.0000000   2.0040584  )
         5           O   tau(   5) = (   0.1011914   0.2793374   1.5587121  )
         6           O   tau(   6) = (   0.1913176  -0.2273030   1.5587121  )
         7           O   tau(   7) = (  -0.2925090  -0.0520344   1.5587121  )
         8           O   tau(   8) = (  -0.1913176   0.2273030   1.1133658  )
         9           O   tau(   9) = (   0.2925090   0.0520344   1.1133658  )
        10           O   tau(  10) = (  -0.1011914  -0.2793374   1.1133658  )

     number of k points=    85
                       cart. coord. in units 2pi/alat
        k(    1) = (   0.0000000   0.0000000   0.0000000), wk =   0.0027435
        k(    2) = (  -0.1411113  -0.0814706   0.0415823), wk =   0.0164609
        k(    3) = (  -0.2822225  -0.1629412   0.0831646), wk =   0.0164609
        k(    4) = (  -0.4233338  -0.2444119   0.1247469), wk =   0.0164609
        k(    5) = (  -0.5644450  -0.3258825   0.1663292), wk =   0.0164609
        k(    6) = (  -0.1411113   0.0814706   0.0831646), wk =   0.0164609
        k(    7) = (  -0.2822225   0.0000000   0.1247469), wk =   0.0329218
        k(    8) = (  -0.4233338  -0.0814706   0.1663292), wk =   0.0329218
        k(    9) = (  -0.5644450  -0.1629412   0.2079114), wk =   0.0329218
        k(   10) = (   0.5644450   0.4888237  -0.1247469), wk =   0.0329218
        k(   11) = (   0.4233338   0.4073531  -0.0831646), wk =   0.0329218
        k(   12) = (   0.2822225   0.3258825  -0.0415823), wk =   0.0329218
        k(   13) = (   0.1411113   0.2444119   0.0000000), wk =   0.0164609
        k(   14) = (  -0.2822225   0.1629412   0.1663292), wk =   0.0164609
        k(   15) = (  -0.4233338   0.0814706   0.2079114), wk =   0.0329218
        k(   16) = (  -0.5644450   0.0000000   0.2494937), wk =   0.0329218
        k(   17) = (   0.5644450   0.6517650  -0.0831646), wk =   0.0329218
        k(   18) = (   0.4233338   0.5702943  -0.0415823), wk =   0.0329218
        k(   19) = (   0.2822225   0.4888237   0.0000000), wk =   0.0164609
        k(   20) = (  -0.4233338   0.2444119   0.2494937), wk =   0.0164609
        k(   21) = (  -0.5644450   0.1629412   0.2910760), wk =   0.0329218
        k(   22) = (   0.5644450   0.8147062  -0.0415823), wk =   0.0329218
        k(   23) = (   0.4233338   0.7332356   0.0000000), wk =   0.0164609
        k(   24) = (  -0.5644450   0.3258825   0.3326583), wk =   0.0164609
        k(   25) = (   0.5644450   0.9776474   0.0000000), wk =   0.0164609
        k(   26) = (  -0.0000000   0.0000000   0.1247469), wk =   0.0054870
        k(   27) = (  -0.1411113  -0.0814706   0.1663292), wk =   0.0164609
        k(   28) = (  -0.2822225  -0.1629412   0.2079114), wk =   0.0164609
        k(   29) = (  -0.4233338  -0.2444119   0.2494937), wk =   0.0164609
        k(   30) = (   0.7055563   0.4073531  -0.0831646), wk =   0.0164609
        k(   31) = (   0.5644450   0.3258825  -0.0415823), wk =   0.0164609
        k(   32) = (   0.4233338   0.2444119   0.0000000), wk =   0.0164609
        k(   33) = (   0.2822225   0.1629412   0.0415823), wk =   0.0164609
        k(   34) = (  -0.1411113   0.0814706   0.2079114), wk =   0.0164609
        k(   35) = (  -0.2822225   0.0000000   0.2494937), wk =   0.0329218
        k(   36) = (  -0.4233338  -0.0814706   0.2910760), wk =   0.0329218
        k(   37) = (   0.7055563   0.5702943  -0.0415823), wk =   0.0329218
        k(   38) = (   0.5644450   0.4888237   0.0000000), wk =   0.0329218
        k(   39) = (   0.4233338   0.4073531   0.0415823), wk =   0.0329218
        k(   40) = (   0.2822225   0.3258825   0.0831646), wk =   0.0329218
        k(   41) = (  -0.2822225   0.1629412   0.2910760), wk =   0.0164609
        k(   42) = (  -0.4233338   0.0814706   0.3326583), wk =   0.0329218
        k(   43) = (   0.7055563   0.7332356   0.0000000), wk =   0.0329218
        k(   44) = (   0.5644450   0.6517650   0.0415823), wk =   0.0329218
        k(   45) = (   0.4233338   0.5702943   0.0831646), wk =   0.0329218
        k(   46) = (   0.2822225   0.4888237   0.1247469), wk =   0.0329218
        k(   47) = (  -0.4233338   0.2444119   0.3742406), wk =   0.0164609
        k(   48) = (   0.7055563   0.8961768   0.0415823), wk =   0.0329218
        k(   49) = (   0.5644450   0.8147062   0.0831646), wk =   0.0329218
        k(   50) = (   0.4233338   0.7332356   0.1247469), wk =   0.0329218
        k(   51) = (   0.2822225   0.6517650   0.1663292), wk =   0.0329218
        k(   52) = (   0.7055563  -0.4073531  -0.2910760), wk =   0.0164609
        k(   53) = (   0.5644450  -0.4888237  -0.2494937), wk =   0.0329218
        k(   54) = (   0.4233338  -0.5702943  -0.2079114), wk =   0.0329218
        k(   55) = (   0.5644450  -0.3258825  -0.2079114), wk =   0.0164609
        k(   56) = (   0.4233338  -0.4073531  -0.1663292), wk =   0.0329218
        k(   57) = (   0.4233338  -0.2444119  -0.1247469), wk =   0.0164609
        k(   58) = (  -0.0000000   0.0000000   0.2494937), wk =   0.0054870
        k(   59) = (  -0.1411113  -0.0814706   0.2910760), wk =   0.0164609
        k(   60) = (  -0.2822225  -0.1629412   0.3326583), wk =   0.0164609
        k(   61) = (   0.8466675   0.4888237   0.0000000), wk =   0.0164609
        k(   62) = (   0.7055563   0.4073531   0.0415823), wk =   0.0164609
        k(   63) = (   0.5644450   0.3258825   0.0831646), wk =   0.0164609
        k(   64) = (  -0.1411113   0.0814706   0.3326583), wk =   0.0164609
        k(   65) = (  -0.2822225   0.0000000   0.3742406), wk =   0.0329218
        k(   66) = (   0.8466675   0.6517650   0.0415823), wk =   0.0329218
        k(   67) = (   0.7055563   0.5702943   0.0831646), wk =   0.0329218
        k(   68) = (   0.5644450   0.4888237   0.1247469), wk =   0.0329218
        k(   69) = (  -0.2822225   0.1629412   0.4158229), wk =   0.0164609
        k(   70) = (   0.8466675   0.8147062   0.0831646), wk =   0.0329218
        k(   71) = (   0.7055563   0.7332356   0.1247469), wk =   0.0329218
        k(   72) = (   0.5644450   0.6517650   0.1663292), wk =   0.0329218
        k(   73) = (   0.8466675  -0.4888237  -0.2494937), wk =   0.0164609
        k(   74) = (   0.7055563  -0.5702943  -0.2079114), wk =   0.0329218
        k(   75) = (   0.7055563  -0.4073531  -0.1663292), wk =   0.0164609
        k(   76) = (   0.0000000   0.0000000   0.3742406), wk =   0.0054870
        k(   77) = (  -0.1411113  -0.0814706   0.4158229), wk =   0.0164609
        k(   78) = (   0.9877788   0.5702943   0.0831646), wk =   0.0164609
        k(   79) = (   0.8466675   0.4888237   0.1247469), wk =   0.0164609
        k(   80) = (  -0.1411113   0.0814706   0.4574052), wk =   0.0164609
        k(   81) = (   0.9877788   0.7332356   0.1247469), wk =   0.0329218
        k(   82) = (   0.8466675   0.6517650   0.1663292), wk =   0.0329218
        k(   83) = (   0.9877788  -0.5702943  -0.2079114), wk =   0.0164609
        k(   84) = (  -0.0000000   0.0000000   0.4989875), wk =   0.0054870
        k(   85) = (   1.1288900   0.6517650   0.1663292), wk =   0.0164609

     Dense  grid:    39553 G-vectors     FFT dimensions: (  60,  60,  60)

     Estimated max dynamical RAM per process >      16.32 MB

     Estimated total dynamical RAM >       1.91 GB
     Message from routine sym_rho_init:
     some processors have no G-vectors for symmetrization
     Message from routine sym_rho_init:
     some processors have no G-vectors for symmetrization
     Message from routine sym_rho_init:
     some processors have no G-vectors for symmetrization
     Message from routine sym_rho_init:
     some processors have no G-vectors for symmetrization
     Message from routine sym_rho_init:
     some processors have no G-vectors for symmetrization
     Message from routine sym_rho_init:
     some processors have no G-vectors for symmetrization
     Message from routine sym_rho_init:
     some processors have no G-vectors for symmetrization
     Message from routine sym_rho_init:
     some processors have no G-vectors for symmetrization
     Message from routine sym_rho_init:
     some processors have no G-vectors for symmetrization
     Message from routine sym_rho_init:
     some processors have no G-vectors for symmetrization
     Message from routine sym_rho_init:
     some processors have no G-vectors for symmetrization
     Message from routine sym_rho_init:
     some processors have no G-vectors for symmetrization
     Message from routine sym_rho_init:
     some processors have no G-vectors for symmetrization

     Check: negative core charge=   -0.000003

     Initial potential from superposition of free atoms

     starting charge   63.98899, renormalised to   64.00000
     Starting wfcs are   52 randomized atomic wfcs

     total cpu time spent up to now is       16.6 secs

     Self-consistent Calculation

     iteration #  1     ecut=    50.00 Ry     beta= 0.70
     CG style diagonalization
     ethr =  1.00E-02,  avg # of iterations =  2.7

     total cpu time spent up to now is       37.6 secs

     total energy              =    -366.67445919 Ry
     Harris-Foulkes estimate   =    -367.89547759 Ry
     estimated scf accuracy    <       1.75540897 Ry

     iteration #  2     ecut=    50.00 Ry     beta= 0.70
     CG style diagonalization
     ethr =  2.74E-03,  avg # of iterations =  4.3

     total cpu time spent up to now is       70.5 secs

     total energy              =    -367.11002132 Ry
     Harris-Foulkes estimate   =    -367.88659063 Ry
     estimated scf accuracy    <       1.58101408 Ry

     iteration #  3     ecut=    50.00 Ry     beta= 0.70
     CG style diagonalization
     ethr =  2.47E-03,  avg # of iterations =  3.8

     total cpu time spent up to now is       99.4 secs

     total energy              =    -367.41462563 Ry
     Harris-Foulkes estimate   =    -367.41632050 Ry
     estimated scf accuracy    <       0.01051921 Ry

     iteration #  4     ecut=    50.00 Ry     beta= 0.70
     CG style diagonalization
     ethr =  1.64E-05,  avg # of iterations =  4.4

     total cpu time spent up to now is      132.6 secs

     total energy              =    -367.42595097 Ry
     Harris-Foulkes estimate   =    -367.42677341 Ry
     estimated scf accuracy    <       0.00229742 Ry

     iteration #  5     ecut=    50.00 Ry     beta= 0.70
     CG style diagonalization
     ethr =  3.59E-06,  avg # of iterations =  3.6

     total cpu time spent up to now is      160.5 secs

     total energy              =    -367.42634736 Ry
     Harris-Foulkes estimate   =    -367.42635259 Ry
     estimated scf accuracy    <       0.00009903 Ry

     iteration #  6     ecut=    50.00 Ry     beta= 0.70
     CG style diagonalization
     ethr =  1.55E-07,  avg # of iterations =  4.1

     total cpu time spent up to now is      191.6 secs

     total energy              =    -367.42637472 Ry
     Harris-Foulkes estimate   =    -367.42637546 Ry
     estimated scf accuracy    <       0.00000305 Ry

     iteration #  7     ecut=    50.00 Ry     beta= 0.70
     CG style diagonalization
     ethr =  4.77E-09,  avg # of iterations =  4.4

     total cpu time spent up to now is      225.4 secs

     total energy              =    -367.42637704 Ry
     Harris-Foulkes estimate   =    -367.42637727 Ry
     estimated scf accuracy    <       0.00000049 Ry

     iteration #  8     ecut=    50.00 Ry     beta= 0.70
     CG style diagonalization
     ethr =  7.61E-10,  avg # of iterations =  4.1

     total cpu time spent up to now is      256.4 secs

     total energy              =    -367.42637718 Ry
     Harris-Foulkes estimate   =    -367.42637719 Ry
     estimated scf accuracy    <       0.00000002 Ry

     iteration #  9     ecut=    50.00 Ry     beta= 0.70
     CG style diagonalization
     ethr =  2.90E-11,  avg # of iterations =  4.4

     total cpu time spent up to now is      290.2 secs

     End of self-consistent calculation

          k = 0.0000 0.0000 0.0000 (  4969 PWs)   bands (ev):

   -33.2045 -33.1891 -16.9653 -16.9582 -14.7683 -14.7683 -14.2902 -14.2902
   -14.1888 -14.0966 -13.7160 -13.7160 -13.0505 -13.0505  -3.0197  -2.7104
    -1.5484  -1.3170  -1.3170  -1.0196  -1.0196  -0.1889   2.6116   2.6116
     3.0484   3.0484   3.2689   3.2689   3.8871   3.8871   4.0856   4.5364

          k =-0.1411-0.0815 0.0416 (  4950 PWs)   bands (ev):

   -33.2039 -33.1895 -16.9743 -16.9453 -14.7681 -14.7252 -14.3649 -14.2958
   -14.2124 -14.1826 -13.6728 -13.5579 -13.1067 -13.0600  -2.9662  -2.7214
    -1.4991  -1.2953  -1.2745  -1.0453  -1.0130  -0.2458   2.6400   2.6733
     2.9937   3.0351   3.1698   3.2168   3.8025   3.8234   4.2035   4.5387

          k =-0.2822-0.1629 0.0832 (  4947 PWs)   bands (ev):

   -33.2024 -33.1907 -16.9894 -16.9189 -14.7688 -14.6434 -14.5435 -14.3379
   -14.2196 -14.2077 -13.5756 -13.3544 -13.2358 -13.0889  -2.8385  -2.7307
    -1.3942  -1.2356  -1.1633  -1.0799  -1.0114  -0.3756   2.6899   2.7703
     2.9032   2.9066   3.0538   3.0716   3.6467   3.6824   4.4146   4.5459

          k =-0.4233-0.2444 0.1247 (  4942 PWs)   bands (ev):

   -33.2002 -33.1925 -16.9884 -16.9069 -14.7621 -14.6389 -14.6103 -14.4310
   -14.2025 -14.1783 -13.4671 -13.3272 -13.2503 -13.1410  -2.7108  -2.7060
    -1.3430  -1.1863  -1.0405  -1.0280  -0.9992  -0.5060   2.5573   2.6350
     2.8551   2.8782   2.9906   3.1012   3.4904   3.5282   4.5666   4.5861

          k =-0.5644-0.3259 0.1663 (  4943 PWs)   bands (ev):

   -33.1976 -33.1949 -16.9628 -16.9263 -14.6973 -14.6478 -14.6267 -14.5644
   -14.1863 -14.1679 -13.3516 -13.3052 -13.2520 -13.2287  -2.6592  -2.6464
    -1.3183  -1.2464  -0.9974  -0.9889  -0.8029  -0.6336   2.4182   2.4805
     2.8155   2.8449   3.0818   3.1377   3.3961   3.4120   4.6137   4.6463

          k =-0.1411 0.0815 0.0832 (  4950 PWs)   bands (ev):

   -33.2038 -33.1897 -16.9752 -16.9448 -14.7446 -14.7444 -14.3587 -14.2956
   -14.2207 -14.2024 -13.6164 -13.5882 -13.0905 -13.0846  -2.9636  -2.7297
    -1.4824  -1.2884  -1.2786  -1.0503  -1.0108  -0.2571   2.6406   2.6792
     3.0001   3.0063   3.1983   3.2154   3.7725   3.8415   4.2044   4.5323

          k =-0.2822 0.0000 0.1247 (  4945 PWs)   bands (ev):

   -33.2027 -33.1905 -16.9876 -16.9249 -14.7519 -14.6912 -14.4623 -14.3380
   -14.2457 -14.2053 -13.5627 -13.4317 -13.1792 -13.0982  -2.8710  -2.7436
    -1.3962  -1.2539  -1.1972  -1.0804  -1.0024  -0.3564   2.6778   2.7588
     2.8903   2.9842   3.0509   3.1506   3.6397   3.7507   4.3617   4.5339

          k =-0.4233-0.0815 0.1663 (  4946 PWs)   bands (ev):

   -33.2008 -33.1921 -16.9904 -16.9101 -14.7548 -14.7043 -14.5078 -14.4130
   -14.2052 -14.2020 -13.4677 -13.4196 -13.1843 -13.1382  -2.7510  -2.7236
    -1.3306  -1.1928  -1.1250  -1.0170  -1.0030  -0.4766   2.6163   2.7332
     2.8069   2.8887   3.0019   3.0923   3.4865   3.6143   4.5392   4.5581

          k =-0.5644-0.1629 0.2079 (  4935 PWs)   bands (ev):

   -33.1984 -33.1942 -16.9685 -16.9234 -14.7441 -14.6885 -14.5480 -14.5095
   -14.1915 -14.1760 -13.4315 -13.3605 -13.2093 -13.1629  -2.6725  -2.6621
    -1.3052  -1.2306  -1.0601  -0.9868  -0.8393  -0.5847   2.4648   2.5541
     2.7849   2.8277   3.0290   3.1159   3.3976   3.4963   4.6128   4.6363

          k = 0.5644 0.4888-0.1247 (  4927 PWs)   bands (ev):

   -33.1966 -33.1958 -16.9597 -16.9283 -14.7344 -14.6622 -14.6153 -14.5157
   -14.1907 -14.1677 -13.4182 -13.3218 -13.2414 -13.1647  -2.6651  -2.6081
    -1.3157  -1.2471  -1.0196  -0.9668  -0.7269  -0.6781   2.3981   2.4693
     2.7575   2.8235   3.0458   3.1110   3.4069   3.4430   4.6262   4.6795

          k = 0.4233 0.4074-0.0832 (  4938 PWs)   bands (ev):

   -33.1991 -33.1934 -16.9924 -16.8963 -14.7893 -14.6627 -14.6034 -14.4216
   -14.2115 -14.1534 -13.4949 -13.3316 -13.2302 -13.1263  -2.7038  -2.6261
    -1.3496  -1.1684  -1.0381  -0.9819  -0.9194  -0.5626   2.4169   2.6122
     2.7602   2.8572   2.9668   3.1476   3.4239   3.5102   4.5755   4.6767

          k = 0.2822 0.3259-0.0416 (  4943 PWs)   bands (ev):

   -33.2014 -33.1915 -17.0016 -16.8965 -14.7679 -14.7001 -14.5165 -14.3856
   -14.2263 -14.1925 -13.4886 -13.4063 -13.1855 -13.1301  -2.7351  -2.7296
    -1.3539  -1.1823  -1.1011  -1.0815  -0.9893  -0.4563   2.6034   2.7442
     2.8236   2.9093   2.9333   3.1011   3.5189   3.6343   4.5467   4.5576

          k = 0.1411 0.2444 0.0000 (  4953 PWs)   bands (ev):

   -33.2031 -33.1901 -16.9891 -16.9225 -14.7469 -14.7055 -14.4059 -14.3914
   -14.2242 -14.2184 -13.5698 -13.4444 -13.1652 -13.0953  -2.8701  -2.7328
    -1.4259  -1.2570  -1.2093  -1.0827  -0.9946  -0.3320   2.6770   2.7603
     2.8834   3.0239   3.0303   3.1122   3.6754   3.7544   4.3595   4.5440

          k =-0.2822 0.1629 0.1663 (  4931 PWs)   bands (ev):

   -33.2021 -33.1910 -16.9998 -16.9098 -14.7320 -14.7123 -14.4193 -14.3973
   -14.2722 -14.2108 -13.4775 -13.4405 -13.1694 -13.1430  -2.8118  -2.7711
    -1.3280  -1.2404  -1.2200  -1.0464  -0.9889  -0.4153   2.6929   2.6982
     2.8814   2.9228   3.0528   3.1850   3.5303   3.7494   4.4304   4.5154

          k =-0.4233 0.0815 0.2079 (  4928 PWs)   bands (ev):

   -33.2008 -33.1921 -17.0079 -16.8928 -14.7803 -14.7114 -14.4558 -14.3806
   -14.2365 -14.2127 -13.5026 -13.4118 -13.1796 -13.1251  -2.7711  -2.7091
    -1.2907  -1.2135  -1.1700  -0.9779  -0.9716  -0.5053   2.5547   2.6929
     2.8186   2.9234   2.9980   3.1755   3.3935   3.6709   4.5192   4.5712

          k =-0.5644 0.0000 0.2495 (  4932 PWs)   bands (ev):

   -33.1989 -33.1936 -16.9924 -16.9010 -14.8104 -14.6644 -14.5490 -14.3965
   -14.2109 -14.1822 -13.5568 -13.3154 -13.2411 -13.0922  -2.7133  -2.6347
    -1.2859  -1.2036  -1.1376  -0.9690  -0.8304  -0.5727   2.4274   2.6048
     2.7770   2.8328   2.9752   3.1136   3.3729   3.5775   4.5751   4.6749

          k = 0.5644 0.6518-0.0832 (  4931 PWs)   bands (ev):

   -33.1968 -33.1956 -16.9514 -16.9384 -14.7770 -14.6670 -14.5764 -14.4566
   -14.2083 -14.1825 -13.4937 -13.3522 -13.2060 -13.1125  -2.6289  -2.6233
    -1.2917  -1.2380  -1.0936  -0.9560  -0.6906  -0.6503   2.4138   2.4593
     2.7304   2.7791   2.9768   3.0278   3.4332   3.5179   4.6718   4.6814

          k = 0.4233 0.5703-0.0416 (  4939 PWs)   bands (ev):

   -33.1977 -33.1947 -16.9811 -16.9053 -14.8016 -14.6817 -14.6064 -14.3714
   -14.2253 -14.1605 -13.5419 -13.3474 -13.2128 -13.0866  -2.6752  -2.5741
    -1.3479  -1.1624  -1.0715  -0.9602  -0.7945  -0.5981   2.3669   2.5437
     2.6909   2.7803   2.9535   3.0573   3.4778   3.4946   4.6196   4.7355

          k = 0.2822 0.4888 0.0000 (  4935 PWs)   bands (ev):

   -33.1997 -33.1928 -17.0039 -16.8842 -14.8249 -14.6720 -14.5917 -14.3285
   -14.2369 -14.1501 -13.5707 -13.3482 -13.2161 -13.0850  -2.7214  -2.6168
    -1.3538  -1.1355  -1.0545  -0.9805  -0.9709  -0.5385   2.4281   2.7196
     2.7263   2.8056   2.9120   3.1343   3.4506   3.5589   4.5653   4.6928

          k =-0.4233 0.2444 0.2495 (  4936 PWs)   bands (ev):

   -33.2002 -33.1925 -17.0271 -16.8676 -14.8068 -14.7810 -14.3715 -14.3082
   -14.2675 -14.2155 -13.5392 -13.4904 -13.1357 -13.0931  -2.8103  -2.6158
    -1.3156  -1.1621  -1.1584  -0.9605  -0.8929  -0.5725   2.4111   2.6510
     2.7646   2.9925   3.0068   3.2396   3.2711   3.6555   4.4794   4.6598

          k =-0.5644 0.1629 0.2911 (  4923 PWs)   bands (ev):

   -33.1991 -33.1934 -17.0258 -16.8636 -14.8515 -14.7747 -14.3998 -14.2998
   -14.2205 -14.1833 -13.6514 -13.4549 -13.1389 -13.0491  -2.7910  -2.5439
    -1.3241  -1.1818  -1.1053  -0.9475  -0.8004  -0.6104   2.3007   2.5765
     2.7498   2.9656   2.9927   3.0774   3.3645   3.5989   4.4956   4.7450

          k = 0.5644 0.8147-0.0416 (  4923 PWs)   bands (ev):

   -33.1977 -33.1947 -16.9942 -16.8955 -14.8263 -14.7162 -14.4770 -14.3835
   -14.2328 -14.1796 -13.5927 -13.3857 -13.1720 -13.0664  -2.7055  -2.5458
    -1.2732  -1.2457  -1.1209  -0.9418  -0.6987  -0.6178   2.2961   2.4959
     2.7554   2.8478   2.9518   2.9634   3.4461   3.5511   4.5895   4.7602

          k = 0.4233 0.7332 0.0000 (  4924 PWs)   bands (ev):

   -33.1961 -33.1961 -16.9447 -16.9445 -14.7628 -14.7297 -14.5178 -14.4369
   -14.2395 -14.1836 -13.4597 -13.4470 -13.1320 -13.1272  -2.6088  -2.6079
    -1.3145  -1.1780  -1.1439  -0.9455  -0.6830  -0.6208   2.4005   2.4133
     2.7329   2.7556   2.9312   2.9650   3.4803   3.5259   4.6975   4.7015

          k =-0.5644 0.3259 0.3327 (  4928 PWs)   bands (ev):

   -33.1989 -33.1935 -17.0446 -16.8385 -14.8695 -14.8620 -14.2755 -14.2543
   -14.2181 -14.1367 -13.7134 -13.6144 -13.0652 -13.0235  -2.8332  -2.4674
    -1.3672  -1.1561  -1.0602  -0.9320  -0.7585  -0.6583   2.1995   2.5240
     2.7690   2.9935   3.0185   3.0350   3.4019   3.5746   4.4414   4.8051

          k = 0.5644 0.9776 0.0000 (  4926 PWs)   bands (ev):

   -33.1984 -33.1940 -17.0328 -16.8517 -14.8608 -14.8346 -14.3157 -14.2709
   -14.2401 -14.1563 -13.7012 -13.5407 -13.0871 -13.0276  -2.7982  -2.4700
    -1.3459  -1.1893  -1.0701  -0.9304  -0.7276  -0.6395   2.1982   2.5014
     2.7806   2.9257   2.9905   2.9932   3.4431   3.5522   4.4819   4.8129

          k =-0.0000 0.0000 0.1247 (  4965 PWs)   bands (ev):

   -33.2040 -33.1896 -16.9654 -16.9587 -14.7594 -14.7594 -14.3194 -14.3194
   -14.1855 -14.0989 -13.6812 -13.6812 -13.0651 -13.0651  -3.0171  -2.7320
    -1.4975  -1.3081  -1.3081  -1.0287  -1.0287  -0.2246   2.6261   2.6261
     3.0369   3.0369   3.2837   3.2837   3.8638   3.8638   4.0972   4.5185

          k =-0.1411-0.0815 0.1663 (  4954 PWs)   bands (ev):

   -33.2032 -33.1903 -16.9724 -16.9482 -14.7732 -14.6926 -14.4486 -14.2822
   -14.2140 -14.1534 -13.6719 -13.4992 -13.1472 -13.0629  -2.9659  -2.7470
    -1.4329  -1.2857  -1.2481  -1.0520  -1.0332  -0.2972   2.6580   2.6885
     2.9768   3.0263   3.1691   3.2619   3.7627   3.7923   4.2142   4.5155

          k =-0.2822-0.1629 0.2079 (  4950 PWs)   bands (ev):

   -33.2015 -33.1916 -16.9786 -16.9316 -14.7719 -14.6088 -14.6000 -14.3104
   -14.2376 -14.1800 -13.5813 -13.3183 -13.2789 -13.0865  -2.8553  -2.7346
    -1.3507  -1.2312  -1.1160  -1.0684  -1.0419  -0.4220   2.6766   2.8012
     2.8968   2.9060   3.0079   3.1586   3.5969   3.6453   4.4096   4.5380

          k =-0.4233-0.2444 0.2495 (  4931 PWs)   bands (ev):

   -33.1992 -33.1935 -16.9642 -16.9345 -14.7400 -14.6868 -14.5672 -14.4420
   -14.1992 -14.1792 -13.4647 -13.3400 -13.2516 -13.1345  -2.7550  -2.6724
    -1.2984  -1.2289  -1.0768  -1.0244  -0.9081  -0.5403   2.5740   2.6202
     2.8267   2.8698   3.0332   3.1329   3.4367   3.5017   4.5514   4.5930

          k = 0.7056 0.4074-0.0832 (  4931 PWs)   bands (ev):

   -33.1966 -33.1958 -16.9626 -16.9278 -14.7345 -14.6606 -14.6027 -14.5191
   -14.1948 -14.1621 -13.4021 -13.3361 -13.2429 -13.1715  -2.7107  -2.5966
    -1.3119  -1.2465  -1.0424  -0.9620  -0.7383  -0.6731   2.3978   2.4909
     2.7756   2.8820   3.0542   3.2021   3.3294   3.4307   4.5877   4.6700

          k = 0.5644 0.3259-0.0416 (  4934 PWs)   bands (ev):

   -33.1983 -33.1941 -16.9951 -16.8915 -14.7730 -14.7164 -14.5484 -14.4646
   -14.2109 -14.1421 -13.4703 -13.3438 -13.2187 -13.1419  -2.7206  -2.5823
    -1.3624  -1.1669  -1.0379  -0.9523  -0.8574  -0.6099   2.3389   2.5502
     2.7505   2.9165   2.9966   3.2340   3.3284   3.4753   4.5570   4.7031

          k = 0.4233 0.2444 0.0000 (  4940 PWs)   bands (ev):

   -33.2007 -33.1920 -17.0083 -16.8847 -14.7888 -14.6874 -14.5532 -14.3771
   -14.2278 -14.1752 -13.5156 -13.3148 -13.2576 -13.1134  -2.7431  -2.6691
    -1.3530  -1.1642  -1.0830  -1.0097  -0.9964  -0.5032   2.4920   2.6798
     2.8326   2.9046   2.9344   3.1700   3.4381   3.6000   4.5363   4.6180

          k = 0.2822 0.1629 0.0416 (  4955 PWs)   bands (ev):

   -33.2026 -33.1905 -16.9967 -16.9113 -14.7491 -14.6901 -14.4686 -14.3708
   -14.2413 -14.2164 -13.5379 -13.3964 -13.1976 -13.1080  -2.8232  -2.7434
    -1.3866  -1.2327  -1.2115  -1.0672  -0.9915  -0.3741   2.6967   2.7294
     2.8935   2.9163   3.0390   3.1162   3.6067   3.7361   4.4214   4.5381

          k =-0.1411 0.0815 0.2079 (  4951 PWs)   bands (ev):

   -33.2028 -33.1906 -16.9747 -16.9467 -14.7492 -14.7037 -14.4412 -14.3105
   -14.2062 -14.1908 -13.5821 -13.5261 -13.1354 -13.0991  -2.9581  -2.7685
    -1.3891  -1.2661  -1.2581  -1.0660  -1.0268  -0.3302   2.6616   2.7050
     2.9643   2.9903   3.2108   3.2811   3.7054   3.8139   4.2194   4.4979

          k =-0.2822 0.0000 0.2495 (  4947 PWs)   bands (ev):

   -33.2016 -33.1917 -16.9829 -16.9319 -14.7540 -14.6667 -14.5138 -14.3091
   -14.2663 -14.1892 -13.5408 -13.4014 -13.2113 -13.1111  -2.8720  -2.7715
    -1.3211  -1.2419  -1.1706  -1.0637  -1.0235  -0.4287   2.6826   2.7587
     2.8958   2.9392   3.0825   3.2294   3.5581   3.7209   4.3690   4.5072

          k =-0.4233-0.0815 0.2911 (  4938 PWs)   bands (ev):

   -33.1997 -33.1932 -16.9750 -16.9292 -14.7323 -14.7251 -14.4972 -14.4080
   -14.2274 -14.1904 -13.4725 -13.4054 -13.2018 -13.1327  -2.7736  -2.7183
    -1.2740  -1.2094  -1.1534  -1.0178  -0.9256  -0.5288   2.6079   2.6870
     2.8513   2.8758   3.0006   3.1732   3.4103   3.5860   4.5240   4.5601

          k = 0.7056 0.5703-0.0416 (  4925 PWs)   bands (ev):

   -33.1974 -33.1951 -16.9530 -16.9419 -14.7614 -14.6614 -14.5805 -14.4550
   -14.2032 -14.1835 -13.4765 -13.3114 -13.2603 -13.1255  -2.7182  -2.6217
    -1.2859  -1.2295  -1.1057  -0.9766  -0.7618  -0.6227   2.4520   2.5289
     2.7724   2.8650   3.0112   3.1570   3.3574   3.4852   4.5932   4.6511

          k = 0.5644 0.4888 0.0000 (  4923 PWs)   bands (ev):

   -33.1973 -33.1951 -16.9888 -16.8985 -14.7922 -14.7068 -14.5700 -14.4073
   -14.2158 -14.1531 -13.5205 -13.3433 -13.2224 -13.1013  -2.7181  -2.5539
    -1.3556  -1.1612  -1.0749  -0.9497  -0.7591  -0.6422   2.3230   2.5197
     2.7081   2.8890   2.9967   3.1417   3.3879   3.4714   4.5742   4.7303

          k = 0.4233 0.4074 0.0416 (  4932 PWs)   bands (ev):

   -33.1995 -33.1930 -17.0112 -16.8756 -14.8298 -14.7021 -14.5586 -14.3332
   -14.2343 -14.1429 -13.5855 -13.3228 -13.2404 -13.0772  -2.7420  -2.5860
    -1.3618  -1.1346  -1.0438  -0.9974  -0.9157  -0.5626   2.3631   2.6549
     2.7106   2.8983   2.9415   3.1809   3.3903   3.5541   4.5398   4.7114

          k = 0.2822 0.3259 0.0832 (  4935 PWs)   bands (ev):

   -33.2014 -33.1915 -17.0077 -16.8905 -14.7730 -14.7113 -14.4938 -14.3684
   -14.2364 -14.2024 -13.5013 -13.4022 -13.1880 -13.1223  -2.7513  -2.7156
    -1.3384  -1.1782  -1.1635  -1.0329  -0.9780  -0.4670   2.5776   2.7285
     2.8417   2.8782   2.9620   3.1358   3.4757   3.6638   4.5353   4.5660

          k =-0.2822 0.1629 0.2911 (  4937 PWs)   bands (ev):

   -33.2009 -33.1922 -16.9979 -16.9143 -14.7625 -14.6618 -14.4827 -14.3620
   -14.2735 -14.1960 -13.4813 -13.4089 -13.1907 -13.1521  -2.8063  -2.8037
    -1.2670  -1.2217  -1.1991  -1.0085  -1.0073  -0.4952   2.6795   2.6879
     2.8837   2.9191   3.0895   3.2605   3.4310   3.7189   4.4427   4.4841

          k =-0.4233 0.0815 0.3327 (  4932 PWs)   bands (ev):

   -33.1996 -33.1932 -17.0017 -16.9027 -14.7884 -14.6951 -14.4467 -14.3815
   -14.2548 -14.2013 -13.5019 -13.4176 -13.1695 -13.1357  -2.7892  -2.7089
    -1.2571  -1.2084  -1.1641  -0.9975  -0.8974  -0.5665   2.5436   2.6524
     2.8342   2.9515   3.0277   3.1990   3.3289   3.6398   4.5053   4.5718

          k = 0.7056 0.7332 0.0000 (  4925 PWs)   bands (ev):

   -33.1980 -33.1946 -16.9786 -16.9190 -14.7877 -14.6793 -14.5026 -14.4190
   -14.2241 -14.2126 -13.5212 -13.3452 -13.2152 -13.1079  -2.7032  -2.6526
    -1.2377  -1.2270  -1.1636  -0.9803  -0.7562  -0.6065   2.4341   2.5397
     2.8068   2.8722   2.9865   3.0743   3.3700   3.5518   4.5892   4.6554

          k = 0.5644 0.6518 0.0416 (  4936 PWs)   bands (ev):

   -33.1962 -33.1962 -16.9572 -16.9344 -14.7730 -14.6864 -14.5660 -14.4077
   -14.2343 -14.1967 -13.4992 -13.3647 -13.1987 -13.1037  -2.6570  -2.5963
    -1.3146  -1.1667  -1.1439  -0.9655  -0.6707  -0.6438   2.3888   2.4386
     2.7368   2.8289   2.9593   3.0105   3.4397   3.5091   4.6517   4.7009

          k = 0.4233 0.5703 0.0832 (  4939 PWs)   bands (ev):

   -33.1979 -33.1945 -16.9908 -16.8955 -14.8233 -14.6797 -14.5994 -14.3223
   -14.2384 -14.1629 -13.5901 -13.3252 -13.2304 -13.0640  -2.6937  -2.5552
    -1.3493  -1.1579  -1.0614  -0.9842  -0.7814  -0.5929   2.3335   2.5478
     2.6860   2.8120   2.9424   3.0504   3.4622   3.5196   4.6006   4.7535

          k = 0.2822 0.4888 0.1247 (  4942 PWs)   bands (ev):

   -33.1995 -33.1931 -17.0010 -16.8886 -14.8218 -14.6677 -14.5808 -14.3556
   -14.2214 -14.1587 -13.5697 -13.3343 -13.2265 -13.0860  -2.7193  -2.6216
    -1.3356  -1.1612  -1.0854  -0.9848  -0.9092  -0.5478   2.4273   2.6711
     2.7562   2.8066   2.9377   3.1294   3.4199   3.5719   4.5675   4.6881

          k =-0.4233 0.2444 0.3742 (  4923 PWs)   bands (ev):

   -33.1992 -33.1935 -17.0234 -16.8745 -14.8355 -14.7492 -14.3717 -14.3078
   -14.2697 -14.1902 -13.5657 -13.5045 -13.1128 -13.0982  -2.8298  -2.6082
    -1.3175  -1.1574  -1.1162  -0.9821  -0.8332  -0.6236   2.4049   2.6078
     2.8197   3.0106   3.0225   3.1452   3.3088   3.6244   4.4671   4.6637

          k = 0.7056 0.8962 0.0416 (  4920 PWs)   bands (ev):

   -33.1983 -33.1942 -17.0194 -16.8732 -14.8365 -14.7792 -14.3669 -14.3014
   -14.2407 -14.2161 -13.5964 -13.5038 -13.1071 -13.0725  -2.7952  -2.5452
    -1.3213  -1.1824  -1.0885  -0.9728  -0.7499  -0.6343   2.3059   2.5406
     2.8071   2.9640   2.9884   3.0355   3.3784   3.5697   4.4988   4.7388

          k = 0.5644 0.8147 0.0832 (  4922 PWs)   bands (ev):

   -33.1973 -33.1951 -16.9869 -16.9046 -14.7999 -14.7339 -14.4377 -14.4151
   -14.2399 -14.2067 -13.5428 -13.4171 -13.1495 -13.0878  -2.6975  -2.5553
    -1.2787  -1.2445  -1.1005  -0.9697  -0.6754  -0.6218   2.3072   2.4685
     2.7873   2.8494   2.9326   2.9614   3.4557   3.5298   4.6018   4.7482

          k = 0.4233 0.7332 0.1247 (  4931 PWs)   bands (ev):

   -33.1961 -33.1961 -16.9446 -16.9445 -14.7557 -14.7394 -14.4983 -14.4587
   -14.2228 -14.1954 -13.4565 -13.4502 -13.1308 -13.1284  -2.6086  -2.6082
    -1.2958  -1.2428  -1.0666  -0.9834  -0.6637  -0.6334   2.4036   2.4100
     2.7388   2.7501   2.9389   2.9558   3.4924   3.5151   4.6985   4.7005

          k = 0.2822 0.6518 0.1663 (  4938 PWs)   bands (ev):

   -33.1973 -33.1951 -16.9674 -16.9203 -14.7821 -14.6882 -14.5728 -14.4449
   -14.2018 -14.1724 -13.4998 -13.3663 -13.1946 -13.1114  -2.6508  -2.5998
    -1.3099  -1.2362  -1.0246  -0.9938  -0.7451  -0.6222   2.3965   2.5095
     2.7273   2.7487   2.9735   3.0396   3.4588   3.5054   4.6439   4.7103

          k = 0.7056-0.4074-0.2911 (  4922 PWs)   bands (ev):

   -33.1984 -33.1940 -17.0392 -16.8460 -14.8720 -14.8425 -14.2749 -14.2735
   -14.2404 -14.1321 -13.6663 -13.6321 -13.0576 -13.0393  -2.8320  -2.4710
    -1.3694  -1.1536  -1.0347  -0.9650  -0.7380  -0.6648   2.2108   2.5148
     2.7960   2.9421   3.0315   3.0530   3.4029   3.5483   4.4494   4.7974

          k = 0.5644-0.4888-0.2495 (  4931 PWs)   bands (ev):

   -33.1983 -33.1941 -17.0276 -16.8574 -14.8545 -14.8185 -14.3776 -14.2582
   -14.2353 -14.1642 -13.6778 -13.5097 -13.1048 -13.0341  -2.7887  -2.4801
    -1.3552  -1.1759  -1.0463  -0.9647  -0.7332  -0.6339   2.2137   2.5114
     2.7451   2.9501   2.9832   3.0178   3.4351   3.5360   4.4943   4.8026

          k = 0.4233-0.5703-0.2079 (  4930 PWs)   bands (ev):

   -33.1979 -33.1945 -16.9955 -16.8922 -14.8335 -14.6977 -14.5445 -14.3419
   -14.2214 -14.1727 -13.6121 -13.3461 -13.2078 -13.0566  -2.7042  -2.5455
    -1.3175  -1.2122  -1.0657  -0.9773  -0.7350  -0.6048   2.3067   2.5260
     2.7130   2.8354   2.9435   3.0129   3.4506   3.5435   4.5895   4.7621

          k = 0.5644-0.3259-0.2079 (  4932 PWs)   bands (ev):

   -33.1990 -33.1934 -17.0384 -16.8443 -14.8571 -14.8418 -14.3442 -14.2666
   -14.2484 -14.1204 -13.6810 -13.5422 -13.0957 -13.0360  -2.8129  -2.4866
    -1.3736  -1.1421  -1.0420  -0.9663  -0.7935  -0.6335   2.2199   2.5609
     2.7110   2.9904   3.0160   3.1069   3.3759   3.5639   4.4614   4.7892

          k = 0.4233-0.4074-0.1663 (  4931 PWs)   bands (ev):

   -33.1995 -33.1930 -17.0228 -16.8642 -14.8508 -14.7473 -14.4806 -14.2857
   -14.2363 -14.1528 -13.6470 -13.3886 -13.1866 -13.0507  -2.7723  -2.5576
    -1.3465  -1.1569  -1.0801  -0.9727  -0.8572  -0.5825   2.3212   2.6352
     2.7006   2.9323   2.9676   3.1566   3.3630   3.5904   4.5108   4.7353

          k = 0.4233-0.2444-0.1247 (  4936 PWs)   bands (ev):

   -33.2007 -33.1920 -17.0218 -16.8710 -14.7952 -14.7562 -14.4603 -14.3228
   -14.2508 -14.1970 -13.5438 -13.4009 -13.1901 -13.0939  -2.7796  -2.6362
    -1.3349  -1.1617  -1.1442  -0.9771  -0.9469  -0.5285   2.4409   2.7087
     2.7407   2.9429   2.9796   3.2276   3.3488   3.6455   4.5048   4.6438

          k =-0.0000 0.0000 0.2495 (  4953 PWs)   bands (ev):

   -33.2027 -33.1909 -16.9656 -16.9601 -14.7328 -14.7328 -14.3896 -14.3896
   -14.1762 -14.1057 -13.5949 -13.5949 -13.1082 -13.1082  -3.0080  -2.7856
    -1.3584  -1.2823  -1.2823  -1.0548  -1.0548  -0.3288   2.6675   2.6675
     3.0031   3.0031   3.3274   3.3274   3.7988   3.7988   4.1310   4.4694

          k =-0.1411-0.0815 0.2911 (  4955 PWs)   bands (ev):

   -33.2017 -33.1918 -16.9695 -16.9530 -14.7596 -14.6480 -14.5301 -14.3317
   -14.1964 -14.1394 -13.6131 -13.4231 -13.2090 -13.0928  -2.9602  -2.7942
    -1.3154  -1.2614  -1.1893  -1.0684  -1.0675  -0.4084   2.6923   2.7238
     2.9489   2.9754   3.2189   3.3328   3.6697   3.7429   4.2375   4.4693

          k =-0.2822-0.1629 0.3327 (  4943 PWs)   bands (ev):

   -33.2000 -33.1931 -16.9654 -16.9475 -14.7658 -14.6513 -14.5665 -14.3037
   -14.2537 -14.1621 -13.5622 -13.3148 -13.2921 -13.0983  -2.8683  -2.7496
    -1.2732  -1.2264  -1.1167  -1.0739  -0.9862  -0.5125   2.6649   2.7954
     2.8892   2.9023   3.0209   3.2748   3.4907   3.6064   4.4080   4.5196

          k = 0.8467 0.4888 0.0000 (  4911 PWs)   bands (ev):

   -33.1979 -33.1948 -16.9635 -16.9379 -14.7853 -14.6323 -14.6003 -14.3779
   -14.2252 -14.1625 -13.5304 -13.3090 -13.2774 -13.1019  -2.7942  -2.6449
    -1.2725  -1.2249  -1.1055  -1.0181  -0.8196  -0.6026   2.5106   2.6429
     2.8203   2.9060   2.9793   3.2732   3.3319   3.4828   4.5175   4.6169

          k = 0.7056 0.4074 0.0416 (  4909 PWs)   bands (ev):

   -33.1968 -33.1957 -16.9959 -16.8940 -14.8027 -14.7387 -14.4946 -14.4138
   -14.2185 -14.1420 -13.5008 -13.4522 -13.1516 -13.1117  -2.7673  -2.5401
    -1.3532  -1.1579  -1.0865  -0.9552  -0.7092  -0.6910   2.3174   2.5333
     2.7352   2.9484   3.0001   3.2271   3.3175   3.4506   4.5311   4.7232

          k = 0.5644 0.3259 0.0832 (  4928 PWs)   bands (ev):

   -33.1988 -33.1936 -17.0212 -16.8629 -14.8271 -14.7899 -14.4431 -14.3602
   -14.2325 -14.1233 -13.5875 -13.4449 -13.1477 -13.0762  -2.7739  -2.5266
    -1.3778  -1.1239  -1.0320  -0.9900  -0.8378  -0.6110   2.2690   2.5876
     2.6959   2.9729   2.9760   3.2272   3.3188   3.5264   4.5035   4.7531

          k =-0.1411 0.0815 0.3327 (  4954 PWs)   bands (ev):

   -33.2011 -33.1924 -16.9729 -16.9506 -14.7385 -14.6472 -14.5265 -14.3777
   -14.1763 -14.1727 -13.5391 -13.4234 -13.2093 -13.1315  -2.9467  -2.8219
    -1.2805  -1.2320  -1.1836  -1.0825  -1.0590  -0.4599   2.7027   2.7468
     2.9146   2.9576   3.2589   3.3621   3.6109   3.7458   4.2503   4.4445

          k =-0.2822 0.0000 0.3742 (  4936 PWs)   bands (ev):

   -33.1998 -33.1934 -16.9753 -16.9420 -14.7448 -14.6640 -14.5248 -14.3603
   -14.2314 -14.1781 -13.5038 -13.3806 -13.2350 -13.1378  -2.8692  -2.8057
    -1.2429  -1.2156  -1.1578  -1.0612  -0.9871  -0.5444   2.6964   2.7605
     2.8777   2.9109   3.1415   3.3192   3.4635   3.6563   4.3834   4.4719

          k = 0.8467 0.6518 0.0416 (  4932 PWs)   bands (ev):

   -33.1981 -33.1947 -16.9567 -16.9508 -14.7525 -14.7030 -14.5017 -14.3735
   -14.2478 -14.1931 -13.4921 -13.3823 -13.2174 -13.1263  -2.7921  -2.7162
    -1.2351  -1.1954  -1.1651  -1.0389  -0.8299  -0.6093   2.5843   2.6507
     2.8848   2.8951   2.9943   3.2252   3.3808   3.5307   4.5097   4.5617

          k = 0.7056 0.5703 0.0832 (  4923 PWs)   bands (ev):

   -33.1963 -33.1962 -16.9810 -16.9152 -14.7925 -14.7013 -14.5275 -14.3677
   -14.2269 -14.1967 -13.5177 -13.3991 -13.1878 -13.1000  -2.7570  -2.5866
    -1.3167  -1.1526  -1.1298  -0.9930  -0.7005  -0.6651   2.3895   2.5315
     2.7874   2.9164   2.9737   3.1336   3.3964   3.4626   4.5529   4.6874

          k = 0.5644 0.4888 0.1247 (  4932 PWs)   bands (ev):

   -33.1979 -33.1945 -17.0123 -16.8737 -14.8323 -14.7743 -14.4735 -14.3053
   -14.2375 -14.1537 -13.6127 -13.4341 -13.1528 -13.0575  -2.7609  -2.5093
    -1.3658  -1.1430  -1.0491  -0.9873  -0.7509  -0.6289   2.2578   2.5295
     2.7035   2.9388   2.9773   3.0933   3.4113   3.5011   4.5278   4.7734

          k =-0.2822 0.1629 0.4158 (  4929 PWs)   bands (ev):

   -33.1992 -33.1939 -16.9910 -16.9237 -14.7779 -14.6055 -14.5503 -14.3726
   -14.2403 -14.1773 -13.5117 -13.3454 -13.2452 -13.1425  -2.8393  -2.7956
    -1.2573  -1.1744  -1.1523  -1.0474  -0.9241  -0.6069   2.6691   2.6964
     2.8862   2.9100   3.1439   3.3293   3.3428   3.6490   4.4527   4.4581

          k = 0.8467 0.8147 0.0832 (  4929 PWs)   bands (ev):

   -33.1981 -33.1947 -16.9893 -16.9183 -14.7873 -14.6799 -14.4741 -14.3652
   -14.2508 -14.2051 -13.5052 -13.4052 -13.1821 -13.1343  -2.8007  -2.7116
    -1.2609  -1.1790  -1.1268  -1.0423  -0.8080  -0.6450   2.5458   2.6304
     2.8626   2.9439   3.0676   3.1479   3.3660   3.5715   4.4983   4.5689

          k = 0.7056 0.7332 0.1247 (  4927 PWs)   bands (ev):

   -33.1969 -33.1957 -16.9605 -16.9399 -14.7537 -14.7137 -14.4563 -14.4293
   -14.2431 -14.2383 -13.4663 -13.4034 -13.1727 -13.1351  -2.6891  -2.6717
    -1.2454  -1.2355  -1.1033  -1.0290  -0.6942  -0.6457   2.4529   2.4877
     2.8531   2.8902   2.9842   3.0182   3.4236   3.4950   4.6093   4.6325

          k = 0.5644 0.6518 0.1663 (  4933 PWs)   bands (ev):

   -33.1968 -33.1956 -16.9741 -16.9182 -14.7692 -14.7356 -14.5037 -14.3829
   -14.2387 -14.2221 -13.5045 -13.4104 -13.1629 -13.0999  -2.6808  -2.5728
    -1.3068  -1.2175  -1.0500  -1.0252  -0.6666  -0.6274   2.3403   2.4491
     2.7662   2.8554   2.9397   2.9772   3.4724   3.4928   4.6239   4.7276

          k = 0.8467-0.4888-0.2495 (  4925 PWs)   bands (ev):

   -33.1979 -33.1949 -17.0107 -16.8903 -14.8410 -14.7047 -14.4605 -14.2950
   -14.2518 -14.1660 -13.6031 -13.4481 -13.1524 -13.0797  -2.8343  -2.6118
    -1.3186  -1.1470  -1.0612  -1.0446  -0.7632  -0.6781   2.4212   2.5995
     2.8692   2.9815   2.9892   3.1482   3.3483   3.5553   4.4707   4.6557

          k = 0.7056-0.5703-0.2079 (  4928 PWs)   bands (ev):

   -33.1974 -33.1952 -17.0040 -16.8913 -14.8161 -14.7534 -14.4384 -14.2941
   -14.2416 -14.2300 -13.5331 -13.4977 -13.1201 -13.0935  -2.7836  -2.5602
    -1.3262  -1.1700  -1.0474  -1.0352  -0.7065  -0.6594   2.3368   2.5292
     2.8257   2.9264   2.9762   3.0722   3.4028   3.5059   4.5195   4.7183

          k = 0.7056-0.4074-0.1663 (  4918 PWs)   bands (ev):

   -33.1977 -33.1947 -17.0224 -16.8655 -14.8493 -14.8005 -14.3800 -14.3230
   -14.2346 -14.1305 -13.5861 -13.5684 -13.0826 -13.0732  -2.8093  -2.4964
    -1.3698  -1.1357  -1.0457  -0.9873  -0.7270  -0.6682   2.2520   2.5291
     2.7535   2.9681   3.0021   3.1229   3.3839   3.4927   4.4822   4.7682

          k = 0.0000 0.0000 0.3742 (  4956 PWs)   bands (ev):

   -33.2006 -33.1930 -16.9655 -16.9619 -14.6892 -14.6892 -14.4740 -14.4740
   -14.1626 -14.1165 -13.4858 -13.4858 -13.1769 -13.1769  -2.9891  -2.8502
    -1.2429  -1.2429  -1.1599  -1.0946  -1.0946  -0.4927   2.7298   2.7298
     2.9494   2.9494   3.3977   3.3977   3.7042   3.7042   4.1832   4.4005

          k =-0.1411-0.0815 0.4158 (  4941 PWs)   bands (ev):

   -33.1996 -33.1939 -16.9656 -16.9588 -14.7282 -14.6017 -14.5931 -14.4082
   -14.1775 -14.1383 -13.5202 -13.3408 -13.2862 -13.1470  -2.9450  -2.8464
    -1.2269  -1.2208  -1.1211  -1.1137  -1.0237  -0.5703   2.7393   2.7757
     2.9076   2.9092   3.2963   3.4265   3.5590   3.6620   4.2749   4.4110

          k = 0.9878 0.5703 0.0832 (  4937 PWs)   bands (ev):

   -33.1981 -33.1950 -16.9642 -16.9510 -14.7682 -14.6514 -14.5489 -14.3459
   -14.2327 -14.1563 -13.5406 -13.3241 -13.2826 -13.1176  -2.8719  -2.7681
    -1.2301  -1.1865  -1.1301  -1.0987  -0.8704  -0.6400   2.6602   2.7624
     2.8778   2.9006   3.0912   3.3784   3.3937   3.5461   4.4130   4.4976

          k = 0.8467 0.4888 0.1247 (  4914 PWs)   bands (ev):

   -33.1964 -33.1963 -16.9900 -16.9124 -14.8235 -14.6528 -14.5509 -14.3157
   -14.2438 -14.1569 -13.5874 -13.3795 -13.2092 -13.0813  -2.8221  -2.6244
    -1.3042  -1.1427  -1.1200  -1.0268  -0.7420  -0.6823   2.4575   2.6192
     2.8661   2.9487   2.9502   3.2275   3.3650   3.4796   4.4889   4.6387

          k =-0.1411 0.0815 0.4574 (  4934 PWs)   bands (ev):

   -33.1988 -33.1946 -16.9694 -16.9556 -14.7126 -14.6038 -14.5788 -14.4497
   -14.1604 -14.1596 -13.4694 -13.3227 -13.2999 -13.1835  -2.9256  -2.8745
    -1.2215  -1.1913  -1.1468  -1.1037  -0.9707  -0.6347   2.7608   2.7964
     2.8612   2.9052   3.3380   3.4563   3.5040   3.6494   4.2954   4.3836

          k = 0.9878 0.7332 0.1247 (  4934 PWs)   bands (ev):

   -33.1977 -33.1955 -16.9653 -16.9537 -14.7233 -14.6921 -14.4856 -14.4251
   -14.1993 -14.1806 -13.4547 -13.4046 -13.2172 -13.1764  -2.8581  -2.8365
    -1.2046  -1.1849  -1.1477  -1.1025  -0.8516  -0.6924   2.7210   2.7486
     2.8694   2.8873   3.2248   3.3172   3.4658   3.5647   4.4059   4.4362

          k = 0.8467 0.6518 0.1663 (  4923 PWs)   bands (ev):

   -33.1964 -33.1964 -16.9717 -16.9371 -14.7745 -14.6818 -14.4961 -14.3597
   -14.2430 -14.2088 -13.5040 -13.3853 -13.2077 -13.1271  -2.8019  -2.7144
    -1.2529  -1.1760  -1.1097  -1.0743  -0.7347  -0.7074   2.5603   2.6309
     2.8906   2.9132   3.0403   3.1668   3.4343   3.4869   4.5002   4.5648

          k = 0.9878-0.5703-0.2079 (  4927 PWs)   bands (ev):

   -33.1971 -33.1960 -16.9794 -16.9365 -14.7778 -14.6109 -14.5606 -14.3756
   -14.2228 -14.1623 -13.5283 -13.2997 -13.2958 -13.1335  -2.8624  -2.7841
    -1.2433  -1.1510  -1.1182  -1.1073  -0.7877  -0.7380   2.6626   2.7234
     2.8808   2.9027   3.1653   3.2909   3.4205   3.5567   4.4279   4.4766

          k =-0.0000 0.0000 0.4990 (  4926 PWs)   bands (ev):

   -33.1981 -33.1955 -16.9650 -16.9637 -14.6297 -14.6297 -14.5566 -14.5566
   -14.1466 -14.1306 -13.3727 -13.3727 -13.2671 -13.2671  -2.9570  -2.9100
    -1.1946  -1.1946  -1.1432  -1.1432  -0.9316  -0.7007   2.8043   2.8043
     2.8807   2.8807   3.4899   3.4899   3.5961   3.5961   4.2493   4.3239

          k = 1.1289 0.6518 0.1663 (  4929 PWs)   bands (ev):

   -33.1971 -33.1963 -16.9645 -16.9608 -14.6898 -14.6491 -14.5365 -14.4836
   -14.1634 -14.1465 -13.4265 -13.3609 -13.2690 -13.2147  -2.9167  -2.8920
    -1.1922  -1.1597  -1.1596  -1.1479  -0.8348  -0.7667   2.7924   2.8218
     2.8508   2.8615   3.3875   3.4500   3.5275   3.5703   4.3249   4.3506

     highest occupied level (ev):     4.8129

!    total energy              =    -367.42637719 Ry
     Harris-Foulkes estimate   =    -367.42637719 Ry
     estimated scf accuracy    <          2.8E-09 Ry

     The total energy is the sum of the following terms:

     one-electron contribution =    -143.30313512 Ry
     hartree contribution      =     101.86145441 Ry
     xc contribution           =     -75.43777917 Ry
     ewald contribution        =    -250.54691731 Ry

     convergence has been achieved in   9 iterations

     Forces acting on atoms (cartesian axes, Ry/au):

     atom    1 type  1   force =     0.00000000   -0.00000000    0.00000000
     atom    2 type  1   force =     0.00000000   -0.00000000    0.00000000
     atom    3 type  2   force =     0.00000000    0.00000000    0.00000000
     atom    4 type  2   force =    -0.00000000    0.00000000    0.00000000
     atom    5 type  3   force =     0.01226287   -0.02123991   -0.00000000
     atom    6 type  3   force =    -0.02452574    0.00000000   -0.00000000
     atom    7 type  3   force =     0.01226287    0.02123991    0.00000000
     atom    8 type  3   force =     0.02452574   -0.00000000    0.00000000
     atom    9 type  3   force =    -0.01226287   -0.02123991   -0.00000000
     atom   10 type  3   force =    -0.01226287    0.02123991    0.00000000

     Total force =     0.060076     Total SCF correction =     0.000074


     Computing stress (Cartesian axis) and pressure

          total   stress  (Ry/bohr**3)                   (kbar)     P=   43.07
   0.00037023   0.00000000   0.00000000         54.46      0.00      0.00
  -0.00000000   0.00037023   0.00000000         -0.00     54.46      0.00
   0.00000000   0.00000000   0.00013791          0.00      0.00     20.29


     BFGS Geometry Optimization

     number of scf cycles    =   1
     number of bfgs steps    =   0

     enthalpy new            =    -367.4263771914 Ry

     new trust radius        =       0.0532153662 bohr
     new conv_thr            =       0.0000000100 Ry

     new unit-cell volume =    844.67781 a.u.^3 (   125.16834 Ang^3 )
     density =      2.65564 g/cm^3

CELL_PARAMETERS (alat= 12.00000000)
   0.397344373  -0.229406881   0.893763445
   0.000000000   0.458813762   0.893763445
  -0.397344373  -0.229406881   0.893763445

ATOMIC_POSITIONS (crystal)
Ca       0.500000000   0.500000000   0.500000000
Ca       0.000000000  -0.000000000   0.000000000
C        0.250000000   0.250000000   0.250000000
C        0.750000000   0.750000000   0.750000000
O        0.509622082   0.990377918   0.250000000
O        0.990377918   0.250000000   0.509622082
O        0.250000000   0.509622082   0.990377918
O        0.009622082   0.750000000   0.490377918
O        0.750000000   0.490377918   0.009622082
O        0.490377918   0.009622082   0.750000000



     Writing output data file CCO.save/
     NEW-OLD atomic charge density approx. for the potential

     Check: negative core charge=   -0.000003
     extrapolated charge   65.38413, renormalised to   64.00000

     total cpu time spent up to now is      293.9 secs

     Self-consistent Calculation

     iteration #  1     ecut=    50.00 Ry     beta= 0.70
     CG style diagonalization
     c_bands:  3 eigenvalues not converged
     c_bands:  5 eigenvalues not converged
     c_bands:  5 eigenvalues not converged
     c_bands:  3 eigenvalues not converged
     c_bands:  3 eigenvalues not converged
     c_bands:  5 eigenvalues not converged
     c_bands:  2 eigenvalues not converged
     c_bands:  5 eigenvalues not converged
     c_bands:  5 eigenvalues not converged
     c_bands:  5 eigenvalues not converged
     c_bands:  5 eigenvalues not converged
     c_bands:  4 eigenvalues not converged
     c_bands:  3 eigenvalues not converged
     c_bands:  3 eigenvalues not converged
     c_bands:  3 eigenvalues not converged
     c_bands:  2 eigenvalues not converged
     c_bands:  4 eigenvalues not converged
     c_bands:  2 eigenvalues not converged
     c_bands:  4 eigenvalues not converged
     c_bands:  4 eigenvalues not converged
     c_bands:  2 eigenvalues not converged
     c_bands:  4 eigenvalues not converged
     c_bands:  5 eigenvalues not converged
     c_bands:  4 eigenvalues not converged
     c_bands:  2 eigenvalues not converged
     c_bands:  4 eigenvalues not converged
     c_bands:  5 eigenvalues not converged
     c_bands:  4 eigenvalues not converged
     c_bands:  2 eigenvalues not converged
     c_bands:  4 eigenvalues not converged
     c_bands:  4 eigenvalues not converged
     c_bands:  4 eigenvalues not converged
     c_bands:  2 eigenvalues not converged
     c_bands:  5 eigenvalues not converged
     c_bands:  4 eigenvalues not converged
     c_bands:  4 eigenvalues not converged
     c_bands:  5 eigenvalues not converged
     c_bands:  5 eigenvalues not converged
     c_bands:  5 eigenvalues not converged
     c_bands:  3 eigenvalues not converged
     c_bands:  5 eigenvalues not converged
     c_bands:  5 eigenvalues not converged
     c_bands:  2 eigenvalues not converged
     c_bands:  4 eigenvalues not converged
     c_bands:  5 eigenvalues not converged
     c_bands:  4 eigenvalues not converged
     c_bands:  3 eigenvalues not converged
     c_bands:  1 eigenvalues not converged
     c_bands:  4 eigenvalues not converged
     c_bands:  3 eigenvalues not converged
     c_bands:  2 eigenvalues not converged
     ethr =  1.00E-06,  avg # of iterations = 13.0

     total cpu time spent up to now is      391.1 secs

     total energy              =    -367.30263407 Ry
     Harris-Foulkes estimate   =    -365.03937503 Ry
     estimated scf accuracy    <       0.09955186 Ry

     iteration #  2     ecut=    50.00 Ry     beta= 0.70
     CG style diagonalization
     ethr =  1.56E-04,  avg # of iterations =  4.9

     total cpu time spent up to now is      430.2 secs

     total energy              =    -367.41651404 Ry
     Harris-Foulkes estimate   =    -367.51638692 Ry
     estimated scf accuracy    <       0.26694545 Ry

     iteration #  3     ecut=    50.00 Ry     beta= 0.70
     CG style diagonalization
     ethr =  1.56E-04,  avg # of iterations =  3.7

     total cpu time spent up to now is      459.9 secs

     total energy              =    -367.42921455 Ry
     Harris-Foulkes estimate   =    -367.43731255 Ry
     estimated scf accuracy    <       0.03009413 Ry

     iteration #  4     ecut=    50.00 Ry     beta= 0.70
     CG style diagonalization
     ethr =  4.70E-05,  avg # of iterations =  3.0

     total cpu time spent up to now is      484.5 secs

     total energy              =    -367.42668980 Ry
     Harris-Foulkes estimate   =    -367.43034110 Ry
     estimated scf accuracy    <       0.01221262 Ry

     iteration #  5     ecut=    50.00 Ry     beta= 0.70
     CG style diagonalization
     ethr =  1.91E-05,  avg # of iterations =  3.2

     total cpu time spent up to now is      510.7 secs

     total energy              =    -367.42687424 Ry
     Harris-Foulkes estimate   =    -367.42756141 Ry
     estimated scf accuracy    <       0.00248855 Ry

     iteration #  6     ecut=    50.00 Ry     beta= 0.70
     CG style diagonalization
     ethr =  3.89E-06,  avg # of iterations =  3.2

     total cpu time spent up to now is      535.6 secs

     total energy              =    -367.42674408 Ry
     Harris-Foulkes estimate   =    -367.42704517 Ry
     estimated scf accuracy    <       0.00084024 Ry

     iteration #  7     ecut=    50.00 Ry     beta= 0.70
     CG style diagonalization
     ethr =  1.31E-06,  avg # of iterations =  3.5

     total cpu time spent up to now is      563.7 secs

     total energy              =    -367.42686332 Ry
     Harris-Foulkes estimate   =    -367.42687441 Ry
     estimated scf accuracy    <       0.00004427 Ry

     iteration #  8     ecut=    50.00 Ry     beta= 0.70
     CG style diagonalization
     ethr =  6.92E-08,  avg # of iterations =  4.0

     total cpu time spent up to now is      596.2 secs

     total energy              =    -367.42687335 Ry
     Harris-Foulkes estimate   =    -367.42687751 Ry
     estimated scf accuracy    <       0.00002412 Ry

     iteration #  9     ecut=    50.00 Ry     beta= 0.70
     CG style diagonalization
     ethr =  3.77E-08,  avg # of iterations =  3.2

     total cpu time spent up to now is      621.9 secs

     total energy              =    -367.42687002 Ry
     Harris-Foulkes estimate   =    -367.42687500 Ry
     estimated scf accuracy    <       0.00001073 Ry

     iteration # 10     ecut=    50.00 Ry     beta= 0.70
     CG style diagonalization
     ethr =  1.68E-08,  avg # of iterations =  3.6

     total cpu time spent up to now is      651.4 secs

     total energy              =    -367.42687224 Ry
     Harris-Foulkes estimate   =    -367.42687231 Ry
     estimated scf accuracy    <       0.00000012 Ry

     iteration # 11     ecut=    50.00 Ry     beta= 0.70
     CG style diagonalization
     ethr =  1.83E-10,  avg # of iterations =  4.8

     total cpu time spent up to now is      689.0 secs

     total energy              =    -367.42687249 Ry
     Harris-Foulkes estimate   =    -367.42687253 Ry
     estimated scf accuracy    <       0.00000019 Ry

     iteration # 12     ecut=    50.00 Ry     beta= 0.70
     CG style diagonalization
     ethr =  1.83E-10,  avg # of iterations =  3.1

     total cpu time spent up to now is      713.6 secs

     total energy              =    -367.42687246 Ry
     Harris-Foulkes estimate   =    -367.42687250 Ry
     estimated scf accuracy    <       0.00000008 Ry

     iteration # 13     ecut=    50.00 Ry     beta= 0.70
     CG style diagonalization
     ethr =  1.21E-10,  avg # of iterations =  3.5

     total cpu time spent up to now is      742.1 secs

     End of self-consistent calculation

          k = 0.0000 0.0000 0.0000 (  4969 PWs)   bands (ev):

   -33.4817 -33.4678 -16.8295 -16.8140 -14.9635 -14.9635 -14.5575 -14.5575
   -14.4647 -14.3361 -13.7339 -13.7339 -13.1446 -13.1446  -3.2562  -2.9928
    -1.5247  -1.4200  -1.4200  -1.1456  -1.1456  -0.1546   2.4350   2.4350
     2.8755   2.8755   3.0683   3.0683   3.6940   3.6940   3.8026   4.2492

          k =-0.1398-0.0807 0.0414 (  4950 PWs)   bands (ev):

   -33.4813 -33.4682 -16.8258 -16.8144 -14.9626 -14.9214 -14.6031 -14.5555
   -14.4817 -14.4123 -13.7035 -13.6179 -13.1975 -13.1546  -3.2064  -3.0021
    -1.4788  -1.3993  -1.3771  -1.1682  -1.1382  -0.2129   2.4618   2.4956
     2.8199   2.8621   2.9724   3.0174   3.6032   3.6304   3.9288   4.2521

          k =-0.2796-0.1614 0.0829 (  4947 PWs)   bands (ev):

   -33.4799 -33.4692 -16.8462 -16.7826 -14.9606 -14.8453 -14.7425 -14.5754
   -14.4839 -14.4571 -13.6283 -13.4425 -13.3189 -13.1851  -3.0884  -3.0089
    -1.4071  -1.3421  -1.2489  -1.1856  -1.1328  -0.3474   2.5086   2.5906
     2.7149   2.7305   2.8777   2.8787   3.4547   3.4902   4.1353   4.2604

          k =-0.4195-0.2422 0.1243 (  4942 PWs)   bands (ev):

   -33.4779 -33.4709 -16.8489 -16.7661 -14.9498 -14.8339 -14.8164 -14.6529
   -14.4564 -14.4341 -13.5377 -13.4065 -13.3460 -13.2396  -2.9836  -2.9724
    -1.4065  -1.2917  -1.1456  -1.1414  -1.0326  -0.4893   2.3814   2.4576
     2.6635   2.6918   2.8116   2.9245   3.3049   3.3383   4.2820   4.3016

          k =-0.5593-0.3229 0.1658 (  4943 PWs)   bands (ev):

   -33.4755 -33.4731 -16.8235 -16.7852 -14.8879 -14.8463 -14.8297 -14.7682
   -14.4402 -14.4210 -13.4386 -13.3902 -13.3445 -13.3261  -2.9361  -2.9182
    -1.3991  -1.3387  -1.1086  -1.0968  -0.8149  -0.6317   2.2470   2.3076
     2.6265   2.6582   2.9002   2.9565   3.2129   3.2262   4.3285   4.3602

          k =-0.1398 0.0807 0.0829 (  4950 PWs)   bands (ev):

   -33.4811 -33.4683 -16.8270 -16.8137 -14.9413 -14.9385 -14.5997 -14.5583
   -14.4755 -14.4330 -13.6617 -13.6417 -13.1834 -13.1767  -3.2041  -3.0088
    -1.4621  -1.3924  -1.3826  -1.1731  -1.1356  -0.2246   2.4627   2.5007
     2.8277   2.8289   2.9977   3.0223   3.5754   3.6482   3.9282   4.2458

          k =-0.2796-0.0000 0.1243 (  4945 PWs)   bands (ev):

   -33.4801 -33.4691 -16.8436 -16.7898 -14.9451 -14.8882 -14.6737 -14.5670
   -14.5036 -14.4645 -13.6180 -13.5095 -13.2675 -13.1924  -3.1183  -3.0202
    -1.4002  -1.3536  -1.2972  -1.1886  -1.1248  -0.3272   2.4973   2.5776
     2.7118   2.8050   2.8614   2.9625   3.4480   3.5570   4.0830   4.2484

          k =-0.4195-0.0807 0.1658 (  4946 PWs)   bands (ev):

   -33.4784 -33.4705 -16.8502 -16.7706 -14.9429 -14.8973 -14.7214 -14.6314
   -14.4633 -14.4589 -13.5372 -13.4925 -13.2822 -13.2339  -3.0087  -2.9998
    -1.3857  -1.2915  -1.2293  -1.1199  -1.0682  -0.4559   2.4387   2.5455
     2.6261   2.7048   2.8181   2.9164   3.2997   3.4228   4.2555   4.2739

          k =-0.5593-0.1614 0.2072 (  4935 PWs)   bands (ev):

   -33.4762 -33.4724 -16.8289 -16.7830 -14.9317 -14.8814 -14.7549 -14.7225
   -14.4465 -14.4316 -13.5051 -13.4437 -13.3072 -13.2618  -2.9411  -2.9391
    -1.3816  -1.3271  -1.1584  -1.0997  -0.8657  -0.5773   2.2915   2.3747
     2.6018   2.6417   2.8494   2.9361   3.2128   3.3076   4.3272   4.3508

          k = 0.5593 0.4843-0.1243 (  4927 PWs)   bands (ev):

   -33.4746 -33.4739 -16.8215 -16.7863 -14.9230 -14.8572 -14.8162 -14.7263
   -14.4474 -14.4197 -13.4972 -13.4097 -13.3354 -13.2647  -2.9394  -2.8851
    -1.4013  -1.3329  -1.1254  -1.0796  -0.7300  -0.6866   2.2260   2.2953
     2.5731   2.6376   2.8651   2.9320   3.2213   3.2556   4.3413   4.3923

          k = 0.4195 0.4036-0.0829 (  4938 PWs)   bands (ev):

   -33.4769 -33.4717 -16.8554 -16.7524 -14.9728 -14.8617 -14.8054 -14.6439
   -14.4706 -14.4052 -13.5613 -13.4181 -13.3202 -13.2310  -2.9802  -2.8959
    -1.4274  -1.2661  -1.1482  -1.0947  -0.9330  -0.5534   2.2448   2.4353
     2.5711   2.6724   2.7875   2.9698   3.2399   3.3202   4.2916   4.3893

          k = 0.2796 0.3229-0.0414 (  4943 PWs)   bands (ev):

   -33.4789 -33.4700 -16.8623 -16.7556 -14.9545 -14.8960 -14.7270 -14.6012
   -14.4911 -14.4488 -13.5555 -13.4829 -13.2796 -13.2273  -3.0119  -2.9885
    -1.4081  -1.2791  -1.2031  -1.1366  -1.1093  -0.4319   2.4267   2.5610
     2.6376   2.7327   2.7410   2.9272   3.3325   3.4420   4.2619   4.2742

          k = 0.1398 0.2422 0.0000 (  4953 PWs)   bands (ev):

   -33.4805 -33.4687 -16.8449 -16.7876 -14.9423 -14.8996 -14.6266 -14.6085
   -14.4954 -14.4687 -13.6248 -13.5212 -13.2549 -13.1887  -3.1173  -3.0119
    -1.4214  -1.3523  -1.3151  -1.1959  -1.1185  -0.3011   2.4969   2.5800
     2.7059   2.8434   2.8450   2.9198   3.4821   3.5612   4.0813   4.2583

          k =-0.2796 0.1614 0.1658 (  4931 PWs)   bands (ev):

   -33.4796 -33.4695 -16.8589 -16.7717 -14.9250 -14.9067 -14.6261 -14.6024
   -14.5350 -14.4841 -13.5492 -13.5138 -13.2616 -13.2338  -3.0634  -3.0445
    -1.3535  -1.3254  -1.3230  -1.1461  -1.1108  -0.3873   2.5120   2.5153
     2.7087   2.7395   2.8561   3.0048   3.3428   3.5563   4.1487   4.2308

          k =-0.4195 0.0807 0.2072 (  4928 PWs)   bands (ev):

   -33.4784 -33.4705 -16.8706 -16.7505 -14.9668 -14.9021 -14.6628 -14.6034
   -14.4922 -14.4815 -13.5668 -13.4871 -13.2742 -13.2236  -3.0432  -2.9692
    -1.3788  -1.2874  -1.2508  -1.0970  -1.0389  -0.4830   2.3758   2.5085
     2.6433   2.7371   2.8086   2.9985   3.2098   3.4785   4.2354   4.2863

          k =-0.5593-0.0000 0.2486 (  4932 PWs)   bands (ev):

   -33.4767 -33.4719 -16.8559 -16.7579 -14.9939 -14.8549 -14.7472 -14.6300
   -14.4747 -14.4366 -13.6134 -13.4014 -13.3348 -13.1960  -2.9879  -2.9035
    -1.3759  -1.3001  -1.2100  -1.0851  -0.8692  -0.5631   2.2520   2.4186
     2.5986   2.6539   2.7918   2.9362   3.1878   3.3863   4.2910   4.3878

          k = 0.5593 0.6458-0.0829 (  4931 PWs)   bands (ev):

   -33.4748 -33.4737 -16.8119 -16.7988 -14.9628 -14.8557 -14.7756 -14.6725
   -14.4673 -14.4412 -13.5639 -13.4397 -13.3025 -13.2150  -2.9035  -2.9013
    -1.3772  -1.3273  -1.1814  -1.0716  -0.7111  -0.6524   2.2377   2.2787
     2.5556   2.5974   2.7980   2.8507   3.2445   3.3274   4.3854   4.3951

          k = 0.4195 0.5651-0.0414 (  4939 PWs)   bands (ev):

   -33.4756 -33.4729 -16.8448 -16.7614 -14.9823 -14.8758 -14.8094 -14.5934
   -14.4894 -14.4117 -13.6050 -13.4332 -13.3075 -13.1926  -2.9513  -2.8510
    -1.4298  -1.2507  -1.1767  -1.0755  -0.7994  -0.6035   2.1938   2.3596
     2.5137   2.6017   2.7731   2.8824   3.2893   3.3038   4.3352   4.4468

          k = 0.2796 0.4843 0.0000 (  4935 PWs)   bands (ev):

   -33.4774 -33.4712 -16.8677 -16.7392 -15.0057 -14.8703 -14.7946 -14.5540
   -14.5089 -14.4014 -13.6225 -13.4341 -13.3067 -13.1915  -2.9975  -2.8860
    -1.4312  -1.2336  -1.1651  -1.0987  -0.9831  -0.5251   2.2552   2.5281
     2.5450   2.6276   2.7334   2.9585   3.2655   3.3672   4.2816   4.4049

          k =-0.4195 0.2422 0.2486 (  4936 PWs)   bands (ev):

   -33.4779 -33.4709 -16.8938 -16.7202 -14.9925 -14.9623 -14.6031 -14.5359
   -14.5112 -14.4873 -13.6049 -13.5460 -13.2365 -13.1944  -3.0789  -2.8836
    -1.4229  -1.2632  -1.1898  -1.0804  -0.9612  -0.5513   2.2362   2.4657
     2.5922   2.8021   2.8189   3.0605   3.0901   3.4641   4.1974   4.3718

          k =-0.5593 0.1614 0.2901 (  4923 PWs)   bands (ev):

   -33.4769 -33.4718 -16.8940 -16.7141 -15.0325 -14.9562 -14.6216 -14.5553
   -14.4912 -14.4248 -13.6912 -13.5209 -13.2405 -13.1553  -3.0601  -2.8193
    -1.4312  -1.2693  -1.1594  -1.0666  -0.8477  -0.5997   2.1294   2.3904
     2.5782   2.7785   2.8064   2.9013   3.1785   3.4085   4.2140   4.4550

          k = 0.5593 0.8072-0.0414 (  4923 PWs)   bands (ev):

   -33.4756 -33.4729 -16.8603 -16.7502 -15.0091 -14.8967 -14.6827 -14.6112
   -14.5012 -14.4369 -13.6490 -13.4665 -13.2710 -13.1716  -2.9791  -2.8246
    -1.3802  -1.3277  -1.1822  -1.0602  -0.7277  -0.6208   2.1230   2.3107
     2.5830   2.6705   2.7686   2.7864   3.2554   3.3608   4.3062   4.4709

          k = 0.4195 0.7265 0.0000 (  4924 PWs)   bands (ev):

   -33.4742 -33.4742 -16.8055 -16.8051 -14.9505 -14.9108 -14.7309 -14.6286
   -14.5112 -14.4435 -13.5356 -13.5266 -13.2329 -13.2288  -2.8865  -2.8860
    -1.3955  -1.2876  -1.2118  -1.0624  -0.6847  -0.6430   2.2205   2.2337
     2.5590   2.5808   2.7519   2.7890   3.2882   3.3356   4.4107   4.4150

          k =-0.5593 0.3229 0.3315 (  4928 PWs)   bands (ev):

   -33.4767 -33.4719 -16.9158 -16.6838 -15.0493 -15.0416 -14.5423 -14.5216
   -14.4914 -14.3644 -13.7464 -13.6404 -13.1725 -13.1310  -3.0992  -2.7498
    -1.4744  -1.2446  -1.1062  -1.0533  -0.8109  -0.6456   2.0328   2.3388
     2.5987   2.8166   2.8297   2.8469   3.2134   3.3868   4.1613   4.5130

          k = 0.5593 0.9687 0.0000 (  4926 PWs)   bands (ev):

   -33.4763 -33.4722 -16.9032 -16.6992 -15.0414 -15.0126 -14.5701 -14.5189
   -14.5115 -14.3934 -13.7363 -13.5892 -13.1932 -13.1350  -3.0662  -2.7534
    -1.4537  -1.2712  -1.1243  -1.0512  -0.7654  -0.6383   2.0308   2.3158
     2.6108   2.7519   2.8039   2.8048   3.2517   3.3649   4.2012   4.5211

          k = 0.0000-0.0000 0.1243 (  4965 PWs)   bands (ev):

   -33.4813 -33.4682 -16.8294 -16.8149 -14.9551 -14.9551 -14.5778 -14.5778
   -14.4603 -14.3394 -13.7081 -13.7081 -13.1586 -13.1586  -3.2539  -3.0097
    -1.4770  -1.4116  -1.4116  -1.1538  -1.1538  -0.1921   2.4489   2.4489
     2.8617   2.8617   3.0854   3.0854   3.6711   3.6711   3.8143   4.2316

          k =-0.1398-0.0807 0.1658 (  4954 PWs)   bands (ev):

   -33.4806 -33.4688 -16.8247 -16.8166 -14.9664 -14.8925 -14.6708 -14.5477
   -14.4785 -14.3923 -13.6997 -13.5676 -13.2347 -13.1587  -3.2064  -3.0219
    -1.4286  -1.3910  -1.3399  -1.1730  -1.1568  -0.2673   2.4786   2.5104
     2.7991   2.8504   2.9747   3.0664   3.5709   3.5944   3.9383   4.2292

          k =-0.2796-0.1614 0.2072 (  4950 PWs)   bands (ev):

   -33.4791 -33.4701 -16.8350 -16.7959 -14.9622 -14.8085 -14.8050 -14.5548
   -14.4969 -14.4277 -13.6297 -13.4105 -13.3575 -13.1845  -3.1045  -3.0093
    -1.3792  -1.3400  -1.2229  -1.1593  -1.1385  -0.3983   2.4945   2.6207
     2.7069   2.7240   2.8350   2.9702   3.4063   3.4529   4.1304   4.2523

          k =-0.4195-0.2422 0.2486 (  4931 PWs)   bands (ev):

   -33.4770 -33.4718 -16.8223 -16.7967 -14.9296 -14.8769 -14.7793 -14.6617
   -14.4579 -14.4294 -13.5310 -13.4191 -13.3516 -13.2329  -3.0147  -2.9501
    -1.3608  -1.3340  -1.1789  -1.1358  -0.9450  -0.5281   2.3953   2.4413
     2.6441   2.6816   2.8552   2.9512   3.2491   3.3144   4.2685   4.3071

          k = 0.6991 0.4036-0.0829 (  4931 PWs)   bands (ev):

   -33.4747 -33.4739 -16.8260 -16.7842 -14.9249 -14.8558 -14.8007 -14.7342
   -14.4534 -14.4109 -13.4745 -13.4292 -13.3380 -13.2694  -2.9795  -2.8763
    -1.4042  -1.3266  -1.1434  -1.0748  -0.7562  -0.6713   2.2257   2.3172
     2.5917   2.6935   2.8717   3.0197   3.1465   3.2446   4.3042   4.3824

          k = 0.5593 0.3229-0.0414 (  4934 PWs)   bands (ev):

   -33.4762 -33.4724 -16.8597 -16.7457 -14.9583 -14.9094 -14.7587 -14.6817
   -14.4700 -14.3909 -13.5450 -13.4229 -13.3131 -13.2457  -2.9944  -2.8574
    -1.4469  -1.2598  -1.1468  -1.0635  -0.8640  -0.6082   2.1693   2.3771
     2.5625   2.7289   2.8136   3.0525   3.1482   3.2867   4.2742   4.4145

          k = 0.4195 0.2422 0.0000 (  4940 PWs)   bands (ev):

   -33.4783 -33.4705 -16.8712 -16.7409 -14.9737 -14.8843 -14.7573 -14.6038
   -14.4866 -14.4303 -13.5799 -13.3996 -13.3459 -13.2147  -3.0190  -2.9330
    -1.4254  -1.2678  -1.1398  -1.1269  -1.0705  -0.4828   2.3170   2.5045
     2.6409   2.7238   2.7467   2.9934   3.2548   3.4085   4.2529   4.3319

          k = 0.2796 0.1614 0.0414 (  4955 PWs)   bands (ev):

   -33.4801 -33.4691 -16.8545 -16.7742 -14.9422 -14.8867 -14.6715 -14.5920
   -14.4948 -14.4877 -13.5995 -13.4782 -13.2854 -13.2017  -3.0739  -3.0211
    -1.3940  -1.3379  -1.3008  -1.1755  -1.1146  -0.3443   2.5159   2.5480
     2.7227   2.7313   2.8401   2.9385   3.4165   3.5429   4.1410   4.2530

          k =-0.1398 0.0807 0.2072 (  4951 PWs)   bands (ev):

   -33.4802 -33.4692 -16.8281 -16.8144 -14.9426 -14.9037 -14.6647 -14.5682
   -14.4626 -14.4283 -13.6333 -13.5877 -13.2237 -13.1931  -3.1992  -3.0399
    -1.3991  -1.3713  -1.3398  -1.1856  -1.1494  -0.3016   2.4830   2.5246
     2.7839   2.8145   3.0140   3.0909   3.5123   3.6212   3.9404   4.2119

          k =-0.2796 0.0000 0.2486 (  4947 PWs)   bands (ev):

   -33.4791 -33.4701 -16.8399 -16.7961 -14.9452 -14.8661 -14.7228 -14.5394
   -14.5238 -14.4473 -13.5974 -13.4805 -13.2978 -13.2067  -3.1197  -3.0417
    -1.3533  -1.3480  -1.2687  -1.1512  -1.1351  -0.4044   2.5012   2.5752
     2.7144   2.7599   2.8946   3.0435   3.3689   3.5278   4.0891   4.2221

          k =-0.4195-0.0807 0.2901 (  4938 PWs)   bands (ev):

   -33.4774 -33.4715 -16.8341 -16.7911 -14.9213 -14.9145 -14.7161 -14.6221
   -14.4885 -14.4454 -13.5382 -13.4802 -13.3001 -13.2302  -3.0306  -2.9918
    -1.3430  -1.3044  -1.2563  -1.1296  -0.9701  -0.5143   2.4280   2.4994
     2.6721   2.6932   2.8195   2.9923   3.2242   3.3950   4.2410   4.2752

          k = 0.6991 0.5651-0.0414 (  4925 PWs)   bands (ev):

   -33.4753 -33.4733 -16.8160 -16.7996 -14.9480 -14.8553 -14.7792 -14.6756
   -14.4639 -14.4353 -13.5429 -13.4021 -13.3540 -13.2263  -2.9842  -2.9004
    -1.3818  -1.3082  -1.1986  -1.0874  -0.7906  -0.6195   2.2767   2.3481
     2.5955   2.6786   2.8300   2.9763   3.1723   3.2960   4.3094   4.3642

          k = 0.5593 0.4843 0.0000 (  4923 PWs)   bands (ev):

   -33.4753 -33.4733 -16.8542 -16.7524 -14.9755 -14.8986 -14.7756 -14.6327
   -14.4775 -14.4005 -13.5872 -13.4259 -13.3190 -13.2056  -2.9899  -2.8335
    -1.4437  -1.2467  -1.1776  -1.0590  -0.7644  -0.6528   2.1524   2.3421
     2.5283   2.7028   2.8139   2.9642   3.2024   3.2820   4.2914   4.4411

          k = 0.4195 0.4036 0.0414 (  4932 PWs)   bands (ev):

   -33.4772 -33.4714 -16.8765 -16.7287 -15.0112 -14.8958 -14.7651 -14.5689
   -14.4993 -14.3925 -13.6374 -13.4064 -13.3325 -13.1835  -3.0162  -2.8580
    -1.4460  -1.2309  -1.1490  -1.0917  -0.9497  -0.5515   2.1918   2.4797
     2.5227   2.7125   2.7591   3.0039   3.2069   3.3630   4.2571   4.4225

          k = 0.2796 0.3229 0.0829 (  4935 PWs)   bands (ev):

   -33.4789 -33.4700 -16.8694 -16.7487 -14.9585 -14.9066 -14.7036 -14.5809
   -14.5057 -14.4609 -13.5668 -13.4793 -13.2809 -13.2205  -3.0270  -2.9750
    -1.4018  -1.2748  -1.2342  -1.1116  -1.0981  -0.4418   2.4000   2.5454
     2.6657   2.6895   2.7725   2.9612   3.2905   3.4711   4.2511   4.2818

          k =-0.2796 0.1614 0.2901 (  4937 PWs)   bands (ev):

   -33.4785 -33.4706 -16.8586 -16.7751 -14.9531 -14.8579 -14.6823 -14.5837
   -14.5335 -14.4643 -13.5442 -13.4892 -13.2784 -13.2479  -3.0731  -3.0564
    -1.3602  -1.3059  -1.2695  -1.1246  -1.0784  -0.4728   2.4955   2.5060
     2.7073   2.7358   2.8973   3.0782   3.2461   3.5267   4.1597   4.2002

          k =-0.4195 0.0807 0.3315 (  4932 PWs)   bands (ev):

   -33.4774 -33.4715 -16.8652 -16.7604 -14.9750 -14.8825 -14.6516 -14.6066
   -14.5214 -14.4626 -13.5621 -13.4940 -13.2648 -13.2354  -3.0569  -2.9700
    -1.3677  -1.2897  -1.2364  -1.1097  -0.9459  -0.5519   2.3634   2.4675
     2.6577   2.7671   2.8396   3.0207   3.1445   3.4484   4.2219   4.2866

          k = 0.6991 0.7265 0.0000 (  4925 PWs)   bands (ev):

   -33.4759 -33.4728 -16.8416 -16.7777 -14.9728 -14.8654 -14.6983 -14.6442
   -14.4892 -14.4718 -13.5855 -13.4296 -13.3109 -13.2098  -2.9762  -2.9216
    -1.3387  -1.3295  -1.2227  -1.0896  -0.7910  -0.6050   2.2566   2.3556
     2.6302   2.6928   2.8025   2.8967   3.1830   3.3609   4.3049   4.3692

          k = 0.5593 0.6458 0.0414 (  4936 PWs)   bands (ev):

   -33.4742 -33.4742 -16.8198 -16.7933 -14.9570 -14.8759 -14.7647 -14.6160
   -14.5001 -14.4568 -13.5703 -13.4518 -13.2948 -13.2063  -2.9307  -2.8750
    -1.4015  -1.2730  -1.2140  -1.0734  -0.6783  -0.6657   2.2124   2.2574
     2.5642   2.6477   2.7787   2.8336   3.2505   3.3179   4.3667   4.4136

          k = 0.4195 0.5651 0.0829 (  4939 PWs)   bands (ev):

   -33.4758 -33.4727 -16.8558 -16.7503 -15.0033 -14.8725 -14.8007 -14.5493
   -14.5098 -14.4124 -13.6453 -13.4122 -13.3243 -13.1708  -2.9688  -2.8331
    -1.4342  -1.2446  -1.1672  -1.0872  -0.7969  -0.5978   2.1609   2.3613
     2.5126   2.6330   2.7605   2.8757   3.2740   3.3281   4.3169   4.4642

          k = 0.2796 0.4843 0.1243 (  4942 PWs)   bands (ev):

   -33.4773 -33.4714 -16.8648 -16.7441 -15.0035 -14.8638 -14.7822 -14.5880
   -14.4870 -14.4107 -13.6224 -13.4206 -13.3179 -13.1917  -2.9951  -2.8907
    -1.4158  -1.2595  -1.1741  -1.0992  -0.9438  -0.5351   2.2536   2.4834
     2.5735   2.6295   2.7566   2.9530   3.2350   3.3805   4.2837   4.4004

          k =-0.4195 0.2422 0.3730 (  4923 PWs)   bands (ev):

   -33.4770 -33.4718 -16.8911 -16.7268 -15.0186 -14.9313 -14.5817 -14.5591
   -14.5369 -14.4454 -13.6047 -13.5777 -13.2125 -13.2022  -3.0945  -2.8777
    -1.4257  -1.2585  -1.1684  -1.0934  -0.8810  -0.6118   2.2295   2.4225
     2.6460   2.8230   2.8360   2.9645   3.1248   3.4342   4.1856   4.3755

          k = 0.6991 0.8880 0.0414 (  4920 PWs)   bands (ev):

   -33.4762 -33.4724 -16.8879 -16.7244 -15.0182 -14.9590 -14.5960 -14.5437
   -14.5097 -14.4576 -13.6491 -13.5644 -13.2105 -13.1771  -3.0621  -2.8219
    -1.4284  -1.2725  -1.1489  -1.0828  -0.7872  -0.6342   2.1338   2.3550
     2.6347   2.7861   2.8029   2.8505   3.1901   3.3805   4.2175   4.4491

          k = 0.5593 0.8072 0.0829 (  4922 PWs)   bands (ev):

   -33.4753 -33.4732 -16.8525 -16.7604 -14.9843 -14.9136 -14.6543 -14.6172
   -14.5113 -14.4672 -13.6099 -13.4948 -13.2499 -13.1911  -2.9707  -2.8343
    -1.3808  -1.3287  -1.1682  -1.0799  -0.7018  -0.6318   2.1331   2.2846
     2.6146   2.6745   2.7527   2.7787   3.2641   3.3401   4.3182   4.4595

          k = 0.4195 0.7265 0.1243 (  4931 PWs)   bands (ev):

   -33.4742 -33.4742 -16.8054 -16.8052 -14.9424 -14.9229 -14.7074 -14.6588
   -14.4880 -14.4561 -13.5333 -13.5288 -13.2318 -13.2298  -2.8864  -2.8861
    -1.3785  -1.3321  -1.1581  -1.0910  -0.6730  -0.6523   2.2237   2.2303
     2.5647   2.5756   2.7603   2.7788   3.3008   3.3244   4.4117   4.4139

          k = 0.2796 0.6458 0.1658 (  4938 PWs)   bands (ev):

   -33.4753 -33.4732 -16.8296 -16.7783 -14.9661 -14.8796 -14.7747 -14.6634
   -14.4620 -14.4265 -13.5686 -13.4510 -13.2913 -13.2153  -2.9279  -2.8755
    -1.3928  -1.3235  -1.1276  -1.1031  -0.7608  -0.6249   2.2220   2.3279
     2.5468   2.5717   2.7947   2.8632   3.2706   3.3151   4.3585   4.4227

          k = 0.6991-0.4036-0.2901 (  4922 PWs)   bands (ev):

   -33.4763 -33.4723 -16.9103 -16.6921 -15.0514 -15.0229 -14.5422 -14.5262
   -14.5116 -14.3659 -13.7135 -13.6534 -13.1653 -13.1458  -3.0971  -2.7541
    -1.4745  -1.2413  -1.0928  -1.0770  -0.7806  -0.6620   2.0435   2.3296
     2.6261   2.7641   2.8435   2.8651   3.2131   3.3615   4.1695   4.5056

          k = 0.5593-0.4843-0.2486 (  4931 PWs)   bands (ev):

   -33.4762 -33.4724 -16.8974 -16.7057 -15.0343 -14.9992 -14.6117 -14.5210
   -14.5054 -14.3953 -13.7180 -13.5651 -13.2096 -13.1415  -3.0571  -2.7631
    -1.4577  -1.2593  -1.1096  -1.0790  -0.7689  -0.6360   2.0459   2.3261
     2.5748   2.7685   2.7976   2.8364   3.2447   3.3482   4.2135   4.5111

          k = 0.4195-0.5651-0.2072 (  4930 PWs)   bands (ev):

   -33.4758 -33.4727 -16.8613 -16.7465 -15.0146 -14.8841 -14.7468 -14.5798
   -14.4888 -14.4234 -13.6634 -13.4305 -13.3042 -13.1632  -2.9784  -2.8240
    -1.4106  -1.2971  -1.1443  -1.0913  -0.7631  -0.6068   2.1341   2.3397
     2.5409   2.6566   2.7605   2.8375   3.2617   3.3524   4.3061   4.4726

          k = 0.5593-0.3229-0.2072 (  4932 PWs)   bands (ev):

   -33.4769 -33.4717 -16.9084 -16.6910 -15.0372 -15.0238 -14.5904 -14.5225
   -14.5158 -14.3606 -13.7201 -13.5866 -13.2008 -13.1435  -3.0809  -2.7673
    -1.4749  -1.2320  -1.0941  -1.0842  -0.8451  -0.6232   2.0528   2.3764
     2.5393   2.8008   2.8279   2.9310   3.1897   3.3749   4.1809   4.4976

          k = 0.4195-0.4036-0.1658 (  4931 PWs)   bands (ev):

   -33.4772 -33.4714 -16.8899 -16.7154 -15.0314 -14.9341 -14.6946 -14.5359
   -14.5055 -14.3994 -13.6866 -13.4629 -13.2846 -13.1575  -3.0440  -2.8316
    -1.4420  -1.2493  -1.1429  -1.0889  -0.9069  -0.5695   2.1502   2.4480
     2.5286   2.7450   2.7824   2.9802   3.1790   3.3992   4.2288   4.4456

          k = 0.4195-0.2422-0.1243 (  4936 PWs)   bands (ev):

   -33.4783 -33.4705 -16.8868 -16.7250 -14.9778 -14.9464 -14.6765 -14.5468
   -14.5149 -14.4542 -13.6059 -13.4725 -13.2858 -13.1958  -3.0523  -2.9022
    -1.4251  -1.2635  -1.1797  -1.0977  -1.0263  -0.5057   2.2661   2.5277
     2.5631   2.7536   2.7915   3.0493   3.1679   3.4535   4.2222   4.3565

          k = 0.0000-0.0000 0.2486 (  4953 PWs)   bands (ev):

   -33.4801 -33.4694 -16.8290 -16.8172 -14.9303 -14.9303 -14.6304 -14.6304
   -14.4477 -14.3493 -13.6398 -13.6398 -13.1995 -13.1995  -3.2458  -3.0530
    -1.3875  -1.3875  -1.3442  -1.1777  -1.1777  -0.3012   2.4887   2.4887
     2.8238   2.8238   3.1333   3.1333   3.6071   3.6071   3.8481   4.1833

          k =-0.1398-0.0807 0.2901 (  4955 PWs)   bands (ev):

   -33.4792 -33.4702 -16.8236 -16.8198 -14.9526 -14.8530 -14.7418 -14.5826
   -14.4616 -14.3841 -13.6511 -13.4997 -13.2919 -13.1883  -3.2017  -3.0599
    -1.3690  -1.3642  -1.2463  -1.1887  -1.1744  -0.3841   2.5111   2.5442
     2.7676   2.7942   3.0302   3.1410   3.4794   3.5484   3.9587   4.1837

          k =-0.2796-0.1614 0.3315 (  4943 PWs)   bands (ev):

   -33.4777 -33.4714 -16.8220 -16.8120 -14.9542 -14.8466 -14.7803 -14.5361
   -14.5219 -14.4105 -13.6094 -13.3911 -13.3862 -13.1976  -3.1178  -3.0185
    -1.3378  -1.3246  -1.2300  -1.1859  -1.0290  -0.4954   2.4820   2.6094
     2.7057   2.7176   2.8459   3.0885   3.3020   3.4150   4.1279   4.2340

          k = 0.8389 0.4843 0.0000 (  4911 PWs)   bands (ev):

   -33.4758 -33.4730 -16.8283 -16.7938 -14.9705 -14.8266 -14.8041 -14.6103
   -14.4894 -14.4107 -13.5806 -13.4050 -13.3644 -13.2044  -3.0530  -2.9211
[...]
    -1.4568  -1.4509  -1.3642  -1.2224  -0.9726  -0.8116   2.1720   2.2699
     2.5410   2.5966   2.7118   2.8072   3.0848   3.2546   4.2726   4.3329

          k = 0.5597 0.6463 0.0409 (  5091 PWs)   bands (ev):

   -33.6770 -33.6770 -17.0714 -17.0480 -15.1144 -15.0379 -14.9384 -14.8032
   -14.6963 -14.6585 -13.7593 -13.6503 -13.5029 -13.4207  -2.9648  -2.9111
    -1.5215  -1.3946  -1.3527  -1.2071  -0.8770  -0.8607   2.1258   2.1741
     2.4741   2.5506   2.6870   2.7464   3.1481   3.2141   4.3333   4.3796

          k = 0.4198 0.5655 0.0819 (  5100 PWs)   bands (ev):

   -33.6784 -33.6756 -17.1035 -17.0105 -15.1587 -15.0343 -14.9706 -14.7401
   -14.7023 -14.6220 -13.8288 -13.6142 -13.5298 -13.3865  -2.9983  -2.8741
    -1.5535  -1.3735  -1.2962  -1.2201  -0.9861  -0.8034   2.0754   2.2772
     2.4201   2.5383   2.6727   2.7828   3.1683   3.2237   4.2863   4.4278

          k = 0.2798 0.4847 0.1228 (  5098 PWs)   bands (ev):

   -33.6798 -33.6745 -17.1124 -17.0058 -15.1579 -15.0281 -14.9514 -14.7722
   -14.6820 -14.6208 -13.8081 -13.6198 -13.5266 -13.4062  -3.0253  -2.9366
    -1.5382  -1.3840  -1.3063  -1.2275  -1.1179  -0.7500   2.1674   2.3937
     2.4820   2.5403   2.6705   2.8564   3.1313   3.2735   4.2524   4.3625

          k =-0.4198 0.2424 0.3684 (  5096 PWs)   bands (ev):

   -33.6795 -33.6749 -17.1357 -16.9909 -15.1705 -15.0914 -14.7699 -14.7476
   -14.7314 -14.6438 -13.7875 -13.7679 -13.4269 -13.4185  -3.1257  -2.9277
    -1.5370  -1.3832  -1.3160  -1.2261  -1.0518  -0.8206   2.1451   2.3410
     2.5519   2.7253   2.7503   2.8729   3.0309   3.3214   4.1559   4.3383

          k = 0.6996 0.8886 0.0409 (  5103 PWs)   bands (ev):

   -33.6788 -33.6754 -17.1323 -16.9883 -15.1707 -15.1173 -14.7836 -14.7338
   -14.7025 -14.6612 -13.8305 -13.7526 -13.4263 -13.3933  -3.0917  -2.8685
    -1.5404  -1.3994  -1.2946  -1.2174  -0.9668  -0.8377   2.0493   2.2739
     2.5366   2.6979   2.7123   2.7590   3.0931   3.2700   4.1889   4.4119

          k = 0.5597 0.8078 0.0819 (  5096 PWs)   bands (ev):

   -33.6780 -33.6761 -17.1003 -17.0191 -15.1394 -15.0749 -14.8370 -14.8050
   -14.7052 -14.6673 -13.7953 -13.6890 -13.4630 -13.4060  -3.0013  -2.8741
    -1.4976  -1.4540  -1.3103  -1.2144  -0.8914  -0.8330   2.0498   2.2025
     2.5144   2.5821   2.6663   2.6910   3.1628   3.2331   4.2875   4.4234

          k = 0.4198 0.7271 0.1228 (  5090 PWs)   bands (ev):

   -33.6770 -33.6770 -17.0585 -17.0584 -15.1005 -15.0834 -14.8851 -14.8425
   -14.6850 -14.6574 -13.7259 -13.7225 -13.4437 -13.4421  -2.9203  -2.9201
    -1.5013  -1.4556  -1.2928  -1.2242  -0.8723  -0.8494   2.1407   2.1466
     2.4703   2.4788   2.6729   2.6912   3.1968   3.2184   4.3782   4.3800

          k = 0.2798 0.6463 0.1637 (  5107 PWs)   bands (ev):

   -33.6780 -33.6761 -17.0804 -17.0351 -15.1232 -15.0425 -14.9455 -14.8423
   -14.6625 -14.6336 -13.7587 -13.6507 -13.4989 -13.4280  -2.9600  -2.9138
    -1.5154  -1.4479  -1.2583  -1.2334  -0.9525  -0.8298   2.1352   2.2393
     2.4555   2.4803   2.7068   2.7710   3.1657   3.2098   4.3265   4.3875

          k = 0.6996-0.4039-0.2865 (  5088 PWs)   bands (ev):

   -33.6789 -33.6753 -17.1521 -16.9604 -15.2016 -15.1765 -14.7361 -14.7145
   -14.7059 -14.5804 -13.8897 -13.8310 -13.3837 -13.3634  -3.1241  -2.8026
    -1.5839  -1.3706  -1.2425  -1.2118  -0.9580  -0.8640   1.9582   2.2502
     2.5262   2.6817   2.7452   2.7757   3.1142   3.2501   4.1446   4.4681

          k = 0.5597-0.4847-0.2456 (  5087 PWs)   bands (ev):

   -33.6788 -33.6753 -17.1404 -16.9719 -15.1870 -15.1534 -14.7965 -14.7144
   -14.6976 -14.6079 -13.8931 -13.7521 -13.4252 -13.3594  -3.0842  -2.8091
    -1.5696  -1.3886  -1.2559  -1.2126  -0.9498  -0.8389   1.9610   2.2459
     2.4799   2.6772   2.7004   2.7507   3.1420   3.2397   4.1875   4.4737

          k = 0.4198-0.5655-0.2046 (  5104 PWs)   bands (ev):

   -33.6784 -33.6756 -17.1083 -17.0071 -15.1686 -15.0463 -14.9216 -14.7674
   -14.6842 -14.6312 -13.8444 -13.6301 -13.5127 -13.3795  -3.0076  -2.8654
    -1.5288  -1.4236  -1.2832  -1.2229  -0.9489  -0.8127   2.0500   2.2569
     2.4469   2.5616   2.6721   2.7476   3.1571   3.2459   4.2762   4.4359

          k = 0.5597-0.3231-0.2046 (  5095 PWs)   bands (ev):

   -33.6794 -33.6748 -17.1506 -16.9596 -15.1895 -15.1756 -14.7779 -14.7109
   -14.7096 -14.5768 -13.8955 -13.7711 -13.4169 -13.3612  -3.1075  -2.8165
    -1.5859  -1.3606  -1.2450  -1.2153  -1.0157  -0.8307   1.9674   2.2950
     2.4482   2.7082   2.7308   2.8410   3.0862   3.2659   4.1561   4.4599

          k = 0.4198-0.4039-0.1637 (  5102 PWs)   bands (ev):

   -33.6797 -33.6745 -17.1345 -16.9807 -15.1839 -15.0925 -14.8720 -14.7275
   -14.6964 -14.6105 -13.8656 -13.6586 -13.4956 -13.3746  -3.0722  -2.8798
    -1.5573  -1.3761  -1.2866  -1.2193  -1.0758  -0.7818   2.0649   2.3640
     2.4379   2.6538   2.6898   2.8849   3.0764   3.2905   4.2005   4.4077

          k = 0.4198-0.2424-0.1228 (  5094 PWs)   bands (ev):

   -33.6808 -33.6736 -17.1324 -16.9895 -15.1339 -15.1031 -14.8556 -14.7323
   -14.7104 -14.6564 -13.7928 -13.6671 -13.4972 -13.4117  -3.0824  -2.9536
    -1.5427  -1.3864  -1.3333  -1.2250  -1.1762  -0.7246   2.1804   2.4386
     2.4778   2.6668   2.6952   2.9515   3.0681   3.3426   4.1914   4.3183

          k = 0.0000-0.0000 0.2456 (  5115 PWs)   bands (ev):

   -33.6824 -33.6727 -17.0826 -17.0738 -15.0882 -15.0882 -14.8142 -14.8142
   -14.6415 -14.5580 -13.8194 -13.8194 -13.4181 -13.4181  -3.2992  -3.0991
    -1.5171  -1.5007  -1.5007  -1.3010  -1.3010  -0.5379   2.4101   2.4101
     2.7404   2.7404   3.0371   3.0371   3.4956   3.4956   3.8203   4.1423

          k =-0.1399-0.0808 0.2865 (  5103 PWs)   bands (ev):

   -33.6816 -33.6734 -17.0788 -17.0742 -15.1095 -15.0161 -14.9152 -14.7713
   -14.6546 -14.5899 -13.8301 -13.6920 -13.5044 -13.4072  -3.2537  -3.1043
    -1.4990  -1.4828  -1.3945  -1.3112  -1.3084  -0.6142   2.4319   2.4613
     2.6839   2.7078   2.9385   3.0442   3.3731   3.4412   3.9236   4.1448

          k =-0.2798-0.1616 0.3274 (  5093 PWs)   bands (ev):

   -33.6802 -33.6745 -17.0762 -17.0664 -15.1120 -15.0110 -14.9482 -14.7284
   -14.7128 -14.6153 -13.7932 -13.5955 -13.5872 -13.4152  -3.1654  -3.0599
    -1.4637  -1.4531  -1.3524  -1.3097  -1.1966  -0.7152   2.3998   2.5215
     2.6090   2.6330   2.7649   2.9897   3.2017   3.3110   4.0903   4.1982

          k = 0.8395 0.4847 0.0000 (  5110 PWs)   bands (ev):

   -33.6784 -33.6759 -17.0799 -17.0501 -15.1270 -14.9925 -14.9700 -14.7946
   -14.6890 -14.6175 -13.7673 -13.6053 -13.5685 -13.4205  -3.0931  -2.9613
    -1.4919  -1.4274  -1.3360  -1.2548  -1.0311  -0.8056   2.2443   2.3680
     2.5526   2.6304   2.7130   2.9900   3.0502   3.1937   4.2004   4.2962

          k = 0.6996 0.4039 0.0409 (  5108 PWs)   bands (ev):

   -33.6776 -33.6766 -17.1101 -17.0075 -15.1421 -15.0855 -14.8777 -14.8285
   -14.6826 -14.5986 -13.7440 -13.7258 -13.4631 -13.4300  -3.0660  -2.8644
    -1.5621  -1.3708  -1.3162  -1.1927  -0.9119  -0.9018   2.0575   2.2654
     2.4703   2.6664   2.7241   2.9514   3.0316   3.1625   4.2190   4.3994

          k = 0.5597 0.3231 0.0819 (  5093 PWs)   bands (ev):

   -33.6792 -33.6749 -17.1335 -16.9784 -15.1629 -15.1313 -14.8490 -14.7744
   -14.6943 -14.5844 -13.8275 -13.7006 -13.4614 -13.3978  -3.0729  -2.8520
    -1.5843  -1.3435  -1.2722  -1.2080  -1.0502  -0.8140   2.0135   2.3213
     2.4282   2.6923   2.6969   2.9527   3.0321   3.2319   4.1947   4.4260

          k =-0.1399 0.0808 0.3274 (  5096 PWs)   bands (ev):

   -33.6811 -33.6739 -17.0830 -17.0710 -15.0904 -15.0156 -14.9117 -14.8022
   -14.6389 -14.6158 -13.7779 -13.6907 -13.5041 -13.4417  -3.2411  -3.1283
    -1.4841  -1.4561  -1.3832  -1.3107  -1.3019  -0.6641   2.4415   2.4833
     2.6469   2.6916   2.9748   3.0772   3.3190   3.4426   3.9363   4.1215

          k =-0.2798-0.0000 0.3684 (  5088 PWs)   bands (ev):

   -33.6800 -33.6747 -17.0866 -17.0607 -15.0936 -15.0239 -14.9119 -14.7784
   -14.6803 -14.6346 -13.7505 -13.6542 -13.5316 -13.4496  -3.1675  -3.1105
    -1.4523  -1.4352  -1.3869  -1.2987  -1.1948  -0.7459   2.4319   2.4918
     2.6054   2.6419   2.8683   3.0374   3.1775   3.3563   4.0661   4.1515

          k = 0.8395 0.6463 0.0409 (  5102 PWs)   bands (ev):

   -33.6787 -33.6758 -17.0691 -17.0674 -15.0971 -15.0549 -14.8895 -14.7755
   -14.7116 -14.6482 -13.7417 -13.6573 -13.5221 -13.4412  -3.0927  -3.0258
    -1.4592  -1.3987  -1.3950  -1.2736  -1.0411  -0.8124   2.3176   2.3787
     2.6126   2.6181   2.7314   2.9504   3.0941   3.2377   4.1912   4.2420

          k = 0.6996 0.5655 0.0819 (  5095 PWs)   bands (ev):

   -33.6771 -33.6771 -17.0957 -17.0286 -15.1313 -15.0528 -14.9035 -14.7859
   -14.6917 -14.6474 -13.7638 -13.6784 -13.4946 -13.4188  -3.0569  -2.9059
    -1.5296  -1.3664  -1.3551  -1.2271  -0.9145  -0.8713   2.1269   2.2630
     2.5236   2.6374   2.6996   2.8627   3.1072   3.1735   4.2379   4.3649

          k = 0.5597 0.4847 0.1228 (  5095 PWs)   bands (ev):

   -33.6785 -33.6757 -17.1254 -16.9882 -15.1669 -15.1163 -14.8680 -14.7388
   -14.7001 -14.6064 -13.8457 -13.6960 -13.4665 -13.3807  -3.0594  -2.8351
    -1.5741  -1.3577  -1.2851  -1.2136  -0.9608  -0.8382   2.0021   2.2623
     2.4406   2.6574   2.6992   2.8257   3.1199   3.2081   4.2181   4.4465

          k =-0.2798 0.1616 0.4093 (  5092 PWs)   bands (ev):

   -33.6795 -33.6752 -17.1033 -17.0413 -15.1220 -14.9723 -14.9213 -14.7953
   -14.6927 -14.6365 -13.7516 -13.6319 -13.5379 -13.4553  -3.1389  -3.1001
    -1.4770  -1.4045  -1.3669  -1.2847  -1.1294  -0.8065   2.4024   2.4302
     2.6162   2.6353   2.8685   3.0511   3.0633   3.3468   4.1351   4.1388

          k = 0.8395 0.8078 0.0819 (  5098 PWs)   bands (ev):

   -33.6786 -33.6758 -17.1024 -17.0343 -15.1283 -15.0318 -14.8571 -14.7825
   -14.7108 -14.6609 -13.7487 -13.6811 -13.4878 -13.4498  -3.1007  -3.0210
    -1.4826  -1.4062  -1.3402  -1.2757  -1.0175  -0.8479   2.2806   2.3620
     2.5914   2.6640   2.7986   2.8783   3.0835   3.2730   4.1822   4.2475

          k = 0.6996 0.7271 0.1228 (  5096 PWs)   bands (ev):

   -33.6776 -33.6766 -17.0742 -17.0546 -15.0974 -15.0605 -14.8360 -14.8215
   -14.7068 -14.7015 -13.7297 -13.6782 -13.4824 -13.4486  -2.9967  -2.9808
    -1.4618  -1.4564  -1.3194  -1.2604  -0.9089  -0.8558   2.1889   2.2213
     2.5832   2.6127   2.7152   2.7521   3.1352   3.2018   4.2909   4.3120

          k = 0.5597 0.6463 0.1637 (  5098 PWs)   bands (ev):

   -33.6775 -33.6766 -17.0878 -17.0322 -15.1098 -15.0810 -14.8854 -14.7771
   -14.7028 -14.6841 -13.7663 -13.6846 -13.4733 -13.4171  -2.9861  -2.8899
    -1.5175  -1.4302  -1.2799  -1.2530  -0.8801  -0.8425   2.0804   2.1842
     2.5002   2.5799   2.6688   2.7120   3.1787   3.1992   4.3077   4.4044

          k = 0.8395-0.4847-0.2456 (  5094 PWs)   bands (ev):

   -33.6784 -33.6760 -17.1243 -17.0052 -15.1751 -15.0531 -14.8454 -14.7457
   -14.7134 -14.6201 -13.8134 -13.7230 -13.4612 -13.4023  -3.1291  -2.9307
    -1.5359  -1.3734  -1.2800  -1.2762  -0.9728  -0.8818   2.1599   2.3313
     2.5926   2.7063   2.7245   2.8711   3.0686   3.2562   4.1586   4.3316

          k = 0.6996-0.5655-0.2046 (  5098 PWs)   bands (ev):

   -33.6780 -33.6762 -17.1178 -17.0056 -15.1516 -15.0965 -14.8332 -14.7300
   -14.7063 -14.6699 -13.7711 -13.7614 -13.4350 -13.4140  -3.0809  -2.8820
    -1.5411  -1.3884  -1.2765  -1.2584  -0.9182  -0.8699   2.0777   2.2620
     2.5549   2.6628   2.6945   2.8003   3.1168   3.2105   4.2075   4.3934

          k = 0.6996-0.4039-0.1637 (  5103 PWs)   bands (ev):

   -33.6783 -33.6759 -17.1359 -16.9794 -15.1820 -15.1394 -14.7883 -14.7656
   -14.6998 -14.5848 -13.8186 -13.8026 -13.4020 -13.3971  -3.1036  -2.8254
    -1.5807  -1.3521  -1.2808  -1.2108  -0.9383  -0.8756   1.9964   2.2624
     2.4901   2.6935   2.7170   2.8511   3.0965   3.1992   4.1742   4.4412

          k = 0.0000-0.0000 0.3684 (  5112 PWs)   bands (ev):

   -33.6807 -33.6744 -17.0819 -17.0762 -15.0507 -15.0507 -14.8757 -14.8757
   -14.6257 -14.5713 -13.7360 -13.7360 -13.4779 -13.4779  -3.2807  -3.1545
    -1.4660  -1.4660  -1.3358  -1.3358  -1.3327  -0.6970   2.4686   2.4686
     2.6826   2.6826   3.1107   3.1107   3.4069   3.4069   3.8705   4.0777

          k =-0.1399-0.0808 0.4093 (  5094 PWs)   bands (ev):

   -33.6798 -33.6751 -17.0774 -17.0773 -15.0814 -14.9739 -14.9709 -14.8247
   -14.6366 -14.5929 -13.7597 -13.6232 -13.5698 -13.4553  -3.2386  -3.1493
    -1.4529  -1.4365  -1.3544  -1.3505  -1.2181  -0.7717   2.4762   2.5100
     2.6385   2.6414   3.0178   3.1376   3.2690   3.3651   3.9600   4.0900

          k = 0.9795 0.5655 0.0819 (  5098 PWs)   bands (ev):

   -33.6786 -33.6761 -17.0810 -17.0637 -15.1128 -15.0113 -14.9314 -14.7715
   -14.6888 -14.6115 -13.7730 -13.6041 -13.5792 -13.4330  -3.1677  -3.0752
    -1.4571  -1.3958  -1.3658  -1.3299  -1.0744  -0.8408   2.3946   2.4892
     2.6037   2.6290   2.8285   3.0954   3.1055   3.2537   4.0962   4.1775

          k = 0.8395 0.4847 0.1228 (  5105 PWs)   bands (ev):

   -33.6772 -33.6772 -17.1050 -17.0258 -15.1599 -15.0107 -14.9225 -14.7541
   -14.7084 -14.6116 -13.8048 -13.6658 -13.5103 -13.4033  -3.1178  -2.9423
    -1.5215  -1.3578  -1.3493  -1.2584  -0.9515  -0.8866   2.1940   2.3476
     2.5917   2.6710   2.6891   2.9500   3.0813   3.1874   4.1746   4.3163

          k =-0.1399 0.0808 0.4502 (  5087 PWs)   bands (ev):

   -33.6792 -33.6758 -17.0821 -17.0732 -15.0680 -14.9747 -14.9583 -14.8565
   -14.6209 -14.6126 -13.7209 -13.6071 -13.5810 -13.4876  -3.2208  -3.1741
    -1.4434  -1.4205  -1.3796  -1.3403  -1.1602  -0.8339   2.4963   2.5300
     2.5940   2.6360   3.0563   3.1693   3.2181   3.3515   3.9798   4.0641

          k = 0.9795 0.7271 0.1228 (  5097 PWs)   bands (ev):

   -33.6783 -33.6765 -17.0789 -17.0699 -15.0743 -15.0470 -14.8815 -14.8317
   -14.6529 -14.6366 -13.7099 -13.6697 -13.5193 -13.4841  -3.1567  -3.1372
    -1.4311  -1.4143  -1.3720  -1.3339  -1.0505  -0.8917   2.4544   2.4797
     2.5986   2.6160   2.9511   3.0400   3.1763   3.2699   4.0883   4.1176

          k = 0.8395 0.6463 0.1637 (  5097 PWs)   bands (ev):

   -33.6772 -33.6772 -17.0866 -17.0512 -15.1163 -15.0353 -14.8778 -14.7774
   -14.7036 -14.6614 -13.7483 -13.6631 -13.5114 -13.4431  -3.1013  -3.0235
    -1.4751  -1.4027  -1.3313  -1.3010  -0.9420  -0.9124   2.2943   2.3612
     2.6135   2.6385   2.7775   2.8946   3.1462   3.1944   4.1832   4.2445

          k = 0.9795-0.5655-0.2046 (  5095 PWs)   bands (ev):

   -33.6778 -33.6769 -17.0938 -17.0517 -15.1214 -14.9749 -14.9357 -14.8010
   -14.6793 -14.6195 -13.7619 -13.5936 -13.5812 -13.4475  -3.1590  -3.0892
    -1.4676  -1.3839  -1.3448  -1.3336  -0.9871  -0.9385   2.3962   2.4541
     2.6079   2.6298   2.8974   3.0115   3.1362   3.2597   4.1111   4.1571

          k = 0.0000-0.0000 0.4912 (  5088 PWs)   bands (ev):

   -33.6786 -33.6764 -17.0806 -17.0786 -15.0004 -15.0004 -14.9404 -14.9404
   -14.6072 -14.5882 -13.6442 -13.6442 -13.5554 -13.5554  -3.2504  -3.2075
    -1.4235  -1.4235  -1.3783  -1.3783  -1.1174  -0.8973   2.5394   2.5394
     2.6135   2.6135   3.2022   3.2022   3.3045   3.3045   3.9340   4.0053

          k = 1.1194 0.6463 0.1637 (  5102 PWs)   bands (ev):

   -33.6778 -33.6772 -17.0802 -17.0754 -15.0481 -15.0133 -14.9243 -14.8827
   -14.6209 -14.6043 -13.6848 -13.6327 -13.5618 -13.5146  -3.2121  -3.1899
    -1.4227  -1.3899  -1.3897  -1.3801  -1.0279  -0.9615   2.5266   2.5536
     2.5830   2.5938   3.1071   3.1650   3.2362   3.2776   4.0082   4.0327

     highest occupied level (ev):     4.4833

!    total energy              =    -367.43036029 Ry
     Harris-Foulkes estimate   =    -367.43036029 Ry
     estimated scf accuracy    <          1.2E-11 Ry

     The total energy is the sum of the following terms:

     one-electron contribution =    -148.02490903 Ry
     hartree contribution      =     103.41353616 Ry
     xc contribution           =     -75.27146796 Ry
     ewald contribution        =    -247.54751947 Ry

     convergence has been achieved in  12 iterations

     Forces acting on atoms (cartesian axes, Ry/au):

     atom    1 type  1   force =    -0.00000000   -0.00000000   -0.00000000
     atom    2 type  1   force =    -0.00000000   -0.00000000   -0.00000000
     atom    3 type  2   force =    -0.00000000    0.00000000    0.00000000
     atom    4 type  2   force =     0.00000000   -0.00000000    0.00000000
     atom    5 type  3   force =    -0.00004992    0.00008646    0.00000000
     atom    6 type  3   force =     0.00009983    0.00000000   -0.00000000
     atom    7 type  3   force =    -0.00004992   -0.00008646   -0.00000000
     atom    8 type  3   force =    -0.00009983    0.00000000   -0.00000000
     atom    9 type  3   force =     0.00004992    0.00008646    0.00000000
     atom   10 type  3   force =     0.00004992   -0.00008646   -0.00000000

     Total force =     0.000245     Total SCF correction =     0.000004


     Computing stress (Cartesian axis) and pressure

          total   stress  (Ry/bohr**3)                   (kbar)     P=   -0.09
  -0.00000066   0.00000000   0.00000000         -0.10      0.00      0.00
   0.00000000  -0.00000066   0.00000000          0.00     -0.10      0.00
   0.00000000   0.00000000  -0.00000060          0.00      0.00     -0.09


     Writing output data file CCO.save/
 
     init_run     :     19.70s CPU     25.71s WALL (       2 calls)
     electrons    :   3817.62s CPU   4272.86s WALL (      12 calls)
     update_pot   :      0.60s CPU      0.73s WALL (      10 calls)
     forces       :      9.33s CPU     10.15s WALL (      12 calls)
     stress       :     14.56s CPU     15.21s WALL (      12 calls)

     Called by init_run:
     wfcinit      :     19.15s CPU     23.32s WALL (       2 calls)
     potinit      :      0.07s CPU      0.30s WALL (       2 calls)
     hinit0       :      0.39s CPU      1.31s WALL (       2 calls)

     Called by electrons:
     c_bands      :   3560.24s CPU   3999.36s WALL (     143 calls)
     sum_band     :    253.78s CPU    267.73s WALL (     143 calls)
     v_of_rho     :      2.28s CPU      2.59s WALL (     151 calls)
     newd         :      0.85s CPU      1.15s WALL (     151 calls)
     mix_rho      :      0.37s CPU      0.67s WALL (     143 calls)

     Called by c_bands:
     init_us_2    :      5.12s CPU      5.95s WALL (   26520 calls)
     ccgdiagg     :   2728.01s CPU   2978.15s WALL (   12218 calls)
     wfcrot       :    843.30s CPU   1021.97s WALL (   11028 calls)

     Called by sum_band:
     sum_band:bec :      3.38s CPU      3.63s WALL (   12155 calls)
     addusdens    :      0.57s CPU      0.72s WALL (     143 calls)

     Called by *cgdiagg:
     h_psi        :   2390.97s CPU   2564.49s WALL ( 1168296 calls)
     s_psi        :    110.79s CPU    125.53s WALL ( 2325564 calls)
     cdiaghg      :    311.20s CPU    458.66s WALL (   11028 calls)

     Called by h_psi:
     h_psi:pot    :   2363.15s CPU   2532.16s WALL ( 1168296 calls)
     h_psi:calbec :    253.11s CPU    275.97s WALL ( 1168296 calls)
     vloc_psi     :   1991.86s CPU   2128.26s WALL ( 1168296 calls)
     add_vuspsi   :     81.34s CPU     89.86s WALL ( 1168296 calls)
     hs_1psi      :   2072.22s CPU   2233.76s WALL ( 1157268 calls)
     s_1psi       :    227.94s CPU    258.35s WALL ( 1157268 calls)

     General routines
     calbec       :    378.12s CPU    423.16s WALL ( 2342819 calls)
     fft          :      2.44s CPU      3.09s WALL (    1975 calls)
     ffts         :      0.17s CPU      0.18s WALL (     143 calls)
     fftw         :   2119.76s CPU   2259.16s WALL ( 3416088 calls)
 
     Parallel routines
     fft_scatt_xy :     97.08s CPU    103.25s WALL ( 3418206 calls)
     fft_scatt_yz :   1594.04s CPU   1701.22s WALL ( 3418206 calls)
 
     PWSCF        :      1h 4m CPU      1h12m WALL

 
   This run was terminated on:  14:46: 0  25Apr2022            

=------------------------------------------------------------------------------=
   JOB DONE.
=------------------------------------------------------------------------------=
