
     Program PWSCF v.7.0 starts on  6Apr2022 at 20: 2:57 

     This program is part of the open-source Quantum ESPRESSO suite
     for quantum simulation of materials; please cite
         "P. Giannozzi et al., J. Phys.:Condens. Matter 21 395502 (2009);
         "P. Giannozzi et al., J. Phys.:Condens. Matter 29 465901 (2017);
         "P. Giannozzi et al., J. Chem. Phys. 152 154105 (2020);
          URL http://www.quantum-espresso.org", 
     in publications or presentations arising from this work. More details at
     http://www.quantum-espresso.org/quote

     Parallel version (MPI), running on     1 processors

     MPI processes distributed on     1 nodes
     91201 MiB available memory on the printing compute node when the environment starts
 
     Waiting for input...
     Reading input from standard input
Warning: card &CELL ignored
Warning: card  CELL_DYNAMICS = 'BFGS', ignored
Warning: card  PRESS=0.1D0, ignored
Warning: card / ignored

     Current dimensions of program PWSCF are:
     Max number of different atomic species (ntypx) = 10
     Max number of k-points (npk) =  40000
     Max angular momentum in pseudopotentials (lmaxx) =  4
     Message from routine setup:
     using ibrav=0 with symmetry is DISCOURAGED, use correct ibrav instead

     Subspace diagonalization in iterative solution of the eigenvalue problem:
     a serial algorithm will be used

 
     G-vector sticks info
     --------------------
     sticks:   dense  smooth     PW     G-vecs:    dense   smooth      PW
     Sum         913     367    121                18149     4645     893
 
     Using Slab Decomposition
 


     bravais-lattice index     =            0
     lattice parameter (alat)  =       7.2800  a.u.
     unit-cell volume          =      96.4571 (a.u.)^3
     number of atoms/cell      =            5
     number of atomic types    =            3
     number of electrons       =        44.00
     number of Kohn-Sham states=           22
     kinetic-energy cutoff     =      50.0000  Ry
     charge density cutoff     =     500.0000  Ry
     scf convergence threshold =      1.0E-08
     mixing beta               =       0.7000
     number of iterations used =            8  plain     mixing
     energy convergence thresh.=      1.0E-04
     force convergence thresh. =      1.0E-03
     Exchange-correlation= SLA  PZ   NOGX NOGC
                           (   1   1   0   0   0   0   0)
     nstep                     =           50


     celldm(1)=   7.280000  celldm(2)=   0.000000  celldm(3)=   1.050000
     celldm(4)=   0.000000  celldm(5)=   0.000000  celldm(6)=   0.000000

     crystal axes: (cart. coord. in units of alat)
               a(1) = (  -0.500000   0.000000   0.500000 )  
               a(2) = (   0.000000   0.500000   0.500000 )  
               a(3) = (  -0.500000   0.500000   0.000000 )  

     reciprocal axes: (cart. coord. in units 2 pi/alat)
               b(1) = ( -1.000000 -1.000000  1.000000 )  
               b(2) = (  1.000000  1.000000  1.000000 )  
               b(3) = ( -1.000000  1.000000 -1.000000 )  


     PseudoPot. # 1 for Pb read from file:
     ./Pb_LDA.UPF
     MD5 check sum: 062a37469794d955244864f8fe2e5624
     Pseudo is Ultrasoft + core correction, Zval = 14.0
     Generated by new atomic code, or converted to UPF format
     Using radial grid of  899 points,  6 beta functions with: 
                l(1) =   0
                l(2) =   0
                l(3) =   1
                l(4) =   1
                l(5) =   2
                l(6) =   2
     Q(r) pseudized with  6 coefficients,  rinner =    1.000   1.000   1.000
                                                       1.000   1.000

     PseudoPot. # 2 for Ti read from file:
     ./Ti_LDA.UPF
     MD5 check sum: 0d9f225c038fe889ca2a701dcc8d72cb
     Pseudo is Ultrasoft + core correction, Zval = 12.0
     Generated by new atomic code, or converted to UPF format
     Using radial grid of  851 points,  6 beta functions with: 
                l(1) =   0
                l(2) =   0
                l(3) =   1
                l(4) =   1
                l(5) =   2
                l(6) =   2
     Q(r) pseudized with  6 coefficients,  rinner =    1.000   1.000   1.000
                                                       1.000   1.000

     PseudoPot. # 3 for O  read from file:
     ./O_LDA.UPF
     MD5 check sum: 194b818514d2a7dbb603bb78519a4f40
     Pseudo is Ultrasoft + core correction, Zval =  6.0
     Generated by new atomic code, or converted to UPF format
     Using radial grid of  737 points,  5 beta functions with: 
                l(1) =   0
                l(2) =   0
                l(3) =   1
                l(4) =   1
                l(5) =   2
     Q(r) pseudized with  8 coefficients,  rinner =    0.900   0.900   0.900
                                                       0.900   0.900

     atomic species   valence    mass     pseudopotential
        Pb            14.00   207.20000     Pb( 1.00)
        Ti            12.00    47.88000     Ti( 1.00)
        O              6.00    16.00000     O ( 1.00)

      2 Sym. Ops. (no inversion) found



   Cartesian axes

     site n.     atom                  positions (alat units)
         1           Pb  tau(   1) = (  -0.5032113   0.5032113   0.0000000  )
         2           Ti  tau(   2) = (  -0.5202118   0.5202118   0.5000000  )
         3           O   tau(   3) = (  -0.2992902   0.2992902   0.5000000  )
         4           O   tau(   4) = (  -0.5554644   0.3054644   0.2500000  )
         5           O   tau(   5) = (  -0.3054644   0.5554644   0.2500000  )

     number of k points=   230

     Number of k-points >= 100: set verbosity='high' to print them.

     Dense  grid:    18149 G-vectors     FFT dimensions: (  40,  40,  40)

     Smooth grid:     4645 G-vectors     FFT dimensions: (  24,  24,  24)

     Estimated max dynamical RAM per process >     119.32 MB

     Initial potential from superposition of free atoms

     starting charge      42.9982, renormalised to      44.0000

     negative rho (up, down):  1.043E-02 0.000E+00
     Starting wfcs are   31 randomized atomic wfcs

     total cpu time spent up to now is       11.3 secs

     Self-consistent Calculation

     iteration #  1     ecut=    50.00 Ry     beta= 0.70
     CG style diagonalization
     ethr =  1.00E-02,  avg # of iterations =  3.0

     negative rho (up, down):  2.518E-02 0.000E+00

     total cpu time spent up to now is       38.2 secs

     total energy              =    -360.49914695 Ry
     estimated scf accuracy    <       4.86464373 Ry

     iteration #  2     ecut=    50.00 Ry     beta= 0.70
     CG style diagonalization
     ethr =  1.00E-02,  avg # of iterations =  4.4

     negative rho (up, down):  3.705E-02 0.000E+00

     total cpu time spent up to now is       71.3 secs

     total energy              =    -361.87815981 Ry
     estimated scf accuracy    <       1.93559534 Ry

     iteration #  3     ecut=    50.00 Ry     beta= 0.70
     CG style diagonalization
     ethr =  4.40E-03,  avg # of iterations =  4.0

     negative rho (up, down):  4.032E-02 0.000E+00

     total cpu time spent up to now is      102.5 secs

     total energy              =    -362.49298832 Ry
     estimated scf accuracy    <       0.09115475 Ry

     iteration #  4     ecut=    50.00 Ry     beta= 0.70
     CG style diagonalization
     c_bands:  1 eigenvalues not converged
     c_bands:  1 eigenvalues not converged
     c_bands:  1 eigenvalues not converged
     c_bands:  1 eigenvalues not converged
     c_bands:  1 eigenvalues not converged
     ethr =  2.07E-04,  avg # of iterations =  4.7

     negative rho (up, down):  4.318E-02 0.000E+00

     total cpu time spent up to now is      138.8 secs

     total energy              =    -362.56950108 Ry
     estimated scf accuracy    <       0.02377614 Ry

     iteration #  5     ecut=    50.00 Ry     beta= 0.70
     CG style diagonalization
     c_bands:  1 eigenvalues not converged
     ethr =  5.40E-05,  avg # of iterations =  4.8

     negative rho (up, down):  4.313E-02 0.000E+00

     total cpu time spent up to now is      175.9 secs

     total energy              =    -362.58221933 Ry
     estimated scf accuracy    <       0.00348121 Ry

     iteration #  6     ecut=    50.00 Ry     beta= 0.70
     CG style diagonalization
     c_bands:  1 eigenvalues not converged
     c_bands:  1 eigenvalues not converged
     c_bands:  1 eigenvalues not converged
     ethr =  7.91E-06,  avg # of iterations =  5.8

     negative rho (up, down):  4.322E-02 0.000E+00

     total cpu time spent up to now is      220.4 secs

     total energy              =    -362.58603461 Ry
     estimated scf accuracy    <       0.00029434 Ry

     iteration #  7     ecut=    50.00 Ry     beta= 0.70
     CG style diagonalization
     c_bands:  1 eigenvalues not converged
     c_bands:  1 eigenvalues not converged
     c_bands:  1 eigenvalues not converged
     c_bands:  1 eigenvalues not converged
     c_bands:  1 eigenvalues not converged
     c_bands:  1 eigenvalues not converged
     ethr =  6.69E-07,  avg # of iterations =  7.1

     negative rho (up, down):  4.308E-02 0.000E+00

     total cpu time spent up to now is      276.1 secs

     total energy              =    -362.58668822 Ry
     estimated scf accuracy    <       0.00005820 Ry

     iteration #  8     ecut=    50.00 Ry     beta= 0.70
     CG style diagonalization
     c_bands:  1 eigenvalues not converged
     c_bands:  1 eigenvalues not converged
     c_bands:  1 eigenvalues not converged
     ethr =  1.32E-07,  avg # of iterations =  5.9

     negative rho (up, down):  4.294E-02 0.000E+00

     total cpu time spent up to now is      321.5 secs

     total energy              =    -362.58674822 Ry
     estimated scf accuracy    <       0.00000250 Ry

     iteration #  9     ecut=    50.00 Ry     beta= 0.70
     CG style diagonalization
     c_bands:  1 eigenvalues not converged
     c_bands:  1 eigenvalues not converged
     c_bands:  1 eigenvalues not converged
     c_bands:  1 eigenvalues not converged
     c_bands:  1 eigenvalues not converged
     c_bands:  1 eigenvalues not converged
     c_bands:  1 eigenvalues not converged
     c_bands:  1 eigenvalues not converged
     c_bands:  1 eigenvalues not converged
     ethr =  5.68E-09,  avg # of iterations =  9.4

     negative rho (up, down):  4.290E-02 0.000E+00

     total cpu time spent up to now is      393.4 secs

     total energy              =    -362.58683324 Ry
     estimated scf accuracy    <       0.00001763 Ry

     iteration # 10     ecut=    50.00 Ry     beta= 0.70
     CG style diagonalization
     c_bands:  1 eigenvalues not converged
     c_bands:  1 eigenvalues not converged
     ethr =  5.68E-09,  avg # of iterations =  4.0

     negative rho (up, down):  4.290E-02 0.000E+00

     total cpu time spent up to now is      423.1 secs

     total energy              =    -362.58685149 Ry
     estimated scf accuracy    <       0.00001133 Ry

     iteration # 11     ecut=    50.00 Ry     beta= 0.70
     CG style diagonalization
     c_bands:  1 eigenvalues not converged
     ethr =  5.68E-09,  avg # of iterations =  3.0

     negative rho (up, down):  4.281E-02 0.000E+00

     total cpu time spent up to now is      445.2 secs

     total energy              =    -362.58684746 Ry
     estimated scf accuracy    <       0.00000959 Ry

     iteration # 12     ecut=    50.00 Ry     beta= 0.70
     CG style diagonalization
     c_bands:  1 eigenvalues not converged
     c_bands:  1 eigenvalues not converged
     c_bands:  1 eigenvalues not converged
     c_bands:  1 eigenvalues not converged
     c_bands:  1 eigenvalues not converged
     c_bands:  1 eigenvalues not converged
     c_bands:  1 eigenvalues not converged
     ethr =  5.68E-09,  avg # of iterations =  5.0

     negative rho (up, down):  4.282E-02 0.000E+00

     total cpu time spent up to now is      483.1 secs

     total energy              =    -362.58685131 Ry
     estimated scf accuracy    <       0.00000251 Ry

     iteration # 13     ecut=    50.00 Ry     beta= 0.70
     CG style diagonalization
     c_bands:  1 eigenvalues not converged
     ethr =  5.68E-09,  avg # of iterations =  3.6

     negative rho (up, down):  4.282E-02 0.000E+00

     total cpu time spent up to now is      511.0 secs

     total energy              =    -362.58685181 Ry
     estimated scf accuracy    <       0.00000020 Ry

     iteration # 14     ecut=    50.00 Ry     beta= 0.70
     CG style diagonalization
     c_bands:  1 eigenvalues not converged
     c_bands:  1 eigenvalues not converged
     c_bands:  1 eigenvalues not converged
     ethr =  4.49E-10,  avg # of iterations =  4.9

     negative rho (up, down):  4.282E-02 0.000E+00

     total cpu time spent up to now is      547.9 secs

     total energy              =    -362.58685215 Ry
     estimated scf accuracy    <       0.00000002 Ry

     iteration # 15     ecut=    50.00 Ry     beta= 0.70
     CG style diagonalization
     c_bands:  1 eigenvalues not converged
     c_bands:  1 eigenvalues not converged
     c_bands:  1 eigenvalues not converged
     c_bands:  1 eigenvalues not converged
     ethr =  4.21E-11,  avg # of iterations =  8.3

     negative rho (up, down):  4.282E-02 0.000E+00

     total cpu time spent up to now is      610.7 secs

     total energy              =    -362.58685224 Ry
     estimated scf accuracy    <       0.00000003 Ry

     iteration # 16     ecut=    50.00 Ry     beta= 0.70
     CG style diagonalization
     c_bands:  1 eigenvalues not converged
     ethr =  4.21E-11,  avg # of iterations =  3.2

     negative rho (up, down):  4.282E-02 0.000E+00

     total cpu time spent up to now is      634.3 secs

     total energy              =    -362.58685225 Ry
     estimated scf accuracy    <       0.00000002 Ry

     iteration # 17     ecut=    50.00 Ry     beta= 0.70
     CG style diagonalization
     c_bands:  1 eigenvalues not converged
     ethr =  4.21E-11,  avg # of iterations =  4.2

     negative rho (up, down):  4.282E-02 0.000E+00

     total cpu time spent up to now is      665.3 secs

     End of self-consistent calculation

     Number of k-points >= 100: set verbosity='high' to print the bands.

     highest occupied level (ev):    65.0139

!    total energy              =    -362.58685226 Ry
     estimated scf accuracy    <          2.1E-09 Ry

     The total energy is the sum of the following terms:
     one-electron contribution =     140.21589528 Ry
     hartree contribution      =      35.36926965 Ry
     xc contribution           =    -115.48302432 Ry
     ewald contribution        =    -422.68899288 Ry

     convergence has been achieved in  17 iterations

     negative rho (up, down):  4.282E-02 0.000E+00

     Forces acting on atoms (cartesian axes, Ry/au):

     atom    1 type  1   force =    -0.45593178    0.45593178   -4.96316671
     atom    2 type  2   force =    -1.51585986    1.51585986    1.73350451
     atom    3 type  3   force =     0.67028702   -0.67028702   -0.14203555
     atom    4 type  3   force =    -0.94002621   -2.24153082    1.68584888
     atom    5 type  3   force =     2.24153082    0.94002621    1.68584888

     Total force =     7.146230     Total SCF correction =     0.000093


     Computing stress (Cartesian axis) and pressure


     negative rho (up, down):  4.282E-02 0.000E+00
          total   stress  (Ry/bohr**3)                   (kbar)     P=    51598.49
   0.34385598   0.05318858   0.03955166        50582.96     7824.31     5818.25
   0.05318858   0.34385598  -0.03955166         7824.31    50582.96    -5818.25
   0.03955166  -0.03955166   0.36456631         5818.25    -5818.25    53629.56


     BFGS Geometry Optimization
     Energy error            =      0.0E+00 Ry
     Gradient error          =      5.0E+00 Ry/Bohr

     number of scf cycles    =   1
     number of bfgs steps    =   0

     energy             new  =    -362.5868522585 Ry

     new trust radius        =       0.5000000000 bohr
     new conv_thr            =       0.0000000100 Ry


ATOMIC_POSITIONS (crystal)
Pb           -0.0681089639       -0.0681089639        1.0870448703
Ti            0.5237886823        0.5237886823        0.5582389546
O             0.4980508625        0.4980508625        0.0821328956
O             0.5667948495       -0.0205254304        0.5699337838
O            -0.0205254304        0.5667948495        0.5699337838



     Writing config-only to output data dir ./PTO.save/
     NEW-OLD atomic charge density approx. for the potential

     negative rho (up, down):  1.168E-02 0.000E+00

     total cpu time spent up to now is      674.3 secs

     Self-consistent Calculation

     iteration #  1     ecut=    50.00 Ry     beta= 0.70
     CG style diagonalization
     c_bands:  1 eigenvalues not converged
     c_bands:  2 eigenvalues not converged
     c_bands:  1 eigenvalues not converged
     c_bands:  1 eigenvalues not converged
     c_bands:  1 eigenvalues not converged
     c_bands:  1 eigenvalues not converged
     c_bands:  1 eigenvalues not converged
     c_bands:  1 eigenvalues not converged
     c_bands:  1 eigenvalues not converged
     c_bands:  3 eigenvalues not converged
     c_bands:  1 eigenvalues not converged
     c_bands:  1 eigenvalues not converged
     c_bands:  1 eigenvalues not converged
     c_bands:  1 eigenvalues not converged
     c_bands:  1 eigenvalues not converged
     c_bands:  1 eigenvalues not converged
     c_bands:  1 eigenvalues not converged
     c_bands:  1 eigenvalues not converged
     c_bands:  1 eigenvalues not converged
     ethr =  1.00E-06,  avg # of iterations = 28.1

     negative rho (up, down):  3.052E-02 0.000E+00

     total cpu time spent up to now is      882.5 secs

     total energy              =    -361.95900965 Ry
     estimated scf accuracy    <       0.58366338 Ry

     iteration #  2     ecut=    50.00 Ry     beta= 0.70
     CG style diagonalization
     ethr =  1.33E-03,  avg # of iterations =  4.0

     negative rho (up, down):  3.458E-02 0.000E+00

     total cpu time spent up to now is      912.0 secs

     total energy              =    -362.05872358 Ry
     estimated scf accuracy    <       0.09145896 Ry

     iteration #  3     ecut=    50.00 Ry     beta= 0.70
     CG style diagonalization
     ethr =  2.08E-04,  avg # of iterations =  4.1

     negative rho (up, down):  3.864E-02 0.000E+00

     total cpu time spent up to now is      942.7 secs

     total energy              =    -362.10717278 Ry
     estimated scf accuracy    <       0.00990910 Ry

     iteration #  4     ecut=    50.00 Ry     beta= 0.70
     CG style diagonalization
     ethr =  2.25E-05,  avg # of iterations =  5.7

     negative rho (up, down):  4.026E-02 0.000E+00

     total cpu time spent up to now is      985.8 secs

     total energy              =    -362.11588456 Ry
     estimated scf accuracy    <       0.00278963 Ry

     iteration #  5     ecut=    50.00 Ry     beta= 0.70
     CG style diagonalization
     ethr =  6.34E-06,  avg # of iterations =  4.7

     negative rho (up, down):  4.151E-02 0.000E+00

     total cpu time spent up to now is     1020.3 secs

     total energy              =    -362.11695389 Ry
     estimated scf accuracy    <       0.00086839 Ry

     iteration #  6     ecut=    50.00 Ry     beta= 0.70
     CG style diagonalization
     c_bands:  1 eigenvalues not converged
     ethr =  1.97E-06,  avg # of iterations =  4.5

     negative rho (up, down):  4.230E-02 0.000E+00

     total cpu time spent up to now is     1053.5 secs

     total energy              =    -362.11787461 Ry
     estimated scf accuracy    <       0.00007919 Ry

     iteration #  7     ecut=    50.00 Ry     beta= 0.70
     CG style diagonalization
     ethr =  1.80E-07,  avg # of iterations =  7.1

     negative rho (up, down):  4.249E-02 0.000E+00

     total cpu time spent up to now is     1107.0 secs

     total energy              =    -362.11800683 Ry
     estimated scf accuracy    <       0.00002010 Ry

     iteration #  8     ecut=    50.00 Ry     beta= 0.70
     CG style diagonalization
     c_bands:  1 eigenvalues not converged
     c_bands:  1 eigenvalues not converged
     ethr =  4.57E-08,  avg # of iterations =  5.0

     negative rho (up, down):  4.263E-02 0.000E+00

     total cpu time spent up to now is     1144.6 secs

     total energy              =    -362.11914833 Ry
     estimated scf accuracy    <       0.00000627 Ry

     iteration #  9     ecut=    50.00 Ry     beta= 0.70
     CG style diagonalization
     c_bands:  1 eigenvalues not converged
     c_bands:  1 eigenvalues not converged
     c_bands:  1 eigenvalues not converged
     c_bands:  1 eigenvalues not converged
     ethr =  1.42E-08,  avg # of iterations =  4.3

     negative rho (up, down):  4.277E-02 0.000E+00

     total cpu time spent up to now is     1177.0 secs

     total energy              =    -362.11930623 Ry
     estimated scf accuracy    <       0.00000200 Ry

     iteration # 10     ecut=    50.00 Ry     beta= 0.70
     CG style diagonalization
     c_bands:  1 eigenvalues not converged
     c_bands:  1 eigenvalues not converged
     c_bands:  1 eigenvalues not converged
     c_bands:  1 eigenvalues not converged
     ethr =  4.54E-09,  avg # of iterations =  5.1

     negative rho (up, down):  4.277E-02 0.000E+00

     total cpu time spent up to now is     1214.5 secs

     total energy              =    -362.12032171 Ry
     estimated scf accuracy    <       0.00001481 Ry

     iteration # 11     ecut=    50.00 Ry     beta= 0.70
     CG style diagonalization
     c_bands:  1 eigenvalues not converged
     ethr =  4.54E-09,  avg # of iterations =  3.2

     negative rho (up, down):  4.278E-02 0.000E+00

     total cpu time spent up to now is     1238.0 secs

     total energy              =    -362.12032690 Ry
     estimated scf accuracy    <       0.00001379 Ry

     iteration # 12     ecut=    50.00 Ry     beta= 0.70
     CG style diagonalization
     c_bands:  1 eigenvalues not converged
     ethr =  4.54E-09,  avg # of iterations =  3.3

     negative rho (up, down):  4.279E-02 0.000E+00

     total cpu time spent up to now is     1262.3 secs

     total energy              =    -362.12095997 Ry
     estimated scf accuracy    <       0.00001822 Ry

     iteration # 13     ecut=    50.00 Ry     beta= 0.70
     CG style diagonalization
     c_bands:  1 eigenvalues not converged
     ethr =  4.54E-09,  avg # of iterations =  3.2

     negative rho (up, down):  4.280E-02 0.000E+00

     total cpu time spent up to now is     1285.8 secs

     total energy              =    -362.12201115 Ry
     estimated scf accuracy    <       0.00004543 Ry

     iteration # 14     ecut=    50.00 Ry     beta= 0.70
     CG style diagonalization
     c_bands:  1 eigenvalues not converged
     c_bands:  1 eigenvalues not converged
     ethr =  4.54E-09,  avg # of iterations =  3.3

     negative rho (up, down):  4.279E-02 0.000E+00

     total cpu time spent up to now is     1310.0 secs

     total energy              =    -362.12306182 Ry
     estimated scf accuracy    <       0.00014589 Ry

     iteration # 15     ecut=    50.00 Ry     beta= 0.70
     CG style diagonalization
     ethr =  4.54E-09,  avg # of iterations =  3.8

     negative rho (up, down):  4.279E-02 0.000E+00

     total cpu time spent up to now is     1338.4 secs

     total energy              =    -362.12303631 Ry
     estimated scf accuracy    <       0.00017910 Ry

     iteration # 16     ecut=    50.00 Ry     beta= 0.70
     CG style diagonalization
     c_bands:  1 eigenvalues not converged
     c_bands:  1 eigenvalues not converged
     ethr =  4.54E-09,  avg # of iterations =  5.0

     negative rho (up, down):  4.279E-02 0.000E+00

     total cpu time spent up to now is     1375.6 secs

     total energy              =    -362.12329723 Ry
     estimated scf accuracy    <       0.00010686 Ry

     iteration # 17     ecut=    50.00 Ry     beta= 0.70
     CG style diagonalization
     c_bands:  1 eigenvalues not converged
     c_bands:  1 eigenvalues not converged
     ethr =  4.54E-09,  avg # of iterations =  3.0

     negative rho (up, down):  4.279E-02 0.000E+00

     total cpu time spent up to now is     1397.8 secs

     total energy              =    -362.12330980 Ry
     estimated scf accuracy    <       0.00010305 Ry

     iteration # 18     ecut=    50.00 Ry     beta= 0.70
     CG style diagonalization
     c_bands:  1 eigenvalues not converged
     c_bands:  1 eigenvalues not converged
     ethr =  4.54E-09,  avg # of iterations =  4.8

     negative rho (up, down):  4.280E-02 0.000E+00

     total cpu time spent up to now is     1433.4 secs

     total energy              =    -362.12329859 Ry
     estimated scf accuracy    <       0.00006323 Ry

     iteration # 19     ecut=    50.00 Ry     beta= 0.70
     CG style diagonalization
     ethr =  4.54E-09,  avg # of iterations =  4.6

     negative rho (up, down):  4.279E-02 0.000E+00

     total cpu time spent up to now is     1467.3 secs

     total energy              =    -362.12329752 Ry
     estimated scf accuracy    <       0.00003039 Ry

     iteration # 20     ecut=    50.00 Ry     beta= 0.70
     CG style diagonalization
     ethr =  4.54E-09,  avg # of iterations =  4.1

     negative rho (up, down):  4.279E-02 0.000E+00

     total cpu time spent up to now is     1497.9 secs

     total energy              =    -362.12330080 Ry
     estimated scf accuracy    <       0.00002840 Ry

     iteration # 21     ecut=    50.00 Ry     beta= 0.70
     CG style diagonalization
     ethr =  4.54E-09,  avg # of iterations =  3.2

     negative rho (up, down):  4.279E-02 0.000E+00

     total cpu time spent up to now is     1521.1 secs

     total energy              =    -362.12330028 Ry
     estimated scf accuracy    <       0.00003510 Ry

     iteration # 22     ecut=    50.00 Ry     beta= 0.70
     CG style diagonalization
     c_bands:  1 eigenvalues not converged
     c_bands:  1 eigenvalues not converged
     ethr =  4.54E-09,  avg # of iterations =  4.5

     negative rho (up, down):  4.281E-02 0.000E+00

     total cpu time spent up to now is     1554.4 secs

     total energy              =    -362.12328305 Ry
     estimated scf accuracy    <       0.00003917 Ry

     iteration # 23     ecut=    50.00 Ry     beta= 0.70
     CG style diagonalization
     c_bands:  1 eigenvalues not converged
     c_bands:  1 eigenvalues not converged
     ethr =  4.54E-09,  avg # of iterations =  5.7

     negative rho (up, down):  4.281E-02 0.000E+00

     total cpu time spent up to now is     1596.9 secs

     total energy              =    -362.12328946 Ry
     estimated scf accuracy    <       0.00000082 Ry

     iteration # 24     ecut=    50.00 Ry     beta= 0.70
     CG style diagonalization
     c_bands:  1 eigenvalues not converged
     ethr =  1.86E-09,  avg # of iterations =  4.1

     negative rho (up, down):  4.281E-02 0.000E+00

     total cpu time spent up to now is     1627.1 secs

     total energy              =    -362.12328954 Ry
     estimated scf accuracy    <       0.00000052 Ry

     iteration # 25     ecut=    50.00 Ry     beta= 0.70
     CG style diagonalization
     ethr =  1.18E-09,  avg # of iterations =  3.7

     negative rho (up, down):  4.281E-02 0.000E+00

     total cpu time spent up to now is     1654.4 secs

     total energy              =    -362.12328957 Ry
     estimated scf accuracy    <       0.00000002 Ry

     iteration # 26     ecut=    50.00 Ry     beta= 0.70
     CG style diagonalization
     ethr =  5.22E-11,  avg # of iterations =  5.5

     negative rho (up, down):  4.281E-02 0.000E+00

     total cpu time spent up to now is     1696.2 secs

     End of self-consistent calculation

     Number of k-points >= 100: set verbosity='high' to print the bands.

     highest occupied level (ev):    64.6800

!    total energy              =    -362.12328958 Ry
     estimated scf accuracy    <          8.0E-09 Ry

     The total energy is the sum of the following terms:
     one-electron contribution =     136.03561050 Ry
     hartree contribution      =      37.00699180 Ry
     xc contribution           =    -115.67129727 Ry
     ewald contribution        =    -419.49459461 Ry

     convergence has been achieved in  26 iterations

     negative rho (up, down):  4.281E-02 0.000E+00

     Forces acting on atoms (cartesian axes, Ry/au):

     atom    1 type  1   force =     4.73580633   -4.73580633    4.54357308
     atom    2 type  2   force =     0.59190734   -0.59190734   -2.43641565
     atom    3 type  3   force =    -0.35177861    0.35177861    0.29682219
     atom    4 type  3   force =    -0.47641858    4.49951648   -1.20198982
     atom    5 type  3   force =    -4.49951648    0.47641858   -1.20198982

     Total force =    10.784573     Total SCF correction =     0.000193


     Computing stress (Cartesian axis) and pressure


     negative rho (up, down):  4.281E-02 0.000E+00
          total   stress  (Ry/bohr**3)                   (kbar)     P=    52559.75
   0.36122302   0.00165688   0.05739091        53137.74      243.74     8442.49
   0.00165688   0.36122302  -0.05739091          243.74    53137.74    -8442.49
   0.05739091  -0.05739091   0.34943564         8442.49    -8442.49    51403.76

     Energy error            =      4.6E-01 Ry
     Gradient error          =      4.7E+00 Ry/Bohr

     number of scf cycles    =   2
     number of bfgs steps    =   1

     energy             old  =    -362.5868522585 Ry
     energy             new  =    -362.1232895837 Ry

     CASE: energy            _new > energy            _old

     new trust radius        =       0.2291767632 bohr
     new conv_thr            =       0.0000000100 Ry


ATOMIC_POSITIONS (crystal)
Pb           -0.0312179838       -0.0312179838        1.0433760520
Ti            0.5109036264        0.5109036264        0.5485893832
O             0.4991066059        0.4991066059        0.0910415747
O             0.5306156548       -0.0094079034        0.5921386390
O            -0.0094079034        0.5306156548        0.5921386390



     Writing config-only to output data dir ./PTO.save/
     NEW-OLD atomic charge density approx. for the potential

     negative rho (up, down):  3.343E-02 0.000E+00

     total cpu time spent up to now is     1705.5 secs

     Self-consistent Calculation

     iteration #  1     ecut=    50.00 Ry     beta= 0.70
     CG style diagonalization
     c_bands:  1 eigenvalues not converged
     c_bands:  1 eigenvalues not converged
     c_bands:  1 eigenvalues not converged
     c_bands:  2 eigenvalues not converged
     c_bands:  1 eigenvalues not converged
     c_bands:  5 eigenvalues not converged
     c_bands:  1 eigenvalues not converged
     c_bands:  2 eigenvalues not converged
     c_bands:  1 eigenvalues not converged
     c_bands:  1 eigenvalues not converged
     c_bands:  5 eigenvalues not converged
     c_bands:  1 eigenvalues not converged
     c_bands:  1 eigenvalues not converged
     c_bands:  1 eigenvalues not converged
     c_bands:  1 eigenvalues not converged
     c_bands:  1 eigenvalues not converged
     c_bands:  1 eigenvalues not converged
     c_bands:  1 eigenvalues not converged
     c_bands:  1 eigenvalues not converged
     c_bands:  1 eigenvalues not converged
     c_bands:  1 eigenvalues not converged
     c_bands:  1 eigenvalues not converged
     c_bands:  1 eigenvalues not converged
     ethr =  1.00E-06,  avg # of iterations = 24.8

     negative rho (up, down):  3.867E-02 0.000E+00

     total cpu time spent up to now is     1888.3 secs

     total energy              =    -363.65358894 Ry
     estimated scf accuracy    <       0.18042284 Ry

     iteration #  2     ecut=    50.00 Ry     beta= 0.70
     CG style diagonalization
     ethr =  4.10E-04,  avg # of iterations =  3.9

     negative rho (up, down):  4.120E-02 0.000E+00

     total cpu time spent up to now is     1917.1 secs

     total energy              =    -363.68131070 Ry
     estimated scf accuracy    <       0.02560251 Ry

     iteration #  3     ecut=    50.00 Ry     beta= 0.70
     CG style diagonalization
     ethr =  5.82E-05,  avg # of iterations =  4.4

     negative rho (up, down):  4.248E-02 0.000E+00

     total cpu time spent up to now is     1949.6 secs

     total energy              =    -363.69589768 Ry
     estimated scf accuracy    <       0.00408273 Ry

     iteration #  4     ecut=    50.00 Ry     beta= 0.70
     CG style diagonalization
     c_bands:  1 eigenvalues not converged
     c_bands:  1 eigenvalues not converged
     c_bands:  1 eigenvalues not converged
     c_bands:  1 eigenvalues not converged
     ethr =  9.28E-06,  avg # of iterations =  5.3

     negative rho (up, down):  4.285E-02 0.000E+00

     total cpu time spent up to now is     1989.7 secs

     total energy              =    -363.69829152 Ry
     estimated scf accuracy    <       0.00199123 Ry

     iteration #  5     ecut=    50.00 Ry     beta= 0.70
     CG style diagonalization
     c_bands:  1 eigenvalues not converged
     c_bands:  1 eigenvalues not converged
     ethr =  4.53E-06,  avg # of iterations =  4.3

     negative rho (up, down):  4.315E-02 0.000E+00

     total cpu time spent up to now is     2021.5 secs

     total energy              =    -363.69893436 Ry
     estimated scf accuracy    <       0.00030652 Ry

     iteration #  6     ecut=    50.00 Ry     beta= 0.70
     CG style diagonalization
     ethr =  6.97E-07,  avg # of iterations =  4.6

     negative rho (up, down):  4.321E-02 0.000E+00

     total cpu time spent up to now is     2055.6 secs

     total energy              =    -363.69909256 Ry
     estimated scf accuracy    <       0.00001161 Ry

     iteration #  7     ecut=    50.00 Ry     beta= 0.70
     CG style diagonalization
     c_bands:  1 eigenvalues not converged
     c_bands:  1 eigenvalues not converged
     c_bands:  1 eigenvalues not converged
     c_bands:  1 eigenvalues not converged
     c_bands:  1 eigenvalues not converged
     c_bands:  1 eigenvalues not converged
     c_bands:  1 eigenvalues not converged
     c_bands:  1 eigenvalues not converged
     c_bands:  1 eigenvalues not converged
     c_bands:  1 eigenvalues not converged
     ethr =  2.64E-08,  avg # of iterations =  8.5

     negative rho (up, down):  4.319E-02 0.000E+00

     total cpu time spent up to now is     2120.3 secs

     total energy              =    -363.69945818 Ry
     estimated scf accuracy    <       0.00000620 Ry

     iteration #  8     ecut=    50.00 Ry     beta= 0.70
     CG style diagonalization
     c_bands:  1 eigenvalues not converged
     c_bands:  1 eigenvalues not converged
     ethr =  1.41E-08,  avg # of iterations =  4.2

     negative rho (up, down):  4.321E-02 0.000E+00

     total cpu time spent up to now is     2151.3 secs

     total energy              =    -363.69962698 Ry
     estimated scf accuracy    <       0.00000073 Ry

     iteration #  9     ecut=    50.00 Ry     beta= 0.70
     CG style diagonalization
     c_bands:  1 eigenvalues not converged
     c_bands:  1 eigenvalues not converged
     c_bands:  1 eigenvalues not converged
     c_bands:  1 eigenvalues not converged
     ethr =  1.66E-09,  avg # of iterations =  7.0

     negative rho (up, down):  4.321E-02 0.000E+00

     total cpu time spent up to now is     2204.1 secs

     total energy              =    -363.69962832 Ry
     estimated scf accuracy    <       0.00000014 Ry

     iteration # 10     ecut=    50.00 Ry     beta= 0.70
     CG style diagonalization
     c_bands:  1 eigenvalues not converged
     c_bands:  1 eigenvalues not converged
     ethr =  3.12E-10,  avg # of iterations =  6.3

     negative rho (up, down):  4.320E-02 0.000E+00

     total cpu time spent up to now is     2251.0 secs

     total energy              =    -363.69962849 Ry
     estimated scf accuracy    <       0.00000005 Ry

     iteration # 11     ecut=    50.00 Ry     beta= 0.70
     CG style diagonalization
     ethr =  1.07E-10,  avg # of iterations =  5.0

     negative rho (up, down):  4.320E-02 0.000E+00

     total cpu time spent up to now is     2288.3 secs

     End of self-consistent calculation

     Number of k-points >= 100: set verbosity='high' to print the bands.

     highest occupied level (ev):    64.6780

!    total energy              =    -363.69962851 Ry
     estimated scf accuracy    <          3.7E-09 Ry

     The total energy is the sum of the following terms:
     one-electron contribution =     144.89249320 Ry
     hartree contribution      =      33.27452739 Ry
     xc contribution           =    -115.19574960 Ry
     ewald contribution        =    -426.67089950 Ry

     convergence has been achieved in  11 iterations

     negative rho (up, down):  4.320E-02 0.000E+00

     Forces acting on atoms (cartesian axes, Ry/au):

     atom    1 type  1   force =     1.58670070   -1.58670070   -0.30632734
     atom    2 type  2   force =    -0.43758326    0.43758326    0.10248429
     atom    3 type  3   force =     0.16374981   -0.16374981    0.05139174
     atom    4 type  3   force =    -0.37989973    0.93296752    0.07622565
     atom    5 type  3   force =    -0.93296752    0.37989973    0.07622565

     Total force =     2.760422     Total SCF correction =     0.000222


     Computing stress (Cartesian axis) and pressure


     negative rho (up, down):  4.320E-02 0.000E+00
          total   stress  (Ry/bohr**3)                   (kbar)     P=    49904.29
   0.33934332   0.03068316   0.04035149        49919.13     4513.65     5935.91
   0.03068316   0.33934332  -0.04035149         4513.65    49919.13    -5935.91
   0.04035149  -0.04035149   0.33904075         5935.91    -5935.91    49874.62

     Energy error            =      1.1E+00 Ry
     Gradient error          =      1.6E+00 Ry/Bohr

     number of scf cycles    =   3
     number of bfgs steps    =   1

     energy             old  =    -362.5868522585 Ry
     energy             new  =    -363.6996285132 Ry

     CASE: energy            _new < energy            _old

     new trust radius        =       0.6875302896 bohr
     new conv_thr            =       0.0000000100 Ry


ATOMIC_POSITIONS (crystal)
Pb           -0.0761728293       -0.0761728293        0.9708731656
Ti            0.5264297095        0.5264297095        0.5873063448
O             0.5001617818        0.5001617818        0.0683165043
O             0.5444478961        0.0051334419        0.6203941367
O             0.0051334419        0.5444478961        0.6203941367



     Writing config-only to output data dir ./PTO.save/
     NEW-OLD atomic charge density approx. for the potential

     negative rho (up, down):  9.419E-03 0.000E+00

     total cpu time spent up to now is     2297.6 secs

     Self-consistent Calculation

     iteration #  1     ecut=    50.00 Ry     beta= 0.70
     CG style diagonalization
     c_bands:  1 eigenvalues not converged
     c_bands:  1 eigenvalues not converged
     c_bands:  1 eigenvalues not converged
     c_bands:  1 eigenvalues not converged
     c_bands:  1 eigenvalues not converged
     c_bands:  1 eigenvalues not converged
     c_bands:  1 eigenvalues not converged
     c_bands:  1 eigenvalues not converged
     c_bands:  1 eigenvalues not converged
     c_bands:  1 eigenvalues not converged
     c_bands:  1 eigenvalues not converged
     c_bands:  2 eigenvalues not converged
     c_bands:  1 eigenvalues not converged
     c_bands:  1 eigenvalues not converged
     c_bands:  1 eigenvalues not converged
     c_bands:  1 eigenvalues not converged
     c_bands:  1 eigenvalues not converged
     c_bands:  4 eigenvalues not converged
     c_bands:  1 eigenvalues not converged
     ethr =  1.00E-06,  avg # of iterations = 27.1

     negative rho (up, down):  2.820E-02 0.000E+00

     total cpu time spent up to now is     2498.5 secs

     total energy              =    -364.54695847 Ry
     estimated scf accuracy    <       0.46203923 Ry

     iteration #  2     ecut=    50.00 Ry     beta= 0.70
     CG style diagonalization
     c_bands:  1 eigenvalues not converged
     ethr =  1.05E-03,  avg # of iterations =  4.4

     negative rho (up, down):  3.066E-02 0.000E+00

     total cpu time spent up to now is     2531.4 secs

     total energy              =    -364.57259095 Ry
     estimated scf accuracy    <       0.48735010 Ry

     iteration #  3     ecut=    50.00 Ry     beta= 0.70
     CG style diagonalization
     ethr =  1.05E-03,  avg # of iterations =  4.0

     negative rho (up, down):  3.440E-02 0.000E+00

     total cpu time spent up to now is     2561.2 secs

     total energy              =    -364.69616276 Ry
     estimated scf accuracy    <       0.03181123 Ry

     iteration #  4     ecut=    50.00 Ry     beta= 0.70
     CG style diagonalization
     ethr =  7.23E-05,  avg # of iterations =  4.0

     negative rho (up, down):  3.626E-02 0.000E+00

     total cpu time spent up to now is     2591.5 secs

     total energy              =    -364.70876023 Ry
     estimated scf accuracy    <       0.00116181 Ry

     iteration #  5     ecut=    50.00 Ry     beta= 0.70
     CG style diagonalization
     c_bands:  1 eigenvalues not converged
     ethr =  2.64E-06,  avg # of iterations =  6.3

     negative rho (up, down):  3.681E-02 0.000E+00

     total cpu time spent up to now is     2638.3 secs

     total energy              =    -364.71023503 Ry
     estimated scf accuracy    <       0.00031122 Ry

     iteration #  6     ecut=    50.00 Ry     beta= 0.70
     CG style diagonalization
     ethr =  7.07E-07,  avg # of iterations =  4.9

     negative rho (up, down):  3.730E-02 0.000E+00

     total cpu time spent up to now is     2675.4 secs

     total energy              =    -364.71037911 Ry
     estimated scf accuracy    <       0.00003470 Ry

     iteration #  7     ecut=    50.00 Ry     beta= 0.70
     CG style diagonalization
     ethr =  7.89E-08,  avg # of iterations =  7.0

     negative rho (up, down):  3.743E-02 0.000E+00

     total cpu time spent up to now is     2729.9 secs

     total energy              =    -364.71043008 Ry
     estimated scf accuracy    <       0.00001629 Ry

     iteration #  8     ecut=    50.00 Ry     beta= 0.70
     CG style diagonalization
     ethr =  3.70E-08,  avg # of iterations =  4.5

     negative rho (up, down):  3.750E-02 0.000E+00

     total cpu time spent up to now is     2763.1 secs

     total energy              =    -364.71043605 Ry
     estimated scf accuracy    <       0.00000128 Ry

     iteration #  9     ecut=    50.00 Ry     beta= 0.70
     CG style diagonalization
     c_bands:  1 eigenvalues not converged
     ethr =  2.91E-09,  avg # of iterations =  7.9

     negative rho (up, down):  3.756E-02 0.000E+00

     total cpu time spent up to now is     2822.2 secs

     total energy              =    -364.71061358 Ry
     estimated scf accuracy    <       0.00000136 Ry

     iteration # 10     ecut=    50.00 Ry     beta= 0.70
     CG style diagonalization
     c_bands:  1 eigenvalues not converged
     ethr =  2.91E-09,  avg # of iterations =  3.5

     negative rho (up, down):  3.759E-02 0.000E+00

     total cpu time spent up to now is     2848.0 secs

     total energy              =    -364.71062931 Ry
     estimated scf accuracy    <       0.00000031 Ry

     iteration # 11     ecut=    50.00 Ry     beta= 0.70
     CG style diagonalization
     c_bands:  1 eigenvalues not converged
     c_bands:  1 eigenvalues not converged
     c_bands:  1 eigenvalues not converged
     c_bands:  1 eigenvalues not converged
     c_bands:  1 eigenvalues not converged
     ethr =  7.11E-10,  avg # of iterations =  4.6

     negative rho (up, down):  3.759E-02 0.000E+00

     total cpu time spent up to now is     2882.7 secs

     total energy              =    -364.71152051 Ry
     estimated scf accuracy    <       0.00000176 Ry

     iteration # 12     ecut=    50.00 Ry     beta= 0.70
     CG style diagonalization
     c_bands:  1 eigenvalues not converged
     c_bands:  1 eigenvalues not converged
     ethr =  7.11E-10,  avg # of iterations =  3.5

     negative rho (up, down):  3.761E-02 0.000E+00

     total cpu time spent up to now is     2908.4 secs

     total energy              =    -364.71156308 Ry
     estimated scf accuracy    <       0.00000150 Ry

     iteration # 13     ecut=    50.00 Ry     beta= 0.70
     CG style diagonalization
     c_bands:  1 eigenvalues not converged
     ethr =  7.11E-10,  avg # of iterations =  3.1

     negative rho (up, down):  3.763E-02 0.000E+00

     total cpu time spent up to now is     2930.9 secs

     total energy              =    -364.71156281 Ry
     estimated scf accuracy    <       0.00000130 Ry

     iteration # 14     ecut=    50.00 Ry     beta= 0.70
     CG style diagonalization
     ethr =  7.11E-10,  avg # of iterations =  3.3

     negative rho (up, down):  3.764E-02 0.000E+00

     total cpu time spent up to now is     2955.1 secs

     total energy              =    -364.71156268 Ry
     estimated scf accuracy    <       0.00000063 Ry

     iteration # 15     ecut=    50.00 Ry     beta= 0.70
     CG style diagonalization
     ethr =  7.11E-10,  avg # of iterations =  3.4

     negative rho (up, down):  3.763E-02 0.000E+00

     total cpu time spent up to now is     2980.2 secs

     total energy              =    -364.71156266 Ry
     estimated scf accuracy    <       0.00000020 Ry

     iteration # 16     ecut=    50.00 Ry     beta= 0.70
     CG style diagonalization
     c_bands:  1 eigenvalues not converged
     ethr =  4.55E-10,  avg # of iterations =  3.2

     negative rho (up, down):  3.763E-02 0.000E+00

     total cpu time spent up to now is     3003.7 secs

     total energy              =    -364.71165305 Ry
     estimated scf accuracy    <       0.00000061 Ry

     iteration # 17     ecut=    50.00 Ry     beta= 0.70
     CG style diagonalization
     c_bands:  1 eigenvalues not converged
     ethr =  4.55E-10,  avg # of iterations =  3.0

     negative rho (up, down):  3.763E-02 0.000E+00

     total cpu time spent up to now is     3025.7 secs

     total energy              =    -364.71165325 Ry
     estimated scf accuracy    <       0.00000059 Ry

     iteration # 18     ecut=    50.00 Ry     beta= 0.70
     CG style diagonalization
     ethr =  4.55E-10,  avg # of iterations =  3.0

     negative rho (up, down):  3.763E-02 0.000E+00

     total cpu time spent up to now is     3047.7 secs

     total energy              =    -364.71165322 Ry
     estimated scf accuracy    <       0.00000057 Ry

     iteration # 19     ecut=    50.00 Ry     beta= 0.70
     CG style diagonalization
     ethr =  4.55E-10,  avg # of iterations =  3.0

     negative rho (up, down):  3.761E-02 0.000E+00

     total cpu time spent up to now is     3069.7 secs

     total energy              =    -364.71165308 Ry
     estimated scf accuracy    <       0.00000049 Ry

     iteration # 20     ecut=    50.00 Ry     beta= 0.70
     CG style diagonalization
     ethr =  4.55E-10,  avg # of iterations =  3.4

     negative rho (up, down):  3.760E-02 0.000E+00

     total cpu time spent up to now is     3095.0 secs

     total energy              =    -364.71165308 Ry
     estimated scf accuracy    <       0.00000013 Ry

     iteration # 21     ecut=    50.00 Ry     beta= 0.70
     CG style diagonalization
     ethr =  2.99E-10,  avg # of iterations =  3.3

     negative rho (up, down):  3.760E-02 0.000E+00

     total cpu time spent up to now is     3119.4 secs

     total energy              =    -364.71165309 Ry
     estimated scf accuracy    <       0.00000006 Ry

     iteration # 22     ecut=    50.00 Ry     beta= 0.70
     CG style diagonalization
     ethr =  1.31E-10,  avg # of iterations =  3.2

     negative rho (up, down):  3.760E-02 0.000E+00

     total cpu time spent up to now is     3142.4 secs

     total energy              =    -364.71165309 Ry
     estimated scf accuracy    <       0.00000004 Ry

     iteration # 23     ecut=    50.00 Ry     beta= 0.70
     CG style diagonalization
     ethr =  9.27E-11,  avg # of iterations =  3.1

     negative rho (up, down):  3.760E-02 0.000E+00

     total cpu time spent up to now is     3164.9 secs

     total energy              =    -364.71165309 Ry
     estimated scf accuracy    <       0.00000003 Ry

     iteration # 24     ecut=    50.00 Ry     beta= 0.70
     CG style diagonalization
     ethr =  6.19E-11,  avg # of iterations =  3.1

     negative rho (up, down):  3.760E-02 0.000E+00

     total cpu time spent up to now is     3187.2 secs

     total energy              =    -364.71165308 Ry
     estimated scf accuracy    <       0.00000002 Ry

     iteration # 25     ecut=    50.00 Ry     beta= 0.70
     CG style diagonalization
     ethr =  5.45E-11,  avg # of iterations =  4.3

     negative rho (up, down):  3.760E-02 0.000E+00

     total cpu time spent up to now is     3219.3 secs

     End of self-consistent calculation

     Number of k-points >= 100: set verbosity='high' to print the bands.

     highest occupied level (ev):    65.2926

!    total energy              =    -364.71165308 Ry
     estimated scf accuracy    <          5.5E-09 Ry

     The total energy is the sum of the following terms:
     one-electron contribution =     146.51425535 Ry
     hartree contribution      =      32.36846680 Ry
     xc contribution           =    -115.02096372 Ry
     ewald contribution        =    -428.57341150 Ry

     convergence has been achieved in  25 iterations

     negative rho (up, down):  3.760E-02 0.000E+00

     Forces acting on atoms (cartesian axes, Ry/au):

     atom    1 type  1   force =    -0.24391190    0.24391190   -0.69735009
     atom    2 type  2   force =     1.89799768   -1.89799768   -0.30554796
     atom    3 type  3   force =    -1.47568561    1.47568561   -0.65033692
     atom    4 type  3   force =     0.42573622    0.60413639    0.82661749
     atom    5 type  3   force =    -0.60413639   -0.42573622    0.82661749

     Total force =     3.891108     Total SCF correction =     0.000286


     Computing stress (Cartesian axis) and pressure


     negative rho (up, down):  3.760E-02 0.000E+00
          total   stress  (Ry/bohr**3)                   (kbar)     P=    47413.98
   0.32866853   0.01546976   0.00034298        48348.81     2275.68       50.45
   0.01546976   0.32866853  -0.00034298         2275.68    48348.81      -50.45
   0.00034298  -0.00034298   0.30960398           50.45      -50.45    45544.32


     BFGS Geometry Optimization
     Energy error            =      0.0E+00 Ry
     Gradient error          =      1.9E+00 Ry/Bohr

     number of scf cycles    =   1
     number of bfgs steps    =   0

     energy             new  =    -364.7116530784 Ry

     new trust radius        =       0.5000000000 bohr
     new conv_thr            =       0.0000000100 Ry


ATOMIC_POSITIONS (crystal)
Pb           -0.0939017827       -0.0939017827        1.0010042185
Ti            0.5186616665        0.5186616665        0.4985675897
O             0.4836280592        0.4836280592        0.1598838767
O             0.5392804764        0.0523315805        0.6039143016
O             0.0523315805        0.5392804764        0.6039143016



     Writing config-only to output data dir ./PTO.save/
     NEW-OLD atomic charge density approx. for the potential

     negative rho (up, down):  3.500E-02 0.000E+00

     total cpu time spent up to now is     3228.5 secs

     Self-consistent Calculation

     iteration #  1     ecut=    50.00 Ry     beta= 0.70
     CG style diagonalization
     c_bands:  1 eigenvalues not converged
     c_bands:  1 eigenvalues not converged
     c_bands:  2 eigenvalues not converged
     c_bands:  1 eigenvalues not converged
     c_bands:  1 eigenvalues not converged
     c_bands:  1 eigenvalues not converged
     c_bands:  1 eigenvalues not converged
     c_bands:  1 eigenvalues not converged
     c_bands:  1 eigenvalues not converged
     c_bands:  2 eigenvalues not converged
     c_bands:  1 eigenvalues not converged
     ethr =  1.00E-06,  avg # of iterations = 26.3

     negative rho (up, down):  3.404E-02 0.000E+00

     total cpu time spent up to now is     3422.7 secs

     total energy              =    -362.68945899 Ry
     estimated scf accuracy    <       0.57465765 Ry

     iteration #  2     ecut=    50.00 Ry     beta= 0.70
     CG style diagonalization
     ethr =  1.31E-03,  avg # of iterations =  4.1

     negative rho (up, down):  3.499E-02 0.000E+00

     total cpu time spent up to now is     3452.8 secs

     total energy              =    -362.79228908 Ry
     estimated scf accuracy    <       0.16246948 Ry

     iteration #  3     ecut=    50.00 Ry     beta= 0.70
     CG style diagonalization
     ethr =  3.69E-04,  avg # of iterations =  4.1

     negative rho (up, down):  3.487E-02 0.000E+00

     total cpu time spent up to now is     3483.5 secs

     total energy              =    -362.85931100 Ry
     estimated scf accuracy    <       0.03314004 Ry

     iteration #  4     ecut=    50.00 Ry     beta= 0.70
     CG style diagonalization
     ethr =  7.53E-05,  avg # of iterations =  4.1

     negative rho (up, down):  3.491E-02 0.000E+00

     total cpu time spent up to now is     3513.6 secs

     total energy              =    -362.86996538 Ry
     estimated scf accuracy    <       0.00094026 Ry

     iteration #  5     ecut=    50.00 Ry     beta= 0.70
     CG style diagonalization
     c_bands:  1 eigenvalues not converged
     c_bands:  1 eigenvalues not converged
     c_bands:  1 eigenvalues not converged
     c_bands:  1 eigenvalues not converged
     c_bands:  1 eigenvalues not converged
     ethr =  2.14E-06,  avg # of iterations =  6.6

     negative rho (up, down):  3.494E-02 0.000E+00

     total cpu time spent up to now is     3563.3 secs

     total energy              =    -362.87637421 Ry
     estimated scf accuracy    <       0.00048542 Ry

     iteration #  6     ecut=    50.00 Ry     beta= 0.70
     CG style diagonalization
     c_bands:  1 eigenvalues not converged
     c_bands:  1 eigenvalues not converged
     ethr =  1.10E-06,  avg # of iterations =  3.8

     negative rho (up, down):  3.497E-02 0.000E+00

     total cpu time spent up to now is     3591.7 secs

     total energy              =    -362.88090061 Ry
     estimated scf accuracy    <       0.00008019 Ry

     iteration #  7     ecut=    50.00 Ry     beta= 0.70
     CG style diagonalization
     c_bands:  1 eigenvalues not converged
     c_bands:  1 eigenvalues not converged
     ethr =  1.82E-07,  avg # of iterations =  5.6

     negative rho (up, down):  3.495E-02 0.000E+00

     total cpu time spent up to now is     3633.6 secs

     total energy              =    -362.88178928 Ry
     estimated scf accuracy    <       0.00003256 Ry

     iteration #  8     ecut=    50.00 Ry     beta= 0.70
     CG style diagonalization
     c_bands:  1 eigenvalues not converged
     ethr =  7.40E-08,  avg # of iterations =  4.8

     negative rho (up, down):  3.494E-02 0.000E+00

     total cpu time spent up to now is     3668.9 secs

     total energy              =    -362.88183293 Ry
     estimated scf accuracy    <       0.00000222 Ry

     iteration #  9     ecut=    50.00 Ry     beta= 0.70
     CG style diagonalization
     c_bands:  1 eigenvalues not converged
     c_bands:  1 eigenvalues not converged
     c_bands:  1 eigenvalues not converged
     c_bands:  1 eigenvalues not converged
     c_bands:  1 eigenvalues not converged
     ethr =  5.05E-09,  avg # of iterations =  8.2

     negative rho (up, down):  3.495E-02 0.000E+00

     total cpu time spent up to now is     3731.9 secs

     total energy              =    -362.88876130 Ry
     estimated scf accuracy    <       0.00007375 Ry

     iteration # 10     ecut=    50.00 Ry     beta= 0.70
     CG style diagonalization
     c_bands:  1 eigenvalues not converged
     c_bands:  1 eigenvalues not converged
     c_bands:  1 eigenvalues not converged
     c_bands:  1 eigenvalues not converged
     ethr =  5.05E-09,  avg # of iterations =  3.7

     negative rho (up, down):  3.494E-02 0.000E+00

     total cpu time spent up to now is     3758.8 secs

     total energy              =    -362.88906140 Ry
     estimated scf accuracy    <       0.00009948 Ry

     iteration # 11     ecut=    50.00 Ry     beta= 0.70
     CG style diagonalization
     c_bands:  1 eigenvalues not converged
     ethr =  5.05E-09,  avg # of iterations =  3.0

     negative rho (up, down):  3.489E-02 0.000E+00

     total cpu time spent up to now is     3781.1 secs

     total energy              =    -362.88905442 Ry
     estimated scf accuracy    <       0.00009691 Ry

     iteration # 12     ecut=    50.00 Ry     beta= 0.70
     CG style diagonalization
     c_bands:  1 eigenvalues not converged
     ethr =  5.05E-09,  avg # of iterations =  3.4

     negative rho (up, down):  3.480E-02 0.000E+00

     total cpu time spent up to now is     3806.4 secs

     total energy              =    -362.88998788 Ry
     estimated scf accuracy    <       0.00008863 Ry

     iteration # 13     ecut=    50.00 Ry     beta= 0.70
     CG style diagonalization
     c_bands:  1 eigenvalues not converged
     ethr =  5.05E-09,  avg # of iterations =  4.5

     negative rho (up, down):  3.477E-02 0.000E+00

     total cpu time spent up to now is     3839.5 secs

     total energy              =    -362.88998026 Ry
     estimated scf accuracy    <       0.00004502 Ry

     iteration # 14     ecut=    50.00 Ry     beta= 0.70
     CG style diagonalization
     ethr =  5.05E-09,  avg # of iterations =  4.4

     negative rho (up, down):  3.478E-02 0.000E+00

     total cpu time spent up to now is     3872.0 secs

     total energy              =    -362.88997815 Ry
     estimated scf accuracy    <       0.00001844 Ry

     iteration # 15     ecut=    50.00 Ry     beta= 0.70
     CG style diagonalization
     ethr =  5.05E-09,  avg # of iterations =  3.4

     negative rho (up, down):  3.486E-02 0.000E+00

     total cpu time spent up to now is     3897.1 secs

     total energy              =    -362.88997369 Ry
     estimated scf accuracy    <       0.00000963 Ry

     iteration # 16     ecut=    50.00 Ry     beta= 0.70
     CG style diagonalization
     c_bands:  1 eigenvalues not converged
     ethr =  5.05E-09,  avg # of iterations =  4.6

     negative rho (up, down):  3.491E-02 0.000E+00

     total cpu time spent up to now is     3932.8 secs

     total energy              =    -362.88997534 Ry
     estimated scf accuracy    <       0.00000022 Ry

     iteration # 17     ecut=    50.00 Ry     beta= 0.70
     CG style diagonalization
     c_bands:  1 eigenvalues not converged
     c_bands:  1 eigenvalues not converged
     c_bands:  1 eigenvalues not converged
     ethr =  5.02E-10,  avg # of iterations =  5.1

     negative rho (up, down):  3.491E-02 0.000E+00

     total cpu time spent up to now is     3972.5 secs

     total energy              =    -362.89411787 Ry
     estimated scf accuracy    <       0.00001102 Ry

     iteration # 18     ecut=    50.00 Ry     beta= 0.70
     CG style diagonalization
     c_bands:  1 eigenvalues not converged
     c_bands:  1 eigenvalues not converged
     c_bands:  1 eigenvalues not converged
     ethr =  5.02E-10,  avg # of iterations =  4.2

     negative rho (up, down):  3.493E-02 0.000E+00

     total cpu time spent up to now is     4002.9 secs

     total energy              =    -362.89820756 Ry
     estimated scf accuracy    <       0.00008165 Ry

     iteration # 19     ecut=    50.00 Ry     beta= 0.70
     CG style diagonalization
     c_bands:  1 eigenvalues not converged
     c_bands:  1 eigenvalues not converged
     ethr =  5.02E-10,  avg # of iterations =  3.3

     negative rho (up, down):  3.491E-02 0.000E+00

     total cpu time spent up to now is     4027.1 secs

     total energy              =    -362.89822822 Ry
     estimated scf accuracy    <       0.00007898 Ry

     iteration # 20     ecut=    50.00 Ry     beta= 0.70
     CG style diagonalization
     ethr =  5.02E-10,  avg # of iterations =  3.3

     negative rho (up, down):  3.493E-02 0.000E+00

     total cpu time spent up to now is     4050.7 secs

     total energy              =    -362.89822653 Ry
     estimated scf accuracy    <       0.00007661 Ry

     iteration # 21     ecut=    50.00 Ry     beta= 0.70
     CG style diagonalization
     ethr =  5.02E-10,  avg # of iterations =  3.4

     negative rho (up, down):  3.495E-02 0.000E+00

     total cpu time spent up to now is     4075.6 secs

     total energy              =    -362.89822382 Ry
     estimated scf accuracy    <       0.00007092 Ry

     iteration # 22     ecut=    50.00 Ry     beta= 0.70
     CG style diagonalization
     ethr =  5.02E-10,  avg # of iterations =  4.0

     negative rho (up, down):  3.495E-02 0.000E+00

     total cpu time spent up to now is     4106.9 secs

     total energy              =    -362.89822207 Ry
     estimated scf accuracy    <       0.00006222 Ry

     iteration # 23     ecut=    50.00 Ry     beta= 0.70
     CG style diagonalization
     ethr =  5.02E-10,  avg # of iterations =  3.3

     negative rho (up, down):  3.495E-02 0.000E+00

     total cpu time spent up to now is     4130.4 secs

     total energy              =    -362.89822146 Ry
     estimated scf accuracy    <       0.00005714 Ry

     iteration # 24     ecut=    50.00 Ry     beta= 0.70
     CG style diagonalization
     ethr =  5.02E-10,  avg # of iterations =  3.0

     negative rho (up, down):  3.494E-02 0.000E+00

     total cpu time spent up to now is     4151.9 secs

     total energy              =    -362.89821994 Ry
     estimated scf accuracy    <       0.00005566 Ry

     iteration # 25     ecut=    50.00 Ry     beta= 0.70
     CG style diagonalization
     ethr =  5.02E-10,  avg # of iterations =  3.4

     negative rho (up, down):  3.492E-02 0.000E+00

     total cpu time spent up to now is     4176.6 secs

     total energy              =    -362.89821197 Ry
     estimated scf accuracy    <       0.00005057 Ry

     iteration # 26     ecut=    50.00 Ry     beta= 0.70
     CG style diagonalization
     c_bands:  1 eigenvalues not converged
     c_bands:  1 eigenvalues not converged
     ethr =  5.02E-10,  avg # of iterations =  5.5

     negative rho (up, down):  3.488E-02 0.000E+00

     total cpu time spent up to now is     4217.6 secs

     total energy              =    -362.89819740 Ry
     estimated scf accuracy    <       0.00002783 Ry

     iteration # 27     ecut=    50.00 Ry     beta= 0.70
     CG style diagonalization
     c_bands:  1 eigenvalues not converged
     c_bands:  1 eigenvalues not converged
     c_bands:  1 eigenvalues not converged
     c_bands:  1 eigenvalues not converged
     c_bands:  1 eigenvalues not converged
     c_bands:  1 eigenvalues not converged
     c_bands:  1 eigenvalues not converged
     c_bands:  1 eigenvalues not converged
     c_bands:  1 eigenvalues not converged
     c_bands:  1 eigenvalues not converged
     ethr =  5.02E-10,  avg # of iterations =  7.6

     negative rho (up, down):  3.493E-02 0.000E+00

     total cpu time spent up to now is     4275.1 secs

     total energy              =    -362.89820351 Ry
     estimated scf accuracy    <       0.00000089 Ry

     iteration # 28     ecut=    50.00 Ry     beta= 0.70
     CG style diagonalization
     ethr =  5.02E-10,  avg # of iterations =  3.9

     negative rho (up, down):  3.492E-02 0.000E+00

     total cpu time spent up to now is     4303.7 secs

     total energy              =    -362.89820356 Ry
     estimated scf accuracy    <       0.00000012 Ry

     iteration # 29     ecut=    50.00 Ry     beta= 0.70
     CG style diagonalization
     ethr =  2.61E-10,  avg # of iterations =  3.1

     negative rho (up, down):  3.492E-02 0.000E+00

     total cpu time spent up to now is     4327.0 secs

     total energy              =    -362.89820355 Ry
     estimated scf accuracy    <       0.00000006 Ry

     iteration # 30     ecut=    50.00 Ry     beta= 0.70
     CG style diagonalization
     ethr =  1.44E-10,  avg # of iterations =  3.4

     negative rho (up, down):  3.492E-02 0.000E+00

     total cpu time spent up to now is     4352.0 secs

     End of self-consistent calculation

     Number of k-points >= 100: set verbosity='high' to print the bands.

     highest occupied level (ev):    64.6980

!    total energy              =    -362.89820355 Ry
     estimated scf accuracy    <          8.1E-09 Ry

     The total energy is the sum of the following terms:
     one-electron contribution =     138.12749765 Ry
     hartree contribution      =      35.62557378 Ry
     xc contribution           =    -115.40765639 Ry
     ewald contribution        =    -421.24361858 Ry

     convergence has been achieved in  30 iterations

     negative rho (up, down):  3.492E-02 0.000E+00

     Forces acting on atoms (cartesian axes, Ry/au):

     atom    1 type  1   force =     0.50835709   -0.50835709    1.64410588
     atom    2 type  2   force =    -4.33781102    4.33781102    3.04541357
     atom    3 type  3   force =     4.08277168   -4.08277168    0.95307194
     atom    4 type  3   force =    -1.66033357   -1.40701582   -2.82129569
     atom    5 type  3   force =     1.40701582    1.66033357   -2.82129569

     Total force =    10.476942     Total SCF correction =     0.000189


     Computing stress (Cartesian axis) and pressure


     negative rho (up, down):  3.492E-02 0.000E+00
          total   stress  (Ry/bohr**3)                   (kbar)     P=    49654.81
   0.33747571  -0.01677005  -0.00125334        49644.39    -2466.96     -184.37
  -0.01677005   0.33747571   0.00125334        -2466.96    49644.39      184.37
  -0.00125334   0.00125334   0.33768824         -184.37      184.37    49675.66

     Energy error            =      1.8E+00 Ry
     Gradient error          =      4.3E+00 Ry/Bohr

     number of scf cycles    =   2
     number of bfgs steps    =   1

     energy             old  =    -364.7116530784 Ry
     energy             new  =    -362.8982035546 Ry

     CASE: energy            _new > energy            _old

     new trust radius        =       0.1517786515 bohr
     new conv_thr            =       0.0000000100 Ry


ATOMIC_POSITIONS (crystal)
Pb           -0.0815545826       -0.0815545826        0.9800196667
Ti            0.5240716633        0.5240716633        0.5603690476
O             0.4951428496        0.4951428496        0.0961124489
O             0.5428792881        0.0194607815        0.6153915624
O             0.0194607815        0.5428792881        0.6153915624



     Writing config-only to output data dir ./PTO.save/
     NEW-OLD atomic charge density approx. for the potential

     negative rho (up, down):  3.360E-02 0.000E+00

     total cpu time spent up to now is     4362.5 secs

     Self-consistent Calculation

     iteration #  1     ecut=    50.00 Ry     beta= 0.70
     CG style diagonalization
     c_bands:  1 eigenvalues not converged
     c_bands:  1 eigenvalues not converged
     c_bands:  1 eigenvalues not converged
     c_bands:  1 eigenvalues not converged
     c_bands:  1 eigenvalues not converged
     c_bands:  1 eigenvalues not converged
     c_bands:  1 eigenvalues not converged
     c_bands:  1 eigenvalues not converged
     c_bands:  1 eigenvalues not converged
     ethr =  1.00E-06,  avg # of iterations = 26.3

     negative rho (up, down):  3.619E-02 0.000E+00

     total cpu time spent up to now is     4557.7 secs

     total energy              =    -365.03873511 Ry
     estimated scf accuracy    <       0.33004455 Ry

     iteration #  2     ecut=    50.00 Ry     beta= 0.70
     CG style diagonalization
     ethr =  7.50E-04,  avg # of iterations =  4.1

     negative rho (up, down):  3.626E-02 0.000E+00

     total cpu time spent up to now is     4588.6 secs

     total energy              =    -365.10954008 Ry
     estimated scf accuracy    <       0.08141660 Ry

     iteration #  3     ecut=    50.00 Ry     beta= 0.70
     CG style diagonalization
     ethr =  1.85E-04,  avg # of iterations =  4.1

     negative rho (up, down):  3.664E-02 0.000E+00

     total cpu time spent up to now is     4618.6 secs

     total energy              =    -365.14143623 Ry
     estimated scf accuracy    <       0.01139215 Ry

     iteration #  4     ecut=    50.00 Ry     beta= 0.70
     CG style diagonalization
     ethr =  2.59E-05,  avg # of iterations =  4.2

     negative rho (up, down):  3.687E-02 0.000E+00

     total cpu time spent up to now is     4650.2 secs

     total energy              =    -365.14593962 Ry
     estimated scf accuracy    <       0.00121394 Ry

     iteration #  5     ecut=    50.00 Ry     beta= 0.70
     CG style diagonalization
     ethr =  2.76E-06,  avg # of iterations =  5.1

     negative rho (up, down):  3.692E-02 0.000E+00

     total cpu time spent up to now is     4688.5 secs

     total energy              =    -365.14668221 Ry
     estimated scf accuracy    <       0.00021719 Ry

     iteration #  6     ecut=    50.00 Ry     beta= 0.70
     CG style diagonalization
     ethr =  4.94E-07,  avg # of iterations =  4.9

     negative rho (up, down):  3.699E-02 0.000E+00

     total cpu time spent up to now is     4724.7 secs

     total energy              =    -365.14678751 Ry
     estimated scf accuracy    <       0.00003410 Ry

     iteration #  7     ecut=    50.00 Ry     beta= 0.70
     CG style diagonalization
     ethr =  7.75E-08,  avg # of iterations =  6.0

     negative rho (up, down):  3.699E-02 0.000E+00

     total cpu time spent up to now is     4769.3 secs

     total energy              =    -365.14681541 Ry
     estimated scf accuracy    <       0.00001160 Ry

     iteration #  8     ecut=    50.00 Ry     beta= 0.70
     CG style diagonalization
     ethr =  2.64E-08,  avg # of iterations =  4.9

     negative rho (up, down):  3.699E-02 0.000E+00

     total cpu time spent up to now is     4805.9 secs

     total energy              =    -365.14682211 Ry
     estimated scf accuracy    <       0.00000054 Ry

     iteration #  9     ecut=    50.00 Ry     beta= 0.70
     CG style diagonalization
     c_bands:  1 eigenvalues not converged
     ethr =  1.24E-09,  avg # of iterations =  9.0

     negative rho (up, down):  3.700E-02 0.000E+00

     total cpu time spent up to now is     4872.7 secs

     total energy              =    -365.14682476 Ry
     estimated scf accuracy    <       0.00000012 Ry

     iteration # 10     ecut=    50.00 Ry     beta= 0.70
     CG style diagonalization
     ethr =  2.62E-10,  avg # of iterations =  5.7

     negative rho (up, down):  3.700E-02 0.000E+00

     total cpu time spent up to now is     4915.3 secs

     total energy              =    -365.14682486 Ry
     estimated scf accuracy    <       0.00000001 Ry

     iteration # 11     ecut=    50.00 Ry     beta= 0.70
     CG style diagonalization
     c_bands:  1 eigenvalues not converged
     ethr =  2.87E-11,  avg # of iterations =  7.4

     negative rho (up, down):  3.700E-02 0.000E+00

     total cpu time spent up to now is     4972.5 secs

     total energy              =    -365.14727479 Ry
     estimated scf accuracy    <       0.00000234 Ry

     iteration # 12     ecut=    50.00 Ry     beta= 0.70
     CG style diagonalization
     c_bands:  1 eigenvalues not converged
     ethr =  2.87E-11,  avg # of iterations =  3.3

     negative rho (up, down):  3.700E-02 0.000E+00

     total cpu time spent up to now is     4996.5 secs

     total energy              =    -365.14727639 Ry
     estimated scf accuracy    <       0.00000239 Ry

     iteration # 13     ecut=    50.00 Ry     beta= 0.70
     CG style diagonalization
     c_bands:  1 eigenvalues not converged
     ethr =  2.87E-11,  avg # of iterations =  3.2

     negative rho (up, down):  3.700E-02 0.000E+00

     total cpu time spent up to now is     5019.9 secs

     total energy              =    -365.14727612 Ry
     estimated scf accuracy    <       0.00000221 Ry

     iteration # 14     ecut=    50.00 Ry     beta= 0.70
     CG style diagonalization
     ethr =  2.87E-11,  avg # of iterations =  5.0

     negative rho (up, down):  3.700E-02 0.000E+00

     total cpu time spent up to now is     5056.9 secs

     total energy              =    -365.14727621 Ry
     estimated scf accuracy    <       0.00000134 Ry

     iteration # 15     ecut=    50.00 Ry     beta= 0.70
     CG style diagonalization
     ethr =  2.87E-11,  avg # of iterations =  3.7

     negative rho (up, down):  3.700E-02 0.000E+00

     total cpu time spent up to now is     5084.3 secs

     total energy              =    -365.14727612 Ry
     estimated scf accuracy    <       0.00000157 Ry

     iteration # 16     ecut=    50.00 Ry     beta= 0.70
     CG style diagonalization
     c_bands:  1 eigenvalues not converged
     ethr =  2.87E-11,  avg # of iterations =  3.8

     negative rho (up, down):  3.700E-02 0.000E+00

     total cpu time spent up to now is     5112.4 secs

     total energy              =    -365.14875690 Ry
     estimated scf accuracy    <       0.00001573 Ry

     iteration # 17     ecut=    50.00 Ry     beta= 0.70
     CG style diagonalization
     c_bands:  1 eigenvalues not converged
     ethr =  2.87E-11,  avg # of iterations =  3.3

     negative rho (up, down):  3.701E-02 0.000E+00

     total cpu time spent up to now is     5136.2 secs

     total energy              =    -365.14875671 Ry
     estimated scf accuracy    <       0.00001631 Ry

     iteration # 18     ecut=    50.00 Ry     beta= 0.70
     CG style diagonalization
     c_bands:  1 eigenvalues not converged
     c_bands:  1 eigenvalues not converged
     c_bands:  1 eigenvalues not converged
     c_bands:  1 eigenvalues not converged
     ethr =  2.87E-11,  avg # of iterations =  5.9

     negative rho (up, down):  3.701E-02 0.000E+00

     total cpu time spent up to now is     5181.6 secs

     total energy              =    -365.14942824 Ry
     estimated scf accuracy    <       0.00002206 Ry

     iteration # 19     ecut=    50.00 Ry     beta= 0.70
     CG style diagonalization
     c_bands:  1 eigenvalues not converged
     c_bands:  1 eigenvalues not converged
     ethr =  2.87E-11,  avg # of iterations =  4.0

     negative rho (up, down):  3.701E-02 0.000E+00

     total cpu time spent up to now is     5211.3 secs

     total energy              =    -365.14945866 Ry
     estimated scf accuracy    <       0.00002358 Ry

     iteration # 20     ecut=    50.00 Ry     beta= 0.70
     CG style diagonalization
     c_bands:  1 eigenvalues not converged
     c_bands:  1 eigenvalues not converged
     c_bands:  1 eigenvalues not converged
     c_bands:  1 eigenvalues not converged
     c_bands:  1 eigenvalues not converged
     c_bands:  1 eigenvalues not converged
     ethr =  2.87E-11,  avg # of iterations =  6.5

     negative rho (up, down):  3.701E-02 0.000E+00

     total cpu time spent up to now is     5260.7 secs

     total energy              =    -365.14945876 Ry
     estimated scf accuracy    <       0.00001822 Ry

     iteration # 21     ecut=    50.00 Ry     beta= 0.70
     CG style diagonalization
     ethr =  2.87E-11,  avg # of iterations =  3.8

     negative rho (up, down):  3.701E-02 0.000E+00

     total cpu time spent up to now is     5288.5 secs

     total energy              =    -365.14945875 Ry
     estimated scf accuracy    <       0.00001824 Ry

     iteration # 22     ecut=    50.00 Ry     beta= 0.70
     CG style diagonalization
     ethr =  2.87E-11,  avg # of iterations =  3.1

     negative rho (up, down):  3.701E-02 0.000E+00

     total cpu time spent up to now is     5311.0 secs

     total energy              =    -365.14945878 Ry
     estimated scf accuracy    <       0.00001830 Ry

     iteration # 23     ecut=    50.00 Ry     beta= 0.70
     CG style diagonalization
     ethr =  2.87E-11,  avg # of iterations =  3.7

     negative rho (up, down):  3.701E-02 0.000E+00

     total cpu time spent up to now is     5338.1 secs

     total energy              =    -365.14945884 Ry
     estimated scf accuracy    <       0.00001860 Ry

     iteration # 24     ecut=    50.00 Ry     beta= 0.70
     CG style diagonalization
     c_bands:  1 eigenvalues not converged
     ethr =  2.87E-11,  avg # of iterations =  5.0

     negative rho (up, down):  3.701E-02 0.000E+00

     total cpu time spent up to now is     5375.2 secs

     total energy              =    -365.14945974 Ry
     estimated scf accuracy    <       0.00001949 Ry

     iteration # 25     ecut=    50.00 Ry     beta= 0.70
     CG style diagonalization
     c_bands:  1 eigenvalues not converged
     c_bands:  1 eigenvalues not converged
     c_bands:  1 eigenvalues not converged
     c_bands:  1 eigenvalues not converged
     c_bands:  1 eigenvalues not converged
     c_bands:  1 eigenvalues not converged
     c_bands:  1 eigenvalues not converged
     c_bands:  1 eigenvalues not converged
     c_bands:  1 eigenvalues not converged
     c_bands:  1 eigenvalues not converged
     c_bands:  1 eigenvalues not converged
     c_bands:  1 eigenvalues not converged
     c_bands:  1 eigenvalues not converged
     c_bands:  1 eigenvalues not converged
     c_bands:  1 eigenvalues not converged
     c_bands:  1 eigenvalues not converged
     c_bands:  1 eigenvalues not converged
     c_bands:  1 eigenvalues not converged
     c_bands:  1 eigenvalues not converged
     c_bands:  1 eigenvalues not converged
     c_bands:  1 eigenvalues not converged
     c_bands:  1 eigenvalues not converged
     c_bands:  1 eigenvalues not converged
     c_bands:  1 eigenvalues not converged
     c_bands:  1 eigenvalues not converged
     c_bands:  1 eigenvalues not converged
     c_bands:  1 eigenvalues not converged
     c_bands:  1 eigenvalues not converged
     c_bands:  1 eigenvalues not converged
     c_bands:  1 eigenvalues not converged
     c_bands:  1 eigenvalues not converged
     c_bands:  1 eigenvalues not converged
     c_bands:  1 eigenvalues not converged
     c_bands:  1 eigenvalues not converged
     c_bands:  1 eigenvalues not converged
     c_bands:  1 eigenvalues not converged
     c_bands:  1 eigenvalues not converged
     c_bands:  1 eigenvalues not converged
     c_bands:  1 eigenvalues not converged
     c_bands:  1 eigenvalues not converged
     c_bands:  1 eigenvalues not converged
     c_bands:  1 eigenvalues not converged
     c_bands:  1 eigenvalues not converged
     ethr =  2.87E-11,  avg # of iterations = 10.0

     negative rho (up, down):  3.701E-02 0.000E+00

     total cpu time spent up to now is     5450.2 secs

     total energy              =    -365.14946161 Ry
     estimated scf accuracy    <       0.00002206 Ry

     iteration # 26     ecut=    50.00 Ry     beta= 0.70
     CG style diagonalization
     c_bands:  1 eigenvalues not converged
     ethr =  2.87E-11,  avg # of iterations =  5.3

     negative rho (up, down):  3.701E-02 0.000E+00

     total cpu time spent up to now is     5488.9 secs

     total energy              =    -365.14946311 Ry
     estimated scf accuracy    <       0.00002221 Ry

     iteration # 27     ecut=    50.00 Ry     beta= 0.70
     CG style diagonalization
     c_bands:  1 eigenvalues not converged
     c_bands:  1 eigenvalues not converged
     c_bands:  1 eigenvalues not converged
     c_bands:  1 eigenvalues not converged
     c_bands:  1 eigenvalues not converged
     c_bands:  1 eigenvalues not converged
     c_bands:  1 eigenvalues not converged
     c_bands:  1 eigenvalues not converged
     c_bands:  1 eigenvalues not converged
     c_bands:  1 eigenvalues not converged
     c_bands:  1 eigenvalues not converged
     c_bands:  1 eigenvalues not converged
     c_bands:  1 eigenvalues not converged
     c_bands:  1 eigenvalues not converged
     c_bands:  1 eigenvalues not converged
     c_bands:  1 eigenvalues not converged
     c_bands:  1 eigenvalues not converged
     c_bands:  1 eigenvalues not converged
     c_bands:  1 eigenvalues not converged
     c_bands:  1 eigenvalues not converged
     c_bands:  1 eigenvalues not converged
     c_bands:  1 eigenvalues not converged
     c_bands:  1 eigenvalues not converged
     c_bands:  1 eigenvalues not converged
     c_bands:  1 eigenvalues not converged
     c_bands:  1 eigenvalues not converged
     c_bands:  1 eigenvalues not converged
     c_bands:  1 eigenvalues not converged
     c_bands:  1 eigenvalues not converged
     c_bands:  1 eigenvalues not converged
     c_bands:  1 eigenvalues not converged
     c_bands:  1 eigenvalues not converged
     c_bands:  1 eigenvalues not converged
     c_bands:  1 eigenvalues not converged
     c_bands:  1 eigenvalues not converged
     c_bands:  1 eigenvalues not converged
     c_bands:  1 eigenvalues not converged
     c_bands:  1 eigenvalues not converged
     c_bands:  1 eigenvalues not converged
     ethr =  2.87E-11,  avg # of iterations = 11.2

     negative rho (up, down):  3.702E-02 0.000E+00

     total cpu time spent up to now is     5573.8 secs

     total energy              =    -365.14944696 Ry
     estimated scf accuracy    <       0.00003135 Ry

     iteration # 28     ecut=    50.00 Ry     beta= 0.70
     CG style diagonalization
     c_bands:  1 eigenvalues not converged
     c_bands:  1 eigenvalues not converged
     c_bands:  1 eigenvalues not converged
     c_bands:  1 eigenvalues not converged
     c_bands:  1 eigenvalues not converged
     c_bands:  1 eigenvalues not converged
     c_bands:  1 eigenvalues not converged
     c_bands:  1 eigenvalues not converged
     c_bands:  1 eigenvalues not converged
     c_bands:  1 eigenvalues not converged
     c_bands:  1 eigenvalues not converged
     c_bands:  1 eigenvalues not converged
     c_bands:  1 eigenvalues not converged
     c_bands:  1 eigenvalues not converged
     c_bands:  1 eigenvalues not converged
     c_bands:  1 eigenvalues not converged
     c_bands:  1 eigenvalues not converged
     c_bands:  1 eigenvalues not converged
     c_bands:  1 eigenvalues not converged
     c_bands:  1 eigenvalues not converged
     c_bands:  1 eigenvalues not converged
     c_bands:  1 eigenvalues not converged
     c_bands:  1 eigenvalues not converged
     c_bands:  1 eigenvalues not converged
     c_bands:  1 eigenvalues not converged
     c_bands:  1 eigenvalues not converged
     c_bands:  2 eigenvalues not converged
     c_bands:  1 eigenvalues not converged
     c_bands:  1 eigenvalues not converged
     c_bands:  1 eigenvalues not converged
     c_bands:  1 eigenvalues not converged
     c_bands:  1 eigenvalues not converged
     c_bands:  1 eigenvalues not converged
     c_bands:  1 eigenvalues not converged
     c_bands:  1 eigenvalues not converged
     c_bands:  1 eigenvalues not converged
     c_bands:  1 eigenvalues not converged
     c_bands:  2 eigenvalues not converged
     c_bands:  1 eigenvalues not converged
     c_bands:  1 eigenvalues not converged
     c_bands:  1 eigenvalues not converged
     c_bands:  1 eigenvalues not converged
     c_bands:  1 eigenvalues not converged
     c_bands:  1 eigenvalues not converged
     c_bands:  1 eigenvalues not converged
     c_bands:  1 eigenvalues not converged
     c_bands:  1 eigenvalues not converged
     c_bands:  1 eigenvalues not converged
     c_bands:  1 eigenvalues not converged
     c_bands:  1 eigenvalues not converged
     c_bands:  1 eigenvalues not converged
     c_bands:  1 eigenvalues not converged
     c_bands:  1 eigenvalues not converged
     c_bands:  1 eigenvalues not converged
     c_bands:  1 eigenvalues not converged
     c_bands:  1 eigenvalues not converged
     c_bands:  1 eigenvalues not converged
     c_bands:  1 eigenvalues not converged
     c_bands:  1 eigenvalues not converged
     c_bands:  1 eigenvalues not converged
     c_bands:  1 eigenvalues not converged
     c_bands:  1 eigenvalues not converged
     c_bands:  1 eigenvalues not converged
     c_bands:  1 eigenvalues not converged
     c_bands:  1 eigenvalues not converged
     c_bands:  1 eigenvalues not converged
     c_bands:  1 eigenvalues not converged
     c_bands:  1 eigenvalues not converged
     c_bands:  1 eigenvalues not converged
     c_bands:  1 eigenvalues not converged
     c_bands:  1 eigenvalues not converged
     c_bands:  1 eigenvalues not converged
     c_bands:  1 eigenvalues not converged
     c_bands:  1 eigenvalues not converged
     c_bands:  1 eigenvalues not converged
     c_bands:  1 eigenvalues not converged
     c_bands:  1 eigenvalues not converged
     c_bands:  1 eigenvalues not converged
     ethr =  2.87E-11,  avg # of iterations = 13.1

     negative rho (up, down):  3.701E-02 0.000E+00

     total cpu time spent up to now is     5673.7 secs

     total energy              =    -365.14945138 Ry
     estimated scf accuracy    <       0.00000273 Ry

     iteration # 29     ecut=    50.00 Ry     beta= 0.70
     CG style diagonalization
     c_bands:  1 eigenvalues not converged
     c_bands:  1 eigenvalues not converged
     c_bands:  1 eigenvalues not converged
     c_bands:  1 eigenvalues not converged
     c_bands:  1 eigenvalues not converged
     c_bands:  1 eigenvalues not converged
     c_bands:  1 eigenvalues not converged
     c_bands:  1 eigenvalues not converged
     c_bands:  1 eigenvalues not converged
     c_bands:  1 eigenvalues not converged
     c_bands:  1 eigenvalues not converged
     c_bands:  1 eigenvalues not converged
     c_bands:  1 eigenvalues not converged
     c_bands:  1 eigenvalues not converged
     c_bands:  1 eigenvalues not converged
     c_bands:  1 eigenvalues not converged
     c_bands:  1 eigenvalues not converged
     c_bands:  1 eigenvalues not converged
     c_bands:  1 eigenvalues not converged
     c_bands:  1 eigenvalues not converged
     c_bands:  1 eigenvalues not converged
     c_bands:  1 eigenvalues not converged
     c_bands:  1 eigenvalues not converged
     c_bands:  1 eigenvalues not converged
     c_bands:  1 eigenvalues not converged
     ethr =  2.87E-11,  avg # of iterations = 11.3

     negative rho (up, down):  3.702E-02 0.000E+00

     total cpu time spent up to now is     5758.8 secs

     total energy              =    -365.14945194 Ry
     estimated scf accuracy    <       0.00000060 Ry

     iteration # 30     ecut=    50.00 Ry     beta= 0.70
     CG style diagonalization
     c_bands:  1 eigenvalues not converged
     ethr =  2.87E-11,  avg # of iterations =  8.6

     negative rho (up, down):  3.702E-02 0.000E+00

     total cpu time spent up to now is     5823.4 secs

     total energy              =    -365.14945200 Ry
     estimated scf accuracy    <       0.00000005 Ry

     iteration # 31     ecut=    50.00 Ry     beta= 0.70
     CG style diagonalization
     c_bands:  1 eigenvalues not converged
     c_bands:  1 eigenvalues not converged
     ethr =  2.87E-11,  avg # of iterations =  4.6

     negative rho (up, down):  3.702E-02 0.000E+00

     total cpu time spent up to now is     5857.2 secs

     total energy              =    -365.14960106 Ry
     estimated scf accuracy    <       0.00000104 Ry

     iteration # 32     ecut=    50.00 Ry     beta= 0.70
     CG style diagonalization
     c_bands:  1 eigenvalues not converged
     ethr =  2.87E-11,  avg # of iterations =  3.1

     negative rho (up, down):  3.702E-02 0.000E+00

     total cpu time spent up to now is     5880.7 secs

     total energy              =    -365.14960780 Ry
     estimated scf accuracy    <       0.00000104 Ry

     iteration # 33     ecut=    50.00 Ry     beta= 0.70
     CG style diagonalization
     c_bands:  1 eigenvalues not converged
     ethr =  2.87E-11,  avg # of iterations =  4.8

     negative rho (up, down):  3.702E-02 0.000E+00

     total cpu time spent up to now is     5916.5 secs

     total energy              =    -365.14960696 Ry
     estimated scf accuracy    <       0.00000185 Ry

     iteration # 34     ecut=    50.00 Ry     beta= 0.70
     CG style diagonalization
     c_bands:  1 eigenvalues not converged
     c_bands:  1 eigenvalues not converged
     c_bands:  1 eigenvalues not converged
     c_bands:  1 eigenvalues not converged
     c_bands:  1 eigenvalues not converged
     c_bands:  1 eigenvalues not converged
     c_bands:  1 eigenvalues not converged
     c_bands:  1 eigenvalues not converged
     c_bands:  1 eigenvalues not converged
     ethr =  2.87E-11,  avg # of iterations =  7.1

     negative rho (up, down):  3.702E-02 0.000E+00

     total cpu time spent up to now is     5970.3 secs

     total energy              =    -365.15052027 Ry
     estimated scf accuracy    <       0.00001426 Ry

     iteration # 35     ecut=    50.00 Ry     beta= 0.70
     CG style diagonalization
     c_bands:  1 eigenvalues not converged
     ethr =  2.87E-11,  avg # of iterations =  4.2

     negative rho (up, down):  3.702E-02 0.000E+00

     total cpu time spent up to now is     6001.3 secs

     total energy              =    -365.15053041 Ry
     estimated scf accuracy    <       0.00001570 Ry

     iteration # 36     ecut=    50.00 Ry     beta= 0.70
     CG style diagonalization
     c_bands:  1 eigenvalues not converged
     ethr =  2.87E-11,  avg # of iterations =  3.4

     negative rho (up, down):  3.702E-02 0.000E+00

     total cpu time spent up to now is     6026.0 secs

     total energy              =    -365.15053043 Ry
     estimated scf accuracy    <       0.00001640 Ry

     iteration # 37     ecut=    50.00 Ry     beta= 0.70
     CG style diagonalization
     ethr =  2.87E-11,  avg # of iterations =  3.5

     negative rho (up, down):  3.702E-02 0.000E+00

     total cpu time spent up to now is     6051.4 secs

     total energy              =    -365.15053060 Ry
     estimated scf accuracy    <       0.00001644 Ry

     iteration # 38     ecut=    50.00 Ry     beta= 0.70
     CG style diagonalization
     ethr =  2.87E-11,  avg # of iterations =  4.6

     negative rho (up, down):  3.702E-02 0.000E+00

     total cpu time spent up to now is     6085.0 secs

     total energy              =    -365.15053107 Ry
     estimated scf accuracy    <       0.00001708 Ry

     iteration # 39     ecut=    50.00 Ry     beta= 0.70
     CG style diagonalization
     ethr =  2.87E-11,  avg # of iterations =  4.4

     negative rho (up, down):  3.702E-02 0.000E+00

     total cpu time spent up to now is     6117.2 secs

     total energy              =    -365.15053033 Ry
     estimated scf accuracy    <       0.00001874 Ry

     iteration # 40     ecut=    50.00 Ry     beta= 0.70
     CG style diagonalization
     c_bands:  1 eigenvalues not converged
     ethr =  2.87E-11,  avg # of iterations =  5.5

     negative rho (up, down):  3.702E-02 0.000E+00

     total cpu time spent up to now is     6157.8 secs

     total energy              =    -365.15053269 Ry
     estimated scf accuracy    <       0.00001623 Ry

     iteration # 41     ecut=    50.00 Ry     beta= 0.70
     CG style diagonalization
     c_bands:  1 eigenvalues not converged
     c_bands:  1 eigenvalues not converged
     c_bands:  1 eigenvalues not converged
     c_bands:  1 eigenvalues not converged
     c_bands:  1 eigenvalues not converged
     c_bands:  1 eigenvalues not converged
     c_bands:  1 eigenvalues not converged
     c_bands:  1 eigenvalues not converged
     ethr =  2.87E-11,  avg # of iterations =  6.8

     negative rho (up, down):  3.702E-02 0.000E+00

     total cpu time spent up to now is     6209.8 secs

     total energy              =    -365.15053055 Ry
     estimated scf accuracy    <       0.00002514 Ry

     iteration # 42     ecut=    50.00 Ry     beta= 0.70
     CG style diagonalization
     c_bands:  1 eigenvalues not converged
     c_bands:  1 eigenvalues not converged
     c_bands:  1 eigenvalues not converged
     c_bands:  1 eigenvalues not converged
     c_bands:  1 eigenvalues not converged
     ethr =  2.87E-11,  avg # of iterations =  6.4

     negative rho (up, down):  3.703E-02 0.000E+00

     total cpu time spent up to now is     6258.8 secs

     total energy              =    -365.15052261 Ry
     estimated scf accuracy    <       0.00001751 Ry

     iteration # 43     ecut=    50.00 Ry     beta= 0.70
     CG style diagonalization
     c_bands:  1 eigenvalues not converged
     c_bands:  1 eigenvalues not converged
     c_bands:  1 eigenvalues not converged
     c_bands:  1 eigenvalues not converged
     c_bands:  1 eigenvalues not converged
     c_bands:  1 eigenvalues not converged
     c_bands:  1 eigenvalues not converged
     c_bands:  1 eigenvalues not converged
     c_bands:  1 eigenvalues not converged
     c_bands:  1 eigenvalues not converged
     c_bands:  1 eigenvalues not converged
     c_bands:  1 eigenvalues not converged
     c_bands:  1 eigenvalues not converged
     c_bands:  1 eigenvalues not converged
     c_bands:  1 eigenvalues not converged
     c_bands:  1 eigenvalues not converged
     c_bands:  1 eigenvalues not converged
     c_bands:  1 eigenvalues not converged
     c_bands:  1 eigenvalues not converged
     c_bands:  1 eigenvalues not converged
     c_bands:  1 eigenvalues not converged
     c_bands:  1 eigenvalues not converged
     c_bands:  1 eigenvalues not converged
     c_bands:  1 eigenvalues not converged
     c_bands:  1 eigenvalues not converged
     c_bands:  1 eigenvalues not converged
     c_bands:  1 eigenvalues not converged
     c_bands:  1 eigenvalues not converged
     c_bands:  1 eigenvalues not converged
     c_bands:  1 eigenvalues not converged
     c_bands:  2 eigenvalues not converged
     c_bands:  1 eigenvalues not converged
     c_bands:  1 eigenvalues not converged
     c_bands:  1 eigenvalues not converged
     c_bands:  1 eigenvalues not converged
     c_bands:  1 eigenvalues not converged
     c_bands:  1 eigenvalues not converged
     c_bands:  1 eigenvalues not converged
     c_bands:  1 eigenvalues not converged
     c_bands:  1 eigenvalues not converged
     c_bands:  1 eigenvalues not converged
     c_bands:  1 eigenvalues not converged
     c_bands:  1 eigenvalues not converged
     c_bands:  1 eigenvalues not converged
     c_bands:  1 eigenvalues not converged
     c_bands:  1 eigenvalues not converged
     c_bands:  1 eigenvalues not converged
     c_bands:  1 eigenvalues not converged
     c_bands:  1 eigenvalues not converged
     c_bands:  1 eigenvalues not converged
     c_bands:  1 eigenvalues not converged
     c_bands:  1 eigenvalues not converged
     c_bands:  1 eigenvalues not converged
     ethr =  2.87E-11,  avg # of iterations = 10.8

     negative rho (up, down):  3.703E-02 0.000E+00

     total cpu time spent up to now is     6340.7 secs

     total energy              =    -365.15052573 Ry
     estimated scf accuracy    <       0.00000005 Ry

     iteration # 44     ecut=    50.00 Ry     beta= 0.70
     CG style diagonalization
     ethr =  2.87E-11,  avg # of iterations =  3.8

     negative rho (up, down):  3.703E-02 0.000E+00

     total cpu time spent up to now is     6368.8 secs

     total energy              =    -365.15052573 Ry
     estimated scf accuracy    <       0.00000002 Ry

     iteration # 45     ecut=    50.00 Ry     beta= 0.70
     CG style diagonalization
     ethr =  2.87E-11,  avg # of iterations =  3.3

     negative rho (up, down):  3.703E-02 0.000E+00

     total cpu time spent up to now is     6393.1 secs

     End of self-consistent calculation

     Number of k-points >= 100: set verbosity='high' to print the bands.

     highest occupied level (ev):    64.7879

!    total energy              =    -365.15052572 Ry
     estimated scf accuracy    <          7.1E-09 Ry

     The total energy is the sum of the following terms:
     one-electron contribution =     151.04649443 Ry
     hartree contribution      =      30.35169410 Ry
     xc contribution           =    -114.87269573 Ry
     ewald contribution        =    -431.67601853 Ry

     convergence has been achieved in  45 iterations

     negative rho (up, down):  3.703E-02 0.000E+00

     Forces acting on atoms (cartesian axes, Ry/au):

     atom    1 type  1   force =     0.00389837   -0.00389837    0.05215477
     atom    2 type  2   force =     0.15611860   -0.15611860    0.45583358
     atom    3 type  3   force =    -0.14359762    0.14359762   -0.07918683
     atom    4 type  3   force =     0.01168230    0.02810165   -0.21440076
     atom    5 type  3   force =    -0.02810165   -0.01168230   -0.21440076

     Total force =     0.632914     Total SCF correction =     0.000201


     Computing stress (Cartesian axis) and pressure


     negative rho (up, down):  3.703E-02 0.000E+00
          total   stress  (Ry/bohr**3)                   (kbar)     P=    46447.33
   0.31864495   0.00599766   0.00095696        46874.29      882.29      140.77
   0.00599766   0.31864495  -0.00095696          882.29    46874.29     -140.77
   0.00095696  -0.00095696   0.30993762          140.77     -140.77    45593.40

     Energy error            =      1.2E+01 Ry
     Gradient error          =      4.6E-01 Ry/Bohr

     number of scf cycles    =   4
     number of bfgs steps    =   2

     energy             old  =    -376.8026426366 Ry
     energy             new  =    -365.1505257233 Ry

     CASE: energy            _new > energy            _old


 %%%%%%%%%%%%%%%%%%%%%%%%%%%%%%%%%%%%%%%%%%%%%%%%%%%%%%%%%%%%%%%%%%%%%%%%%%%%%%
     Error in routine bfgs (1):
     dE0s is positive which should never happen
 %%%%%%%%%%%%%%%%%%%%%%%%%%%%%%%%%%%%%%%%%%%%%%%%%%%%%%%%%%%%%%%%%%%%%%%%%%%%%%

     stopping ...
