
     Program PWSCF v.7.0 starts on  7Apr2022 at  1:34:14 

     This program is part of the open-source Quantum ESPRESSO suite
     for quantum simulation of materials; please cite
         "P. Giannozzi et al., J. Phys.:Condens. Matter 21 395502 (2009);
         "P. Giannozzi et al., J. Phys.:Condens. Matter 29 465901 (2017);
         "P. Giannozzi et al., J. Chem. Phys. 152 154105 (2020);
          URL http://www.quantum-espresso.org", 
     in publications or presentations arising from this work. More details at
     http://www.quantum-espresso.org/quote

     Parallel version (MPI), running on     1 processors

     MPI processes distributed on     1 nodes
     91181 MiB available memory on the printing compute node when the environment starts
 
     Waiting for input...
     Reading input from standard input
Warning: card &CELL ignored
Warning: card  CELL_DYNAMICS = 'BFGS', ignored
Warning: card  PRESS=0.1D0, ignored
Warning: card / ignored

     Current dimensions of program PWSCF are:
     Max number of different atomic species (ntypx) = 10
     Max number of k-points (npk) =  40000
     Max angular momentum in pseudopotentials (lmaxx) =  4
     Message from routine setup:
     using ibrav=0 with symmetry is DISCOURAGED, use correct ibrav instead

     Subspace diagonalization in iterative solution of the eigenvalue problem:
     a serial algorithm will be used

 
     G-vector sticks info
     --------------------
     sticks:   dense  smooth     PW     G-vecs:    dense   smooth      PW
     Sum         917     365    121                18257     4629     893
 
     Using Slab Decomposition
 


     bravais-lattice index     =            0
     lattice parameter (alat)  =       7.2800  a.u.
     unit-cell volume          =      96.4524 (a.u.)^3
     number of atoms/cell      =            5
     number of atomic types    =            3
     number of electrons       =        44.00
     number of Kohn-Sham states=           22
     kinetic-energy cutoff     =      50.0000  Ry
     charge density cutoff     =     500.0000  Ry
     scf convergence threshold =      1.0E-08
     mixing beta               =       0.7000
     number of iterations used =            8  plain     mixing
     energy convergence thresh.=      1.0E-04
     force convergence thresh. =      1.0E-03
     Exchange-correlation= SLA  PZ   NOGX NOGC
                           (   1   1   0   0   0   0   0)
     nstep                     =           50


     celldm(1)=   7.280000  celldm(2)=   0.000000  celldm(3)=   1.050000
     celldm(4)=   0.000000  celldm(5)=   0.000000  celldm(6)=   0.000000

     crystal axes: (cart. coord. in units of alat)
               a(1) = (  -0.502000   0.000000   0.496000 )  
               a(2) = (   0.000000   0.502000   0.496000 )  
               a(3) = (  -0.502000   0.502000   0.000000 )  

     reciprocal axes: (cart. coord. in units 2 pi/alat)
               b(1) = ( -0.996016 -0.996016  1.008065 )  
               b(2) = (  0.996016  0.996016  1.008065 )  
               b(3) = ( -0.996016  0.996016 -1.008065 )  


     PseudoPot. # 1 for Pb read from file:
     ./Pb_LDA.UPF
     MD5 check sum: 062a37469794d955244864f8fe2e5624
     Pseudo is Ultrasoft + core correction, Zval = 14.0
     Generated by new atomic code, or converted to UPF format
     Using radial grid of  899 points,  6 beta functions with: 
                l(1) =   0
                l(2) =   0
                l(3) =   1
                l(4) =   1
                l(5) =   2
                l(6) =   2
     Q(r) pseudized with  6 coefficients,  rinner =    1.000   1.000   1.000
                                                       1.000   1.000

     PseudoPot. # 2 for Ti read from file:
     ./Ti_LDA.UPF
     MD5 check sum: 0d9f225c038fe889ca2a701dcc8d72cb
     Pseudo is Ultrasoft + core correction, Zval = 12.0
     Generated by new atomic code, or converted to UPF format
     Using radial grid of  851 points,  6 beta functions with: 
                l(1) =   0
                l(2) =   0
                l(3) =   1
                l(4) =   1
                l(5) =   2
                l(6) =   2
     Q(r) pseudized with  6 coefficients,  rinner =    1.000   1.000   1.000
                                                       1.000   1.000

     PseudoPot. # 3 for O  read from file:
     ./O_LDA.UPF
     MD5 check sum: 194b818514d2a7dbb603bb78519a4f40
     Pseudo is Ultrasoft + core correction, Zval =  6.0
     Generated by new atomic code, or converted to UPF format
     Using radial grid of  737 points,  5 beta functions with: 
                l(1) =   0
                l(2) =   0
                l(3) =   1
                l(4) =   1
                l(5) =   2
     Q(r) pseudized with  8 coefficients,  rinner =    0.900   0.900   0.900
                                                       0.900   0.900

     atomic species   valence    mass     pseudopotential
        Pb            14.00   207.20000     Pb( 1.00)
        Ti            12.00    47.88000     Ti( 1.00)
        O              6.00    16.00000     O ( 1.00)

      2 Sym. Ops. (no inversion) found



   Cartesian axes

     site n.     atom                  positions (alat units)
         1           Pb  tau(   1) = (  -0.5052241   0.5052241   0.0000000  )
         2           Ti  tau(   2) = (  -0.5222927   0.5222927   0.4960000  )
         3           O   tau(   3) = (  -0.3004873   0.3004873   0.4960000  )
         4           O   tau(   4) = (  -0.5576863   0.3066863   0.2480000  )
         5           O   tau(   5) = (  -0.3066863   0.5576863   0.2480000  )

     number of k points=   122

     Number of k-points >= 100: set verbosity='high' to print them.

     Dense  grid:    18257 G-vectors     FFT dimensions: (  40,  40,  40)

     Smooth grid:     4629 G-vectors     FFT dimensions: (  24,  24,  24)

     Estimated max dynamical RAM per process >      98.82 MB

     Initial potential from superposition of free atoms

     starting charge      42.9982, renormalised to      44.0000

     negative rho (up, down):  1.040E-02 0.000E+00
     Starting wfcs are   31 randomized atomic wfcs

     total cpu time spent up to now is        8.3 secs

     Self-consistent Calculation

     iteration #  1     ecut=    50.00 Ry     beta= 0.70
     CG style diagonalization
     ethr =  1.00E-02,  avg # of iterations =  3.0

     negative rho (up, down):  2.514E-02 0.000E+00

     total cpu time spent up to now is       22.5 secs

     total energy              =    -360.46409725 Ry
     estimated scf accuracy    <       4.88521644 Ry

     iteration #  2     ecut=    50.00 Ry     beta= 0.70
     CG style diagonalization
     ethr =  1.00E-02,  avg # of iterations =  4.4

     negative rho (up, down):  3.699E-02 0.000E+00

     total cpu time spent up to now is       40.1 secs

     total energy              =    -361.85553005 Ry
     estimated scf accuracy    <       1.96426585 Ry

     iteration #  3     ecut=    50.00 Ry     beta= 0.70
     CG style diagonalization
     ethr =  4.46E-03,  avg # of iterations =  4.0

     negative rho (up, down):  4.024E-02 0.000E+00

     total cpu time spent up to now is       56.4 secs

     total energy              =    -362.47616185 Ry
     estimated scf accuracy    <       0.09387292 Ry

     iteration #  4     ecut=    50.00 Ry     beta= 0.70
     CG style diagonalization
     c_bands:  1 eigenvalues not converged
     c_bands:  1 eigenvalues not converged
     c_bands:  1 eigenvalues not converged
     c_bands:  1 eigenvalues not converged
     c_bands:  1 eigenvalues not converged
     c_bands:  1 eigenvalues not converged
     ethr =  2.13E-04,  avg # of iterations =  4.7

     negative rho (up, down):  4.306E-02 0.000E+00

     total cpu time spent up to now is       75.4 secs

     total energy              =    -362.54713837 Ry
     estimated scf accuracy    <       0.02634242 Ry

     iteration #  5     ecut=    50.00 Ry     beta= 0.70
     CG style diagonalization
     c_bands:  1 eigenvalues not converged
     c_bands:  1 eigenvalues not converged
     ethr =  5.99E-05,  avg # of iterations =  4.7

     negative rho (up, down):  4.305E-02 0.000E+00

     total cpu time spent up to now is       94.4 secs

     total energy              =    -362.56208202 Ry
     estimated scf accuracy    <       0.00366945 Ry

     iteration #  6     ecut=    50.00 Ry     beta= 0.70
     CG style diagonalization
     c_bands:  1 eigenvalues not converged
     c_bands:  1 eigenvalues not converged
     ethr =  8.34E-06,  avg # of iterations =  5.8

     negative rho (up, down):  4.308E-02 0.000E+00

     total cpu time spent up to now is      117.7 secs

     total energy              =    -362.56576850 Ry
     estimated scf accuracy    <       0.00030434 Ry

     iteration #  7     ecut=    50.00 Ry     beta= 0.70
     CG style diagonalization
     c_bands:  1 eigenvalues not converged
     c_bands:  1 eigenvalues not converged
     c_bands:  1 eigenvalues not converged
     ethr =  6.92E-07,  avg # of iterations =  7.1

     negative rho (up, down):  4.294E-02 0.000E+00

     total cpu time spent up to now is      146.6 secs

     total energy              =    -362.56647329 Ry
     estimated scf accuracy    <       0.00005528 Ry

     iteration #  8     ecut=    50.00 Ry     beta= 0.70
     CG style diagonalization
     c_bands:  1 eigenvalues not converged
     ethr =  1.26E-07,  avg # of iterations =  6.0

     negative rho (up, down):  4.278E-02 0.000E+00

     total cpu time spent up to now is      170.7 secs

     total energy              =    -362.56653785 Ry
     estimated scf accuracy    <       0.00000238 Ry

     iteration #  9     ecut=    50.00 Ry     beta= 0.70
     CG style diagonalization
     c_bands:  1 eigenvalues not converged
     c_bands:  1 eigenvalues not converged
     c_bands:  1 eigenvalues not converged
     c_bands:  1 eigenvalues not converged
     ethr =  5.41E-09,  avg # of iterations =  9.3

     negative rho (up, down):  4.276E-02 0.000E+00

     total cpu time spent up to now is      208.7 secs

     total energy              =    -362.56675594 Ry
     estimated scf accuracy    <       0.00001034 Ry

     iteration # 10     ecut=    50.00 Ry     beta= 0.70
     CG style diagonalization
     c_bands:  1 eigenvalues not converged
     c_bands:  1 eigenvalues not converged
     ethr =  5.41E-09,  avg # of iterations =  3.4

     negative rho (up, down):  4.275E-02 0.000E+00

     total cpu time spent up to now is      222.2 secs

     total energy              =    -362.56677961 Ry
     estimated scf accuracy    <       0.00000722 Ry

     iteration # 11     ecut=    50.00 Ry     beta= 0.70
     CG style diagonalization
     c_bands:  1 eigenvalues not converged
     ethr =  5.41E-09,  avg # of iterations =  3.4

     negative rho (up, down):  4.270E-02 0.000E+00

     total cpu time spent up to now is      235.9 secs

     total energy              =    -362.56678105 Ry
     estimated scf accuracy    <       0.00000201 Ry

     iteration # 12     ecut=    50.00 Ry     beta= 0.70
     CG style diagonalization
     c_bands:  1 eigenvalues not converged
     ethr =  4.58E-09,  avg # of iterations =  4.0

     negative rho (up, down):  4.269E-02 0.000E+00

     total cpu time spent up to now is      252.0 secs

     total energy              =    -362.56678162 Ry
     estimated scf accuracy    <       0.00000015 Ry

     iteration # 13     ecut=    50.00 Ry     beta= 0.70
     CG style diagonalization
     c_bands:  1 eigenvalues not converged
     c_bands:  1 eigenvalues not converged
     c_bands:  1 eigenvalues not converged
     c_bands:  1 eigenvalues not converged
     ethr =  3.44E-10,  avg # of iterations =  6.6

     negative rho (up, down):  4.269E-02 0.000E+00

     total cpu time spent up to now is      278.5 secs

     total energy              =    -362.56678181 Ry
     estimated scf accuracy    <       0.00000002 Ry

     iteration # 14     ecut=    50.00 Ry     beta= 0.70
     CG style diagonalization
     c_bands:  1 eigenvalues not converged
     c_bands:  1 eigenvalues not converged
     c_bands:  1 eigenvalues not converged
     c_bands:  1 eigenvalues not converged
     ethr =  4.57E-11,  avg # of iterations =  6.3

     negative rho (up, down):  4.269E-02 0.000E+00

     total cpu time spent up to now is      303.7 secs

     End of self-consistent calculation

     Number of k-points >= 100: set verbosity='high' to print the bands.

     highest occupied level (ev):    65.0250

!    total energy              =    -362.56678183 Ry
     estimated scf accuracy    <          7.0E-09 Ry

     The total energy is the sum of the following terms:
     one-electron contribution =     140.16213178 Ry
     hartree contribution      =      35.38750892 Ry
     xc contribution           =    -115.48741536 Ry
     ewald contribution        =    -422.62900717 Ry

     convergence has been achieved in  14 iterations

     negative rho (up, down):  4.269E-02 0.000E+00

     Forces acting on atoms (cartesian axes, Ry/au):

     atom    1 type  1   force =    -0.47659605    0.47659605   -4.98269688
     atom    2 type  2   force =    -1.52652105    1.52652105    1.74440171
     atom    3 type  3   force =     0.65684374   -0.65684374   -0.13459483
     atom    4 type  3   force =    -0.96945378   -2.31572713    1.68644500
     atom    5 type  3   force =     2.31572713    0.96945378    1.68644500

     Total force =     7.222125     Total SCF correction =     0.000259


     Computing stress (Cartesian axis) and pressure


     negative rho (up, down):  4.269E-02 0.000E+00
          total   stress  (Ry/bohr**3)                   (kbar)     P=    51604.37
   0.34371217   0.05375641   0.03912349        50561.81     7907.84     5755.26
   0.05375641   0.34371217  -0.03912349         7907.84    50561.81    -5755.26
   0.03912349  -0.03912349   0.36497370         5755.26    -5755.26    53689.48


     BFGS Geometry Optimization
     Energy error            =      0.0E+00 Ry
     Gradient error          =      5.0E+00 Ry/Bohr

     number of scf cycles    =   1
     number of bfgs steps    =   0

     energy             new  =    -362.5667818343 Ry

     new trust radius        =       0.5000000000 bohr
     new conv_thr            =       0.0000000100 Ry


ATOMIC_POSITIONS (crystal)
Pb           -0.0686103323       -0.0686103323        1.0880011521
Ti            0.5240199201        0.5240199201        0.5579408420
O             0.4981466671        0.4981466671        0.0825607317
O             0.5679172187       -0.0214734736        0.5693907811
O            -0.0214734736        0.5679172187        0.5693907811



     Writing config-only to output data dir ./PTO.save/
     NEW-OLD atomic charge density approx. for the potential

     negative rho (up, down):  1.162E-02 0.000E+00

     total cpu time spent up to now is      310.6 secs

     Self-consistent Calculation

     iteration #  1     ecut=    50.00 Ry     beta= 0.70
     CG style diagonalization
     c_bands:  1 eigenvalues not converged
     c_bands:  3 eigenvalues not converged
     c_bands:  1 eigenvalues not converged
     c_bands:  1 eigenvalues not converged
     c_bands:  1 eigenvalues not converged
     c_bands:  1 eigenvalues not converged
     c_bands:  1 eigenvalues not converged
     c_bands:  1 eigenvalues not converged
     c_bands:  1 eigenvalues not converged
     c_bands:  1 eigenvalues not converged
     c_bands:  1 eigenvalues not converged
     c_bands:  1 eigenvalues not converged
     c_bands:  1 eigenvalues not converged
     ethr =  1.00E-06,  avg # of iterations = 28.0

     negative rho (up, down):  3.037E-02 0.000E+00

     total cpu time spent up to now is      420.8 secs

     total energy              =    -361.86791721 Ry
     estimated scf accuracy    <       0.60726022 Ry

     iteration #  2     ecut=    50.00 Ry     beta= 0.70
     CG style diagonalization
     ethr =  1.38E-03,  avg # of iterations =  4.0

     negative rho (up, down):  3.439E-02 0.000E+00

     total cpu time spent up to now is      436.7 secs

     total energy              =    -361.97286439 Ry
     estimated scf accuracy    <       0.10030268 Ry

     iteration #  3     ecut=    50.00 Ry     beta= 0.70
     CG style diagonalization
     ethr =  2.28E-04,  avg # of iterations =  4.1

     negative rho (up, down):  3.847E-02 0.000E+00

     total cpu time spent up to now is      453.1 secs

     total energy              =    -362.02498101 Ry
     estimated scf accuracy    <       0.01046721 Ry

     iteration #  4     ecut=    50.00 Ry     beta= 0.70
     CG style diagonalization
     c_bands:  1 eigenvalues not converged
     ethr =  2.38E-05,  avg # of iterations =  5.7

     negative rho (up, down):  4.019E-02 0.000E+00

     total cpu time spent up to now is      476.1 secs

     total energy              =    -362.03420147 Ry
     estimated scf accuracy    <       0.00262893 Ry

     iteration #  5     ecut=    50.00 Ry     beta= 0.70
     CG style diagonalization
     ethr =  5.97E-06,  avg # of iterations =  4.7

     negative rho (up, down):  4.141E-02 0.000E+00

     total cpu time spent up to now is      494.9 secs

     total energy              =    -362.03527337 Ry
     estimated scf accuracy    <       0.00088444 Ry

     iteration #  6     ecut=    50.00 Ry     beta= 0.70
     CG style diagonalization
     ethr =  2.01E-06,  avg # of iterations =  4.5

     negative rho (up, down):  4.222E-02 0.000E+00

     total cpu time spent up to now is      513.0 secs

     total energy              =    -362.03560236 Ry
     estimated scf accuracy    <       0.00010621 Ry

     iteration #  7     ecut=    50.00 Ry     beta= 0.70
     CG style diagonalization
     ethr =  2.41E-07,  avg # of iterations =  6.6

     negative rho (up, down):  4.240E-02 0.000E+00

     total cpu time spent up to now is      539.4 secs

     total energy              =    -362.03573138 Ry
     estimated scf accuracy    <       0.00002755 Ry

     iteration #  8     ecut=    50.00 Ry     beta= 0.70
     CG style diagonalization
     ethr =  6.26E-08,  avg # of iterations =  5.2

     negative rho (up, down):  4.267E-02 0.000E+00

     total cpu time spent up to now is      559.9 secs

     total energy              =    -362.03574800 Ry
     estimated scf accuracy    <       0.00000256 Ry

     iteration #  9     ecut=    50.00 Ry     beta= 0.70
     CG style diagonalization
     c_bands:  1 eigenvalues not converged
     c_bands:  1 eigenvalues not converged
     c_bands:  1 eigenvalues not converged
     ethr =  5.82E-09,  avg # of iterations =  6.6

     negative rho (up, down):  4.267E-02 0.000E+00

     total cpu time spent up to now is      586.6 secs

     total energy              =    -362.03737327 Ry
     estimated scf accuracy    <       0.00004538 Ry

     iteration # 10     ecut=    50.00 Ry     beta= 0.70
     CG style diagonalization
     c_bands:  1 eigenvalues not converged
     c_bands:  1 eigenvalues not converged
     ethr =  5.82E-09,  avg # of iterations =  3.2

     negative rho (up, down):  4.267E-02 0.000E+00

     total cpu time spent up to now is      599.3 secs

     total energy              =    -362.03742305 Ry
     estimated scf accuracy    <       0.00004236 Ry

     iteration # 11     ecut=    50.00 Ry     beta= 0.70
     CG style diagonalization
     ethr =  5.82E-09,  avg # of iterations =  3.0

     negative rho (up, down):  4.265E-02 0.000E+00

     total cpu time spent up to now is      611.2 secs

     total energy              =    -362.03741137 Ry
     estimated scf accuracy    <       0.00004291 Ry

     iteration # 12     ecut=    50.00 Ry     beta= 0.70
     CG style diagonalization
     c_bands:  1 eigenvalues not converged
     c_bands:  1 eigenvalues not converged
     c_bands:  1 eigenvalues not converged
     ethr =  5.82E-09,  avg # of iterations =  4.5

     negative rho (up, down):  4.265E-02 0.000E+00

     total cpu time spent up to now is      629.2 secs

     total energy              =    -362.04355779 Ry
     estimated scf accuracy    <       0.00051754 Ry

     iteration # 13     ecut=    50.00 Ry     beta= 0.70
     CG style diagonalization
     c_bands:  1 eigenvalues not converged
     c_bands:  1 eigenvalues not converged
     c_bands:  1 eigenvalues not converged
     ethr =  5.82E-09,  avg # of iterations =  3.0

     negative rho (up, down):  4.264E-02 0.000E+00

     total cpu time spent up to now is      641.1 secs

     total energy              =    -362.04358199 Ry
     estimated scf accuracy    <       0.00052913 Ry

     iteration # 14     ecut=    50.00 Ry     beta= 0.70
     CG style diagonalization
     ethr =  5.82E-09,  avg # of iterations =  3.0

     negative rho (up, down):  4.264E-02 0.000E+00

     total cpu time spent up to now is      653.1 secs

     total energy              =    -362.04356983 Ry
     estimated scf accuracy    <       0.00050414 Ry

     iteration # 15     ecut=    50.00 Ry     beta= 0.70
     CG style diagonalization
     ethr =  5.82E-09,  avg # of iterations =  3.2

     negative rho (up, down):  4.264E-02 0.000E+00

     total cpu time spent up to now is      666.7 secs

     total energy              =    -362.04357702 Ry
     estimated scf accuracy    <       0.00046545 Ry

     iteration # 16     ecut=    50.00 Ry     beta= 0.70
     CG style diagonalization
     ethr =  5.82E-09,  avg # of iterations =  3.3

     negative rho (up, down):  4.271E-02 0.000E+00

     total cpu time spent up to now is      679.7 secs

     total energy              =    -362.04351670 Ry
     estimated scf accuracy    <       0.00048841 Ry

     iteration # 17     ecut=    50.00 Ry     beta= 0.70
     CG style diagonalization
     c_bands:  1 eigenvalues not converged
     ethr =  5.82E-09,  avg # of iterations =  4.9

     negative rho (up, down):  4.271E-02 0.000E+00

     total cpu time spent up to now is      699.1 secs

     total energy              =    -362.04352516 Ry
     estimated scf accuracy    <       0.00033445 Ry

     iteration # 18     ecut=    50.00 Ry     beta= 0.70
     CG style diagonalization
     ethr =  5.82E-09,  avg # of iterations =  3.3

     negative rho (up, down):  4.273E-02 0.000E+00

     total cpu time spent up to now is      712.1 secs

     total energy              =    -362.04351225 Ry
     estimated scf accuracy    <       0.00034628 Ry

     iteration # 19     ecut=    50.00 Ry     beta= 0.70
     CG style diagonalization
     ethr =  5.82E-09,  avg # of iterations =  3.9

     negative rho (up, down):  4.272E-02 0.000E+00

     total cpu time spent up to now is      727.7 secs

     total energy              =    -362.04351277 Ry
     estimated scf accuracy    <       0.00030197 Ry

     iteration # 20     ecut=    50.00 Ry     beta= 0.70
     CG style diagonalization
     ethr =  5.82E-09,  avg # of iterations =  3.0

     negative rho (up, down):  4.278E-02 0.000E+00

     total cpu time spent up to now is      739.6 secs

     total energy              =    -362.04336296 Ry
     estimated scf accuracy    <       0.00030369 Ry

     iteration # 21     ecut=    50.00 Ry     beta= 0.70
     CG style diagonalization
     c_bands:  1 eigenvalues not converged
     c_bands:  1 eigenvalues not converged
     c_bands:  1 eigenvalues not converged
     c_bands:  1 eigenvalues not converged
     c_bands:  1 eigenvalues not converged
     c_bands:  1 eigenvalues not converged
     c_bands:  1 eigenvalues not converged
     c_bands:  1 eigenvalues not converged
     ethr =  5.82E-09,  avg # of iterations =  7.2

     negative rho (up, down):  4.276E-02 0.000E+00

     total cpu time spent up to now is      768.4 secs

     total energy              =    -362.04340919 Ry
     estimated scf accuracy    <       0.00000268 Ry

     iteration # 22     ecut=    50.00 Ry     beta= 0.70
     CG style diagonalization
     ethr =  5.82E-09,  avg # of iterations =  4.0

     negative rho (up, down):  4.276E-02 0.000E+00

     total cpu time spent up to now is      784.3 secs

     total energy              =    -362.04340883 Ry
     estimated scf accuracy    <       0.00000226 Ry

     iteration # 23     ecut=    50.00 Ry     beta= 0.70
     CG style diagonalization
     ethr =  5.14E-09,  avg # of iterations =  3.5

     negative rho (up, down):  4.276E-02 0.000E+00

     total cpu time spent up to now is      798.1 secs

     total energy              =    -362.04340901 Ry
     estimated scf accuracy    <       0.00000021 Ry

     iteration # 24     ecut=    50.00 Ry     beta= 0.70
     CG style diagonalization
     c_bands:  1 eigenvalues not converged
     c_bands:  1 eigenvalues not converged
     ethr =  4.67E-10,  avg # of iterations =  5.0

     negative rho (up, down):  4.276E-02 0.000E+00

     total cpu time spent up to now is      817.9 secs

     total energy              =    -362.04354907 Ry
     estimated scf accuracy    <       0.00000436 Ry

     iteration # 25     ecut=    50.00 Ry     beta= 0.70
     CG style diagonalization
     c_bands:  1 eigenvalues not converged
     ethr =  4.67E-10,  avg # of iterations =  3.1

     negative rho (up, down):  4.275E-02 0.000E+00

     total cpu time spent up to now is      830.3 secs

     total energy              =    -362.04355361 Ry
     estimated scf accuracy    <       0.00000419 Ry

     iteration # 26     ecut=    50.00 Ry     beta= 0.70
     CG style diagonalization
     c_bands:  1 eigenvalues not converged
     ethr =  4.67E-10,  avg # of iterations =  3.0

     negative rho (up, down):  4.275E-02 0.000E+00

     total cpu time spent up to now is      842.2 secs

     total energy              =    -362.04355351 Ry
     estimated scf accuracy    <       0.00000460 Ry

     iteration # 27     ecut=    50.00 Ry     beta= 0.70
     CG style diagonalization
     c_bands:  1 eigenvalues not converged
     ethr =  4.67E-10,  avg # of iterations =  3.0

     negative rho (up, down):  4.275E-02 0.000E+00

     total cpu time spent up to now is      854.0 secs

     total energy              =    -362.04355272 Ry
     estimated scf accuracy    <       0.00000426 Ry

     iteration # 28     ecut=    50.00 Ry     beta= 0.70
     CG style diagonalization
     ethr =  4.67E-10,  avg # of iterations =  4.2

     negative rho (up, down):  4.275E-02 0.000E+00

     total cpu time spent up to now is      870.7 secs

     total energy              =    -362.04355234 Ry
     estimated scf accuracy    <       0.00000211 Ry

     iteration # 29     ecut=    50.00 Ry     beta= 0.70
     CG style diagonalization
     ethr =  4.67E-10,  avg # of iterations =  3.5

     negative rho (up, down):  4.275E-02 0.000E+00

     total cpu time spent up to now is      884.5 secs

     total energy              =    -362.04355211 Ry
     estimated scf accuracy    <       0.00000108 Ry

     iteration # 30     ecut=    50.00 Ry     beta= 0.70
     CG style diagonalization
     ethr =  4.67E-10,  avg # of iterations =  3.2

     negative rho (up, down):  4.275E-02 0.000E+00

     total cpu time spent up to now is      897.2 secs

     total energy              =    -362.04355196 Ry
     estimated scf accuracy    <       0.00000051 Ry

     iteration # 31     ecut=    50.00 Ry     beta= 0.70
     CG style diagonalization
     ethr =  4.67E-10,  avg # of iterations =  3.6

     negative rho (up, down):  4.275E-02 0.000E+00

     total cpu time spent up to now is      911.6 secs

     total energy              =    -362.04355194 Ry
     estimated scf accuracy    <       0.00000010 Ry

     iteration # 32     ecut=    50.00 Ry     beta= 0.70
     CG style diagonalization
     ethr =  2.20E-10,  avg # of iterations =  4.2

     negative rho (up, down):  4.275E-02 0.000E+00

     total cpu time spent up to now is      928.3 secs

     total energy              =    -362.04355196 Ry
     estimated scf accuracy    <       0.00000001 Ry

     iteration # 33     ecut=    50.00 Ry     beta= 0.70
     CG style diagonalization
     ethr =  3.20E-11,  avg # of iterations =  4.5

     negative rho (up, down):  4.275E-02 0.000E+00

     total cpu time spent up to now is      946.3 secs

     End of self-consistent calculation

     Number of k-points >= 100: set verbosity='high' to print the bands.

     highest occupied level (ev):    64.5821

!    total energy              =    -362.04355197 Ry
     estimated scf accuracy    <          8.6E-10 Ry

     The total energy is the sum of the following terms:
     one-electron contribution =     135.62595772 Ry
     hartree contribution      =      37.18428264 Ry
     xc contribution           =    -115.69069831 Ry
     ewald contribution        =    -419.16309401 Ry

     convergence has been achieved in  33 iterations

     negative rho (up, down):  4.275E-02 0.000E+00

     Forces acting on atoms (cartesian axes, Ry/au):

     atom    1 type  1   force =     4.82104802   -4.82104802    4.72302024
     atom    2 type  2   force =     0.57970132   -0.57970132   -2.65769924
     atom    3 type  3   force =    -0.34664305    0.34664305    0.26263720
     atom    4 type  3   force =    -0.47320753    4.58089877   -1.16397910
     atom    5 type  3   force =    -4.58089877    0.47320753   -1.16397910

     Total force =    11.043709     Total SCF correction =     0.000192


     Computing stress (Cartesian axis) and pressure


     negative rho (up, down):  4.275E-02 0.000E+00
          total   stress  (Ry/bohr**3)                   (kbar)     P=    52679.29
   0.36059011   0.00109281   0.05770162        53044.64      160.76     8488.20
   0.00109281   0.36059011  -0.05770162          160.76    53044.64    -8488.20
   0.05770162  -0.05770162   0.35313933         8488.20    -8488.20    51948.59

     Energy error            =      5.2E-01 Ry
     Gradient error          =      4.8E+00 Ry/Bohr

     number of scf cycles    =   2
     number of bfgs steps    =   1

     energy             old  =    -362.5667818343 Ry
     energy             new  =    -362.0435519664 Ry

     CASE: energy            _new > energy            _old

     new trust radius        =       0.2270915645 bohr
     new conv_thr            =       0.0000000100 Ry


ATOMIC_POSITIONS (crystal)
Pb           -0.0311616554       -0.0311616554        1.0434741518
Ti            0.5109094425        0.5109094425        0.5483796887
O             0.4991582475        0.4991582475        0.0913044829
O             0.5308468549       -0.0097528894        0.5920629823
O            -0.0097528894        0.5308468549        0.5920629823



     Writing config-only to output data dir ./PTO.save/
     NEW-OLD atomic charge density approx. for the potential

     negative rho (up, down):  3.327E-02 0.000E+00

     total cpu time spent up to now is      952.9 secs

     Self-consistent Calculation

     iteration #  1     ecut=    50.00 Ry     beta= 0.70
     CG style diagonalization
     c_bands:  1 eigenvalues not converged
     c_bands:  1 eigenvalues not converged
     c_bands:  1 eigenvalues not converged
     c_bands:  5 eigenvalues not converged
     c_bands:  1 eigenvalues not converged
     c_bands:  1 eigenvalues not converged
     c_bands:  1 eigenvalues not converged
     c_bands:  1 eigenvalues not converged
     ethr =  1.00E-06,  avg # of iterations = 24.6

     negative rho (up, down):  3.868E-02 0.000E+00

     total cpu time spent up to now is     1049.9 secs

     total energy              =    -363.64164090 Ry
     estimated scf accuracy    <       0.18953111 Ry

     iteration #  2     ecut=    50.00 Ry     beta= 0.70
     CG style diagonalization
     ethr =  4.31E-04,  avg # of iterations =  3.9

     negative rho (up, down):  4.119E-02 0.000E+00

     total cpu time spent up to now is     1065.4 secs

     total energy              =    -363.67066663 Ry
     estimated scf accuracy    <       0.02800469 Ry

     iteration #  3     ecut=    50.00 Ry     beta= 0.70
     CG style diagonalization
     ethr =  6.36E-05,  avg # of iterations =  4.4

     negative rho (up, down):  4.246E-02 0.000E+00

     total cpu time spent up to now is     1082.8 secs

     total energy              =    -363.68628678 Ry
     estimated scf accuracy    <       0.00501848 Ry

     iteration #  4     ecut=    50.00 Ry     beta= 0.70
     CG style diagonalization
     c_bands:  1 eigenvalues not converged
     ethr =  1.14E-05,  avg # of iterations =  5.0

     negative rho (up, down):  4.289E-02 0.000E+00

     total cpu time spent up to now is     1103.0 secs

     total energy              =    -363.68885395 Ry
     estimated scf accuracy    <       0.00223993 Ry

     iteration #  5     ecut=    50.00 Ry     beta= 0.70
     CG style diagonalization
     ethr =  5.09E-06,  avg # of iterations =  4.3

     negative rho (up, down):  4.319E-02 0.000E+00

     total cpu time spent up to now is     1120.1 secs

     total energy              =    -363.68962315 Ry
     estimated scf accuracy    <       0.00028224 Ry

     iteration #  6     ecut=    50.00 Ry     beta= 0.70
     CG style diagonalization
     c_bands:  1 eigenvalues not converged
     ethr =  6.41E-07,  avg # of iterations =  5.1

     negative rho (up, down):  4.325E-02 0.000E+00

     total cpu time spent up to now is     1140.3 secs

     total energy              =    -363.68981659 Ry
     estimated scf accuracy    <       0.00001299 Ry

     iteration #  7     ecut=    50.00 Ry     beta= 0.70
     CG style diagonalization
     c_bands:  1 eigenvalues not converged
     c_bands:  1 eigenvalues not converged
     c_bands:  1 eigenvalues not converged
     c_bands:  1 eigenvalues not converged
     ethr =  2.95E-08,  avg # of iterations =  8.0

     negative rho (up, down):  4.322E-02 0.000E+00

     total cpu time spent up to now is     1172.4 secs

     total energy              =    -363.69129485 Ry
     estimated scf accuracy    <       0.00003778 Ry

     iteration #  8     ecut=    50.00 Ry     beta= 0.70
     CG style diagonalization
     c_bands:  1 eigenvalues not converged
     c_bands:  1 eigenvalues not converged
     ethr =  2.95E-08,  avg # of iterations =  3.7

     negative rho (up, down):  4.327E-02 0.000E+00

     total cpu time spent up to now is     1187.1 secs

     total energy              =    -363.69158355 Ry
     estimated scf accuracy    <       0.00001251 Ry

     iteration #  9     ecut=    50.00 Ry     beta= 0.70
     CG style diagonalization
     c_bands:  1 eigenvalues not converged
     c_bands:  1 eigenvalues not converged
     ethr =  2.84E-08,  avg # of iterations =  3.2

     negative rho (up, down):  4.329E-02 0.000E+00

     total cpu time spent up to now is     1199.8 secs

     total energy              =    -363.69158387 Ry
     estimated scf accuracy    <       0.00000245 Ry

     iteration # 10     ecut=    50.00 Ry     beta= 0.70
     CG style diagonalization
     c_bands:  1 eigenvalues not converged
     c_bands:  1 eigenvalues not converged
     ethr =  5.56E-09,  avg # of iterations =  4.9

     negative rho (up, down):  4.327E-02 0.000E+00

     total cpu time spent up to now is     1219.7 secs

     total energy              =    -363.69158527 Ry
     estimated scf accuracy    <       0.00000036 Ry

     iteration # 11     ecut=    50.00 Ry     beta= 0.70
     CG style diagonalization
     c_bands:  1 eigenvalues not converged
     ethr =  8.19E-10,  avg # of iterations =  7.2

     negative rho (up, down):  4.325E-02 0.000E+00

     total cpu time spent up to now is     1248.5 secs

     total energy              =    -363.69158596 Ry
     estimated scf accuracy    <       0.00000021 Ry

     iteration # 12     ecut=    50.00 Ry     beta= 0.70
     CG style diagonalization
     ethr =  4.81E-10,  avg # of iterations =  3.7

     negative rho (up, down):  4.323E-02 0.000E+00

     total cpu time spent up to now is     1263.4 secs

     total energy              =    -363.69158596 Ry
     estimated scf accuracy    <       0.00000008 Ry

     iteration # 13     ecut=    50.00 Ry     beta= 0.70
     CG style diagonalization
     c_bands:  1 eigenvalues not converged
     ethr =  1.90E-10,  avg # of iterations =  4.3

     negative rho (up, down):  4.323E-02 0.000E+00

     total cpu time spent up to now is     1280.4 secs

     total energy              =    -363.69211950 Ry
     estimated scf accuracy    <       0.00003613 Ry

     iteration # 14     ecut=    50.00 Ry     beta= 0.70
     CG style diagonalization
     c_bands:  1 eigenvalues not converged
     ethr =  1.90E-10,  avg # of iterations =  3.3

     negative rho (up, down):  4.324E-02 0.000E+00

     total cpu time spent up to now is     1293.4 secs

     total energy              =    -363.69220792 Ry
     estimated scf accuracy    <       0.00004049 Ry

     iteration # 15     ecut=    50.00 Ry     beta= 0.70
     CG style diagonalization
     c_bands:  1 eigenvalues not converged
     ethr =  1.90E-10,  avg # of iterations =  3.0

     negative rho (up, down):  4.324E-02 0.000E+00

     total cpu time spent up to now is     1305.3 secs

     total energy              =    -363.69220771 Ry
     estimated scf accuracy    <       0.00004013 Ry

     iteration # 16     ecut=    50.00 Ry     beta= 0.70
     CG style diagonalization
     ethr =  1.90E-10,  avg # of iterations =  3.1

     negative rho (up, down):  4.322E-02 0.000E+00

     total cpu time spent up to now is     1317.5 secs

     total energy              =    -363.69220984 Ry
     estimated scf accuracy    <       0.00003889 Ry

     iteration # 17     ecut=    50.00 Ry     beta= 0.70
     CG style diagonalization
     c_bands:  1 eigenvalues not converged
     c_bands:  1 eigenvalues not converged
     ethr =  1.90E-10,  avg # of iterations =  4.5

     negative rho (up, down):  4.323E-02 0.000E+00

     total cpu time spent up to now is     1335.6 secs

     total energy              =    -363.69220932 Ry
     estimated scf accuracy    <       0.00004665 Ry

     iteration # 18     ecut=    50.00 Ry     beta= 0.70
     CG style diagonalization
     ethr =  1.90E-10,  avg # of iterations =  3.1

     negative rho (up, down):  4.321E-02 0.000E+00

     total cpu time spent up to now is     1347.7 secs

     total energy              =    -363.69221048 Ry
     estimated scf accuracy    <       0.00004496 Ry

     iteration # 19     ecut=    50.00 Ry     beta= 0.70
     CG style diagonalization
     ethr =  1.90E-10,  avg # of iterations =  3.5

     negative rho (up, down):  4.320E-02 0.000E+00

     total cpu time spent up to now is     1361.4 secs

     total energy              =    -363.69221304 Ry
     estimated scf accuracy    <       0.00004870 Ry

     iteration # 20     ecut=    50.00 Ry     beta= 0.70
     CG style diagonalization
     c_bands:  1 eigenvalues not converged
     c_bands:  1 eigenvalues not converged
     c_bands:  1 eigenvalues not converged
     c_bands:  1 eigenvalues not converged
     c_bands:  1 eigenvalues not converged
     ethr =  1.90E-10,  avg # of iterations =  4.7

     negative rho (up, down):  4.324E-02 0.000E+00

     total cpu time spent up to now is     1380.1 secs

     total energy              =    -363.69220643 Ry
     estimated scf accuracy    <       0.00005885 Ry

     iteration # 21     ecut=    50.00 Ry     beta= 0.70
     CG style diagonalization
     c_bands:  1 eigenvalues not converged
     c_bands:  1 eigenvalues not converged
     c_bands:  1 eigenvalues not converged
     c_bands:  1 eigenvalues not converged
     c_bands:  1 eigenvalues not converged
     c_bands:  1 eigenvalues not converged
     c_bands:  1 eigenvalues not converged
     c_bands:  1 eigenvalues not converged
     c_bands:  1 eigenvalues not converged
     c_bands:  1 eigenvalues not converged
     c_bands:  1 eigenvalues not converged
     c_bands:  1 eigenvalues not converged
     ethr =  1.90E-10,  avg # of iterations =  6.1

     negative rho (up, down):  4.336E-02 0.000E+00

     total cpu time spent up to now is     1404.6 secs

     total energy              =    -363.69218806 Ry
     estimated scf accuracy    <       0.00003600 Ry

     iteration # 22     ecut=    50.00 Ry     beta= 0.70
     CG style diagonalization
     c_bands:  1 eigenvalues not converged
     c_bands:  1 eigenvalues not converged
     c_bands:  1 eigenvalues not converged
     c_bands:  1 eigenvalues not converged
     c_bands:  1 eigenvalues not converged
     c_bands:  2 eigenvalues not converged
     c_bands:  1 eigenvalues not converged
     c_bands:  1 eigenvalues not converged
     c_bands:  1 eigenvalues not converged
     c_bands:  1 eigenvalues not converged
     c_bands:  1 eigenvalues not converged
     c_bands:  1 eigenvalues not converged
     c_bands:  1 eigenvalues not converged
     c_bands:  1 eigenvalues not converged
     c_bands:  1 eigenvalues not converged
     c_bands:  1 eigenvalues not converged
     c_bands:  1 eigenvalues not converged
     c_bands:  1 eigenvalues not converged
     c_bands:  2 eigenvalues not converged
     c_bands:  1 eigenvalues not converged
     c_bands:  1 eigenvalues not converged
     c_bands:  1 eigenvalues not converged
     c_bands:  1 eigenvalues not converged
     c_bands:  1 eigenvalues not converged
     c_bands:  1 eigenvalues not converged
     c_bands:  1 eigenvalues not converged
     c_bands:  1 eigenvalues not converged
     c_bands:  1 eigenvalues not converged
     c_bands:  1 eigenvalues not converged
     c_bands:  1 eigenvalues not converged
     c_bands:  1 eigenvalues not converged
     c_bands:  1 eigenvalues not converged
     c_bands:  1 eigenvalues not converged
     c_bands:  1 eigenvalues not converged
     c_bands:  1 eigenvalues not converged
     c_bands:  1 eigenvalues not converged
     c_bands:  1 eigenvalues not converged
     c_bands:  1 eigenvalues not converged
     c_bands:  1 eigenvalues not converged
     c_bands:  1 eigenvalues not converged
     c_bands:  1 eigenvalues not converged
     c_bands:  1 eigenvalues not converged
     c_bands:  1 eigenvalues not converged
     c_bands:  1 eigenvalues not converged
     c_bands:  1 eigenvalues not converged
     c_bands:  1 eigenvalues not converged
     c_bands:  1 eigenvalues not converged
     c_bands:  1 eigenvalues not converged
     ethr =  1.90E-10,  avg # of iterations =  9.1

     negative rho (up, down):  4.323E-02 0.000E+00

     total cpu time spent up to now is     1441.7 secs

     total energy              =    -363.69219646 Ry
     estimated scf accuracy    <       0.00000514 Ry

     iteration # 23     ecut=    50.00 Ry     beta= 0.70
     CG style diagonalization
     c_bands:  1 eigenvalues not converged
     c_bands:  1 eigenvalues not converged
     c_bands:  1 eigenvalues not converged
     c_bands:  1 eigenvalues not converged
     c_bands:  1 eigenvalues not converged
     c_bands:  1 eigenvalues not converged
     c_bands:  1 eigenvalues not converged
     c_bands:  1 eigenvalues not converged
     c_bands:  1 eigenvalues not converged
     c_bands:  1 eigenvalues not converged
     c_bands:  1 eigenvalues not converged
     c_bands:  1 eigenvalues not converged
     c_bands:  1 eigenvalues not converged
     c_bands:  1 eigenvalues not converged
     c_bands:  1 eigenvalues not converged
     ethr =  1.90E-10,  avg # of iterations =  6.8

     negative rho (up, down):  4.322E-02 0.000E+00

     total cpu time spent up to now is     1469.0 secs

     total energy              =    -363.69219746 Ry
     estimated scf accuracy    <       0.00000008 Ry

     iteration # 24     ecut=    50.00 Ry     beta= 0.70
     CG style diagonalization
     ethr =  1.73E-10,  avg # of iterations =  3.1

     negative rho (up, down):  4.322E-02 0.000E+00

     total cpu time spent up to now is     1481.3 secs

     total energy              =    -363.69219745 Ry
     estimated scf accuracy    <       0.00000004 Ry

     iteration # 25     ecut=    50.00 Ry     beta= 0.70
     CG style diagonalization
     ethr =  9.09E-11,  avg # of iterations =  3.6

     negative rho (up, down):  4.322E-02 0.000E+00

     total cpu time spent up to now is     1495.6 secs

     End of self-consistent calculation

     Number of k-points >= 100: set verbosity='high' to print the bands.

     highest occupied level (ev):    64.6525

!    total energy              =    -363.69219746 Ry
     estimated scf accuracy    <          1.3E-09 Ry

     The total energy is the sum of the following terms:
     one-electron contribution =     144.89510106 Ry
     hartree contribution      =      33.27061394 Ry
     xc contribution           =    -115.19492129 Ry
     ewald contribution        =    -426.66299117 Ry

     convergence has been achieved in  25 iterations

     negative rho (up, down):  4.322E-02 0.000E+00

     Forces acting on atoms (cartesian axes, Ry/au):

     atom    1 type  1   force =     1.57906583   -1.57906583   -0.30710577
     atom    2 type  2   force =    -0.44893895    0.44893895    0.04721982
     atom    3 type  3   force =     0.15195201   -0.15195201    0.05192385
     atom    4 type  3   force =    -0.36875527    0.91332361    0.10398104
     atom    5 type  3   force =    -0.91332361    0.36875527    0.10398104

     Total force =     2.738122     Total SCF correction =     0.000087


     Computing stress (Cartesian axis) and pressure


     negative rho (up, down):  4.322E-02 0.000E+00
          total   stress  (Ry/bohr**3)                   (kbar)     P=    49926.56
   0.33911191   0.03141539   0.04011500        49885.08     4621.36     5901.12
   0.03141539   0.33911191  -0.04011500         4621.36    49885.08    -5901.12
   0.04011500  -0.04011500   0.33995779         5901.12    -5901.12    50009.52

     Energy error            =      1.1E+00 Ry
     Gradient error          =      1.6E+00 Ry/Bohr

     number of scf cycles    =   3
     number of bfgs steps    =   1

     energy             old  =    -362.5667818343 Ry
     energy             new  =    -363.6921974588 Ry

     CASE: energy            _new < energy            _old

     new trust radius        =       0.6812746934 bohr
     new conv_thr            =       0.0000000100 Ry


ATOMIC_POSITIONS (crystal)
Pb           -0.0756899015       -0.0756899015        0.9717936278
Ti            0.5241342577        0.5241342577        0.5896072174
O             0.5003166177        0.5003166177        0.0699098114
O             0.5459853357        0.0052536906        0.6179868157
O             0.0052536906        0.5459853357        0.6179868157



     Writing config-only to output data dir ./PTO.save/
     NEW-OLD atomic charge density approx. for the potential

     negative rho (up, down):  9.401E-03 0.000E+00

     total cpu time spent up to now is     1502.4 secs

     Self-consistent Calculation

     iteration #  1     ecut=    50.00 Ry     beta= 0.70
     CG style diagonalization
     c_bands:  1 eigenvalues not converged
     c_bands:  1 eigenvalues not converged
     c_bands:  1 eigenvalues not converged
     c_bands:  1 eigenvalues not converged
     c_bands:  1 eigenvalues not converged
     c_bands:  1 eigenvalues not converged
     c_bands:  1 eigenvalues not converged
     c_bands:  2 eigenvalues not converged
     c_bands:  2 eigenvalues not converged
     c_bands:  2 eigenvalues not converged
     c_bands:  1 eigenvalues not converged
     c_bands:  1 eigenvalues not converged
     ethr =  1.00E-06,  avg # of iterations = 27.0

     negative rho (up, down):  2.832E-02 0.000E+00

     total cpu time spent up to now is     1608.8 secs

     total energy              =    -364.58178921 Ry
     estimated scf accuracy    <       0.45984003 Ry

     iteration #  2     ecut=    50.00 Ry     beta= 0.70
     CG style diagonalization
     ethr =  1.05E-03,  avg # of iterations =  4.4

     negative rho (up, down):  3.064E-02 0.000E+00

     total cpu time spent up to now is     1626.7 secs

     total energy              =    -364.60574556 Ry
     estimated scf accuracy    <       0.51153910 Ry

     iteration #  3     ecut=    50.00 Ry     beta= 0.70
     CG style diagonalization
     ethr =  1.05E-03,  avg # of iterations =  4.0

     negative rho (up, down):  3.427E-02 0.000E+00

     total cpu time spent up to now is     1643.2 secs

     total energy              =    -364.73256753 Ry
     estimated scf accuracy    <       0.03074243 Ry

     iteration #  4     ecut=    50.00 Ry     beta= 0.70
     CG style diagonalization
     ethr =  6.99E-05,  avg # of iterations =  4.1

     negative rho (up, down):  3.606E-02 0.000E+00

     total cpu time spent up to now is     1659.3 secs

     total energy              =    -364.74506790 Ry
     estimated scf accuracy    <       0.00116020 Ry

     iteration #  5     ecut=    50.00 Ry     beta= 0.70
     CG style diagonalization
     ethr =  2.64E-06,  avg # of iterations =  6.2

     negative rho (up, down):  3.662E-02 0.000E+00

     total cpu time spent up to now is     1684.1 secs

     total energy              =    -364.74653115 Ry
     estimated scf accuracy    <       0.00033312 Ry

     iteration #  6     ecut=    50.00 Ry     beta= 0.70
     CG style diagonalization
     c_bands:  1 eigenvalues not converged
     ethr =  7.57E-07,  avg # of iterations =  4.8

     negative rho (up, down):  3.708E-02 0.000E+00

     total cpu time spent up to now is     1703.5 secs

     total energy              =    -364.74748520 Ry
     estimated scf accuracy    <       0.00004662 Ry

     iteration #  7     ecut=    50.00 Ry     beta= 0.70
     CG style diagonalization
     c_bands:  1 eigenvalues not converged
     ethr =  1.06E-07,  avg # of iterations =  6.5

     negative rho (up, down):  3.723E-02 0.000E+00

     total cpu time spent up to now is     1730.3 secs

     total energy              =    -364.74753971 Ry
     estimated scf accuracy    <       0.00001692 Ry

     iteration #  8     ecut=    50.00 Ry     beta= 0.70
     CG style diagonalization
     ethr =  3.85E-08,  avg # of iterations =  4.8

     negative rho (up, down):  3.729E-02 0.000E+00

     total cpu time spent up to now is     1749.5 secs

     total energy              =    -364.74754770 Ry
     estimated scf accuracy    <       0.00000160 Ry

     iteration #  9     ecut=    50.00 Ry     beta= 0.70
     CG style diagonalization
     ethr =  3.63E-09,  avg # of iterations =  7.6

     negative rho (up, down):  3.739E-02 0.000E+00

     total cpu time spent up to now is     1780.2 secs

     total energy              =    -364.74755103 Ry
     estimated scf accuracy    <       0.00000055 Ry

     iteration # 10     ecut=    50.00 Ry     beta= 0.70
     CG style diagonalization
     ethr =  1.25E-09,  avg # of iterations =  4.7

     negative rho (up, down):  3.740E-02 0.000E+00

     total cpu time spent up to now is     1799.5 secs

     End of self-consistent calculation

     Number of k-points >= 100: set verbosity='high' to print the bands.

     highest occupied level (ev):    65.0681

!    total energy              =    -364.74755129 Ry
     estimated scf accuracy    <          6.0E-09 Ry

     The total energy is the sum of the following terms:
     one-electron contribution =     146.89217948 Ry
     hartree contribution      =      32.21688368 Ry
     xc contribution           =    -115.00686694 Ry
     ewald contribution        =    -428.84974751 Ry

     convergence has been achieved in  10 iterations

     negative rho (up, down):  3.740E-02 0.000E+00

     Forces acting on atoms (cartesian axes, Ry/au):

     atom    1 type  1   force =    -0.19179170    0.19179170   -0.68296076
     atom    2 type  2   force =     1.77255485   -1.77255485   -0.34476189
     atom    3 type  3   force =    -1.40617527    1.40617527   -0.60385803
     atom    4 type  3   force =     0.39593408    0.57052196    0.81579034
     atom    5 type  3   force =    -0.57052196   -0.39593408    0.81579034

     Total force =     3.682067     Total SCF correction =     0.000099


     Computing stress (Cartesian axis) and pressure


     negative rho (up, down):  3.740E-02 0.000E+00
          total   stress  (Ry/bohr**3)                   (kbar)     P=    47341.84
   0.32797390   0.01666416  -0.00002809        48246.63     2451.38       -4.13
   0.01666416   0.32797390   0.00002809         2451.38    48246.63        4.13
  -0.00002809   0.00002809   0.30952216           -4.13        4.13    45532.28

     Energy error            =      1.1E+00 Ry
     Gradient error          =      1.8E+00 Ry/Bohr

     number of scf cycles    =   4
     number of bfgs steps    =   2

     energy             old  =    -363.6921974588 Ry
     energy             new  =    -364.7475512890 Ry

     CASE: energy            _new < energy            _old

     new trust radius        =       0.8000000000 bohr
     new conv_thr            =       0.0000000100 Ry


ATOMIC_POSITIONS (crystal)
Pb           -0.1516640246       -0.1516640246        0.9351188104
Ti            0.5313123600        0.5313123600        0.5448609434
O             0.4838893756        0.4838893756        0.1426897466
O             0.5664629428        0.0699993462        0.6223073938
O             0.0699993462        0.5664629428        0.6223073938



     Writing config-only to output data dir ./PTO.save/
     NEW-OLD atomic charge density approx. for the potential

     negative rho (up, down):  5.660E-03 0.000E+00

     total cpu time spent up to now is     1806.2 secs

     Self-consistent Calculation

     iteration #  1     ecut=    50.00 Ry     beta= 0.70
     CG style diagonalization
     c_bands:  1 eigenvalues not converged
     c_bands:  3 eigenvalues not converged
     c_bands:  2 eigenvalues not converged
     c_bands:  1 eigenvalues not converged
     c_bands:  1 eigenvalues not converged
     c_bands:  1 eigenvalues not converged
     c_bands:  1 eigenvalues not converged
     c_bands:  1 eigenvalues not converged
     c_bands:  4 eigenvalues not converged
     c_bands:  1 eigenvalues not converged
     c_bands:  1 eigenvalues not converged
     c_bands:  1 eigenvalues not converged
     c_bands:  1 eigenvalues not converged
     c_bands:  1 eigenvalues not converged
     c_bands:  1 eigenvalues not converged
     c_bands:  1 eigenvalues not converged
     c_bands:  1 eigenvalues not converged
     c_bands:  1 eigenvalues not converged
     c_bands:  1 eigenvalues not converged
     c_bands:  1 eigenvalues not converged
     c_bands:  1 eigenvalues not converged
     c_bands:  1 eigenvalues not converged
     ethr =  1.00E-06,  avg # of iterations = 28.6

     negative rho (up, down):  1.491E-02 0.000E+00

     total cpu time spent up to now is     1918.3 secs

     total energy              =    -359.73349586 Ry
     estimated scf accuracy    <       0.94420547 Ry

     iteration #  2     ecut=    50.00 Ry     beta= 0.70
     CG style diagonalization
     ethr =  2.15E-03,  avg # of iterations =  4.2

     negative rho (up, down):  2.081E-02 0.000E+00

     total cpu time spent up to now is     1935.2 secs

     total energy              =    -359.88848285 Ry
     estimated scf accuracy    <       0.26348500 Ry

     iteration #  3     ecut=    50.00 Ry     beta= 0.70
     CG style diagonalization
     ethr =  5.99E-04,  avg # of iterations =  4.2

     negative rho (up, down):  2.591E-02 0.000E+00

     total cpu time spent up to now is     1952.0 secs

     total energy              =    -359.99185914 Ry
     estimated scf accuracy    <       0.04616383 Ry

     iteration #  4     ecut=    50.00 Ry     beta= 0.70
     CG style diagonalization
     c_bands:  1 eigenvalues not converged
     ethr =  1.05E-04,  avg # of iterations =  4.4

     negative rho (up, down):  2.953E-02 0.000E+00

     total cpu time spent up to now is     1969.6 secs

     total energy              =    -360.01183122 Ry
     estimated scf accuracy    <       0.00927671 Ry

     iteration #  5     ecut=    50.00 Ry     beta= 0.70
     CG style diagonalization
     ethr =  2.11E-05,  avg # of iterations =  4.9

     negative rho (up, down):  3.324E-02 0.000E+00

     total cpu time spent up to now is     1989.0 secs

     total energy              =    -360.01617994 Ry
     estimated scf accuracy    <       0.00176921 Ry

     iteration #  6     ecut=    50.00 Ry     beta= 0.70
     CG style diagonalization
     ethr =  4.02E-06,  avg # of iterations =  4.8

     negative rho (up, down):  3.581E-02 0.000E+00

     total cpu time spent up to now is     2008.2 secs

     total energy              =    -360.01708302 Ry
     estimated scf accuracy    <       0.00024279 Ry

     iteration #  7     ecut=    50.00 Ry     beta= 0.70
     CG style diagonalization
     ethr =  5.52E-07,  avg # of iterations =  5.8

     negative rho (up, down):  3.535E-02 0.000E+00

     total cpu time spent up to now is     2031.3 secs

     total energy              =    -360.01729707 Ry
     estimated scf accuracy    <       0.00006471 Ry

     iteration #  8     ecut=    50.00 Ry     beta= 0.70
     CG style diagonalization
     ethr =  1.47E-07,  avg # of iterations =  5.3

     negative rho (up, down):  3.540E-02 0.000E+00

     total cpu time spent up to now is     2052.3 secs

     total energy              =    -360.01734181 Ry
     estimated scf accuracy    <       0.00000281 Ry

     iteration #  9     ecut=    50.00 Ry     beta= 0.70
     CG style diagonalization
     c_bands:  1 eigenvalues not converged
     ethr =  6.39E-09,  avg # of iterations =  8.1

     negative rho (up, down):  3.556E-02 0.000E+00

     total cpu time spent up to now is     2084.9 secs

     total energy              =    -360.01735211 Ry
     estimated scf accuracy    <       0.00000132 Ry

     iteration # 10     ecut=    50.00 Ry     beta= 0.70
     CG style diagonalization
     ethr =  2.99E-09,  avg # of iterations =  4.4

     negative rho (up, down):  3.556E-02 0.000E+00

     total cpu time spent up to now is     2102.3 secs

     total energy              =    -360.01735255 Ry
     estimated scf accuracy    <       0.00000010 Ry

     iteration # 11     ecut=    50.00 Ry     beta= 0.70
     CG style diagonalization
     ethr =  2.33E-10,  avg # of iterations =  6.5

     negative rho (up, down):  3.554E-02 0.000E+00

     total cpu time spent up to now is     2128.0 secs

     End of self-consistent calculation

     Number of k-points >= 100: set verbosity='high' to print the bands.

     highest occupied level (ev):    65.0471

!    total energy              =    -360.01735272 Ry
     estimated scf accuracy    <          8.2E-09 Ry

     The total energy is the sum of the following terms:
     one-electron contribution =     122.91147074 Ry
     hartree contribution      =      42.64643765 Ry
     xc contribution           =    -116.34269306 Ry
     ewald contribution        =    -409.23256805 Ry

     convergence has been achieved in  11 iterations

     negative rho (up, down):  3.554E-02 0.000E+00

     Forces acting on atoms (cartesian axes, Ry/au):

     atom    1 type  1   force =    -5.56613091    5.56613091    3.83205798
     atom    2 type  2   force =    -2.78100622    2.78100622    3.31352021
     atom    3 type  3   force =     2.11836962   -2.11836962   -1.27283500
     atom    4 type  3   force =     3.61423629   -2.61453122   -2.93637159
     atom    5 type  3   force =     2.61453122   -3.61423629   -2.93637159

     Total force =    13.066457     Total SCF correction =     0.000209


     Computing stress (Cartesian axis) and pressure


     negative rho (up, down):  3.554E-02 0.000E+00
          total   stress  (Ry/bohr**3)                   (kbar)     P=    54725.18
   0.39178369  -0.02782819  -0.00593165        57633.37    -4093.67     -872.58
  -0.02782819   0.39178369   0.00593165        -4093.67    57633.37      872.58
  -0.00593165   0.00593165   0.33247526         -872.58      872.58    48908.80

     Energy error            =      4.7E+00 Ry
     Gradient error          =      5.6E+00 Ry/Bohr

     number of scf cycles    =   5
     number of bfgs steps    =   3

     energy             old  =    -364.7475512890 Ry
     energy             new  =    -360.0173527188 Ry

     CASE: energy            _new > energy            _old

     new trust radius        =       0.1211384077 bohr
     new conv_thr            =       0.0000000100 Ry


ATOMIC_POSITIONS (crystal)
Pb           -0.0871941319       -0.0871941319        0.9662402165
Ti            0.5252211875        0.5252211875        0.5828316019
O             0.4978291552        0.4978291552        0.0809303683
O             0.5490861166        0.0150576726        0.6186410507
O             0.0150576726        0.5490861166        0.6186410507



     Writing config-only to output data dir ./PTO.save/
     NEW-OLD atomic charge density approx. for the potential

     negative rho (up, down):  8.733E-03 0.000E+00

     total cpu time spent up to now is     2134.8 secs

     Self-consistent Calculation

     iteration #  1     ecut=    50.00 Ry     beta= 0.70
     CG style diagonalization
     c_bands:  2 eigenvalues not converged
     c_bands:  1 eigenvalues not converged
     c_bands:  1 eigenvalues not converged
     c_bands:  1 eigenvalues not converged
     c_bands:  1 eigenvalues not converged
     c_bands:  1 eigenvalues not converged
     c_bands:  1 eigenvalues not converged
     c_bands:  1 eigenvalues not converged
     c_bands:  1 eigenvalues not converged
     c_bands:  1 eigenvalues not converged
     c_bands:  1 eigenvalues not converged
     c_bands:  2 eigenvalues not converged
     c_bands:  1 eigenvalues not converged
     c_bands:  1 eigenvalues not converged
     c_bands:  1 eigenvalues not converged
     c_bands:  1 eigenvalues not converged
     c_bands:  1 eigenvalues not converged
     c_bands:  1 eigenvalues not converged
     c_bands:  1 eigenvalues not converged
     c_bands:  1 eigenvalues not converged
     c_bands:  1 eigenvalues not converged
     c_bands:  1 eigenvalues not converged
     c_bands:  2 eigenvalues not converged
     c_bands:  1 eigenvalues not converged
     c_bands:  2 eigenvalues not converged
     c_bands:  1 eigenvalues not converged
     c_bands:  1 eigenvalues not converged
     c_bands:  1 eigenvalues not converged
     c_bands:  1 eigenvalues not converged
     c_bands:  2 eigenvalues not converged
     c_bands:  1 eigenvalues not converged
     c_bands:  2 eigenvalues not converged
     c_bands:  2 eigenvalues not converged
     c_bands:  1 eigenvalues not converged
     c_bands:  1 eigenvalues not converged
     ethr =  1.00E-06,  avg # of iterations = 28.1

     negative rho (up, down):  2.720E-02 0.000E+00

     total cpu time spent up to now is     2246.0 secs

     total energy              =    -364.75845144 Ry
     estimated scf accuracy    <       0.64766789 Ry

     iteration #  2     ecut=    50.00 Ry     beta= 0.70
     CG style diagonalization
     ethr =  1.47E-03,  avg # of iterations =  4.1

     negative rho (up, down):  3.069E-02 0.000E+00

     total cpu time spent up to now is     2262.4 secs

     total energy              =    -364.83163976 Ry
     estimated scf accuracy    <       0.23393266 Ry

     iteration #  3     ecut=    50.00 Ry     beta= 0.70
     CG style diagonalization
     ethr =  5.32E-04,  avg # of iterations =  4.1

     negative rho (up, down):  3.394E-02 0.000E+00

     total cpu time spent up to now is     2278.8 secs

     total energy              =    -364.91037028 Ry
     estimated scf accuracy    <       0.05437132 Ry

     iteration #  4     ecut=    50.00 Ry     beta= 0.70
     CG style diagonalization
     ethr =  1.24E-04,  avg # of iterations =  4.1

     negative rho (up, down):  3.558E-02 0.000E+00

     total cpu time spent up to now is     2294.9 secs

     total energy              =    -364.92621002 Ry
     estimated scf accuracy    <       0.00638301 Ry

     iteration #  5     ecut=    50.00 Ry     beta= 0.70
     CG style diagonalization
     ethr =  1.45E-05,  avg # of iterations =  4.6

     negative rho (up, down):  3.632E-02 0.000E+00

     total cpu time spent up to now is     2313.4 secs

     total energy              =    -364.92932625 Ry
     estimated scf accuracy    <       0.00068782 Ry

     iteration #  6     ecut=    50.00 Ry     beta= 0.70
     CG style diagonalization
     ethr =  1.56E-06,  avg # of iterations =  6.2

     negative rho (up, down):  3.712E-02 0.000E+00

     total cpu time spent up to now is     2338.2 secs

     total energy              =    -364.93001226 Ry
     estimated scf accuracy    <       0.00012619 Ry

     iteration #  7     ecut=    50.00 Ry     beta= 0.70
     CG style diagonalization
     ethr =  2.87E-07,  avg # of iterations =  5.9

     negative rho (up, down):  3.713E-02 0.000E+00

     total cpu time spent up to now is     2361.6 secs

     total energy              =    -364.93012172 Ry
     estimated scf accuracy    <       0.00004148 Ry

     iteration #  8     ecut=    50.00 Ry     beta= 0.70
     CG style diagonalization
     ethr =  9.43E-08,  avg # of iterations =  5.0

     negative rho (up, down):  3.731E-02 0.000E+00

     total cpu time spent up to now is     2381.4 secs

     total energy              =    -364.93014659 Ry
     estimated scf accuracy    <       0.00000208 Ry

     iteration #  9     ecut=    50.00 Ry     beta= 0.70
     CG style diagonalization
     ethr =  4.72E-09,  avg # of iterations =  8.6

     negative rho (up, down):  3.740E-02 0.000E+00

     total cpu time spent up to now is     2415.8 secs

     total energy              =    -364.93015607 Ry
     estimated scf accuracy    <       0.00000033 Ry

     iteration # 10     ecut=    50.00 Ry     beta= 0.70
     CG style diagonalization
     ethr =  7.56E-10,  avg # of iterations =  5.8

     negative rho (up, down):  3.741E-02 0.000E+00

     total cpu time spent up to now is     2439.0 secs

     total energy              =    -364.93015639 Ry
     estimated scf accuracy    <       0.00000003 Ry

     iteration # 11     ecut=    50.00 Ry     beta= 0.70
     CG style diagonalization
     c_bands:  1 eigenvalues not converged
     ethr =  6.93E-11,  avg # of iterations =  7.4

     negative rho (up, down):  3.741E-02 0.000E+00

     total cpu time spent up to now is     2468.5 secs

     total energy              =    -364.93094735 Ry
     estimated scf accuracy    <       0.00003582 Ry

     iteration # 12     ecut=    50.00 Ry     beta= 0.70
     CG style diagonalization
     c_bands:  1 eigenvalues not converged
     ethr =  6.93E-11,  avg # of iterations =  3.2

     negative rho (up, down):  3.741E-02 0.000E+00

     total cpu time spent up to now is     2481.1 secs

     total energy              =    -364.93108737 Ry
     estimated scf accuracy    <       0.00004284 Ry

     iteration # 13     ecut=    50.00 Ry     beta= 0.70
     CG style diagonalization
     c_bands:  1 eigenvalues not converged
     ethr =  6.93E-11,  avg # of iterations =  3.0

     negative rho (up, down):  3.741E-02 0.000E+00

     total cpu time spent up to now is     2493.1 secs

     total energy              =    -364.93109542 Ry
     estimated scf accuracy    <       0.00004352 Ry

     iteration # 14     ecut=    50.00 Ry     beta= 0.70
     CG style diagonalization
     c_bands:  1 eigenvalues not converged
     ethr =  6.93E-11,  avg # of iterations =  3.0

     negative rho (up, down):  3.741E-02 0.000E+00

     total cpu time spent up to now is     2504.9 secs

     total energy              =    -364.93109588 Ry
     estimated scf accuracy    <       0.00004352 Ry

     iteration # 15     ecut=    50.00 Ry     beta= 0.70
     CG style diagonalization
     c_bands:  1 eigenvalues not converged
     ethr =  6.93E-11,  avg # of iterations =  3.0

     negative rho (up, down):  3.740E-02 0.000E+00

     total cpu time spent up to now is     2516.7 secs

     total energy              =    -364.93109560 Ry
     estimated scf accuracy    <       0.00004367 Ry

     iteration # 16     ecut=    50.00 Ry     beta= 0.70
     CG style diagonalization
     ethr =  6.93E-11,  avg # of iterations =  3.0

     negative rho (up, down):  3.740E-02 0.000E+00

     total cpu time spent up to now is     2528.8 secs

     total energy              =    -364.93109605 Ry
     estimated scf accuracy    <       0.00004307 Ry

     iteration # 17     ecut=    50.00 Ry     beta= 0.70
     CG style diagonalization
     ethr =  6.93E-11,  avg # of iterations =  3.1

     negative rho (up, down):  3.738E-02 0.000E+00

     total cpu time spent up to now is     2541.2 secs

     total energy              =    -364.93109674 Ry
     estimated scf accuracy    <       0.00004410 Ry

     iteration # 18     ecut=    50.00 Ry     beta= 0.70
     CG style diagonalization
     ethr =  6.93E-11,  avg # of iterations =  3.6

     negative rho (up, down):  3.737E-02 0.000E+00

     total cpu time spent up to now is     2555.6 secs

     total energy              =    -364.93109861 Ry
     estimated scf accuracy    <       0.00004607 Ry

     iteration # 19     ecut=    50.00 Ry     beta= 0.70
     CG style diagonalization
     ethr =  6.93E-11,  avg # of iterations =  4.5

     negative rho (up, down):  3.721E-02 0.000E+00

     total cpu time spent up to now is     2573.6 secs

     total energy              =    -364.93110810 Ry
     estimated scf accuracy    <       0.00005098 Ry

     iteration # 20     ecut=    50.00 Ry     beta= 0.70
     CG style diagonalization
     c_bands:  1 eigenvalues not converged
     ethr =  6.93E-11,  avg # of iterations =  8.3

     negative rho (up, down):  3.740E-02 0.000E+00

     total cpu time spent up to now is     2607.3 secs

     total energy              =    -364.93110766 Ry
     estimated scf accuracy    <       0.00007577 Ry

     iteration # 21     ecut=    50.00 Ry     beta= 0.70
     CG style diagonalization
     c_bands:  1 eigenvalues not converged
     ethr =  6.93E-11,  avg # of iterations =  7.5

     negative rho (up, down):  3.738E-02 0.000E+00

     total cpu time spent up to now is     2638.6 secs

     total energy              =    -364.93106820 Ry
     estimated scf accuracy    <       0.00007735 Ry

     iteration # 22     ecut=    50.00 Ry     beta= 0.70
     CG style diagonalization
     c_bands:  1 eigenvalues not converged
     c_bands:  1 eigenvalues not converged
     c_bands:  1 eigenvalues not converged
     c_bands:  1 eigenvalues not converged
     c_bands:  1 eigenvalues not converged
     c_bands:  1 eigenvalues not converged
     c_bands:  1 eigenvalues not converged
     c_bands:  1 eigenvalues not converged
     c_bands:  1 eigenvalues not converged
     c_bands:  1 eigenvalues not converged
     c_bands:  1 eigenvalues not converged
     c_bands:  1 eigenvalues not converged
     c_bands:  1 eigenvalues not converged
     c_bands:  1 eigenvalues not converged
     c_bands:  1 eigenvalues not converged
     c_bands:  1 eigenvalues not converged
     c_bands:  1 eigenvalues not converged
     c_bands:  1 eigenvalues not converged
     c_bands:  1 eigenvalues not converged
     c_bands:  1 eigenvalues not converged
     ethr =  6.93E-11,  avg # of iterations = 11.0

     negative rho (up, down):  3.739E-02 0.000E+00

     total cpu time spent up to now is     2683.1 secs

     total energy              =    -364.93107831 Ry
     estimated scf accuracy    <       0.00000042 Ry

     iteration # 23     ecut=    50.00 Ry     beta= 0.70
     CG style diagonalization
     c_bands:  1 eigenvalues not converged
     c_bands:  1 eigenvalues not converged
     c_bands:  1 eigenvalues not converged
     ethr =  6.93E-11,  avg # of iterations =  6.3

     negative rho (up, down):  3.739E-02 0.000E+00

     total cpu time spent up to now is     2709.0 secs

     total energy              =    -364.93367567 Ry
     estimated scf accuracy    <       0.00008996 Ry

     iteration # 24     ecut=    50.00 Ry     beta= 0.70
     CG style diagonalization
     c_bands:  1 eigenvalues not converged
     ethr =  6.93E-11,  avg # of iterations =  4.5

     negative rho (up, down):  3.739E-02 0.000E+00

     total cpu time spent up to now is     2727.0 secs

     total energy              =    -364.93369981 Ry
     estimated scf accuracy    <       0.00008397 Ry

     iteration # 25     ecut=    50.00 Ry     beta= 0.70
     CG style diagonalization
     c_bands:  1 eigenvalues not converged
     c_bands:  1 eigenvalues not converged
     ethr =  6.93E-11,  avg # of iterations =  5.9

     negative rho (up, down):  3.739E-02 0.000E+00

     total cpu time spent up to now is     2750.4 secs

     total energy              =    -364.93369368 Ry
     estimated scf accuracy    <       0.00006923 Ry

     iteration # 26     ecut=    50.00 Ry     beta= 0.70
     CG style diagonalization
     c_bands:  1 eigenvalues not converged
     c_bands:  1 eigenvalues not converged
     c_bands:  1 eigenvalues not converged
     ethr =  6.93E-11,  avg # of iterations =  6.6

     negative rho (up, down):  3.739E-02 0.000E+00

     total cpu time spent up to now is     2776.6 secs

     total energy              =    -364.93367462 Ry
     estimated scf accuracy    <       0.00004964 Ry

     iteration # 27     ecut=    50.00 Ry     beta= 0.70
     CG style diagonalization
     c_bands:  1 eigenvalues not converged
     c_bands:  1 eigenvalues not converged
     c_bands:  1 eigenvalues not converged
     c_bands:  1 eigenvalues not converged
     c_bands:  1 eigenvalues not converged
     c_bands:  1 eigenvalues not converged
     c_bands:  1 eigenvalues not converged
     c_bands:  1 eigenvalues not converged
     c_bands:  1 eigenvalues not converged
     c_bands:  1 eigenvalues not converged
     c_bands:  1 eigenvalues not converged
     c_bands:  1 eigenvalues not converged
     c_bands:  1 eigenvalues not converged
     c_bands:  1 eigenvalues not converged
     c_bands:  1 eigenvalues not converged
     ethr =  6.93E-11,  avg # of iterations = 10.5

     negative rho (up, down):  3.740E-02 0.000E+00

     total cpu time spent up to now is     2818.6 secs

     total energy              =    -364.93367908 Ry
     estimated scf accuracy    <       0.00000197 Ry

     iteration # 28     ecut=    50.00 Ry     beta= 0.70
     CG style diagonalization
     c_bands:  1 eigenvalues not converged
     ethr =  6.93E-11,  avg # of iterations =  5.6

     negative rho (up, down):  3.740E-02 0.000E+00

     total cpu time spent up to now is     2841.0 secs

     total energy              =    -364.93367903 Ry
     estimated scf accuracy    <       0.00000037 Ry

     iteration # 29     ecut=    50.00 Ry     beta= 0.70
     CG style diagonalization
     ethr =  6.93E-11,  avg # of iterations =  5.1

     negative rho (up, down):  3.740E-02 0.000E+00

     total cpu time spent up to now is     2861.4 secs

     End of self-consistent calculation

     Number of k-points >= 100: set verbosity='high' to print the bands.

     highest occupied level (ev):    64.6450

!    total energy              =    -364.93367908 Ry
     estimated scf accuracy    <          3.3E-09 Ry

     The total energy is the sum of the following terms:
     one-electron contribution =     148.43920735 Ry
     hartree contribution      =      31.50038838 Ry
     xc contribution           =    -114.95735627 Ry
     ewald contribution        =    -429.91591854 Ry

     convergence has been achieved in  29 iterations

     negative rho (up, down):  3.740E-02 0.000E+00

     Forces acting on atoms (cartesian axes, Ry/au):

     atom    1 type  1   force =    -0.62571297    0.62571297   -0.00686978
     atom    2 type  2   force =     1.09415940   -1.09415940    0.14342771
     atom    3 type  3   force =    -0.89424129    0.89424129   -0.48606218
     atom    4 type  3   force =     0.60008561    0.17429075    0.17475212
     atom    5 type  3   force =    -0.17429075   -0.60008561    0.17475212

     Total force =     2.423974     Total SCF correction =     0.000117


     Computing stress (Cartesian axis) and pressure


     negative rho (up, down):  3.740E-02 0.000E+00
          total   stress  (Ry/bohr**3)                   (kbar)     P=    46825.64
   0.32448329   0.00713106  -0.00465799        47733.14     1049.01     -685.21
   0.00713106   0.32448329   0.00465799         1049.01    47733.14      685.21
  -0.00465799   0.00465799   0.30597613         -685.21      685.21    45010.64

     Energy error            =      1.9E-01 Ry
     Gradient error          =      1.1E+00 Ry/Bohr

     number of scf cycles    =   6
     number of bfgs steps    =   3

     energy             old  =    -364.7475512890 Ry
     energy             new  =    -364.9336790813 Ry

     CASE: energy            _new < energy            _old

     new trust radius        =       0.3634152231 bohr
     new conv_thr            =       0.0000000100 Ry


ATOMIC_POSITIONS (crystal)
Pb           -0.0982194182       -0.0982194182        0.9836521952
Ti            0.5743762160        0.5743762160        0.5186198028
O             0.4731686558        0.4731686558        0.1476056546
O             0.5020350034        0.0486395430        0.6087033177
O             0.0486395430        0.5020350034        0.6087033177



     Writing config-only to output data dir ./PTO.save/
     NEW-OLD atomic charge density approx. for the potential

     negative rho (up, down):  3.562E-02 0.000E+00

     total cpu time spent up to now is     2868.2 secs

     Self-consistent Calculation

     iteration #  1     ecut=    50.00 Ry     beta= 0.70
     CG style diagonalization
     c_bands:  1 eigenvalues not converged
     c_bands:  1 eigenvalues not converged
     c_bands:  1 eigenvalues not converged
     c_bands:  1 eigenvalues not converged
     c_bands:  1 eigenvalues not converged
     c_bands:  1 eigenvalues not converged
     c_bands:  1 eigenvalues not converged
     c_bands:  1 eigenvalues not converged
     c_bands:  1 eigenvalues not converged
     c_bands:  1 eigenvalues not converged
     c_bands:  1 eigenvalues not converged
     c_bands:  1 eigenvalues not converged
     ethr =  1.00E-06,  avg # of iterations = 27.3

     negative rho (up, down):  3.298E-02 0.000E+00

     total cpu time spent up to now is     2974.6 secs

     total energy              =    -364.18645305 Ry
     estimated scf accuracy    <       0.55926931 Ry

     iteration #  2     ecut=    50.00 Ry     beta= 0.70
     CG style diagonalization
     ethr =  1.27E-03,  avg # of iterations =  4.5

     negative rho (up, down):  3.232E-02 0.000E+00

     total cpu time spent up to now is     2992.6 secs

     total energy              =    -364.26023593 Ry
     estimated scf accuracy    <       0.46036201 Ry

     iteration #  3     ecut=    50.00 Ry     beta= 0.70
     CG style diagonalization
     ethr =  1.05E-03,  avg # of iterations =  4.1

     negative rho (up, down):  3.245E-02 0.000E+00

     total cpu time spent up to now is     3008.9 secs

     total energy              =    -364.38903221 Ry
     estimated scf accuracy    <       0.04964867 Ry

     iteration #  4     ecut=    50.00 Ry     beta= 0.70
     CG style diagonalization
     ethr =  1.13E-04,  avg # of iterations =  4.0

     negative rho (up, down):  3.279E-02 0.000E+00

     total cpu time spent up to now is     3024.9 secs

     total energy              =    -364.40570129 Ry
     estimated scf accuracy    <       0.00105471 Ry

     iteration #  5     ecut=    50.00 Ry     beta= 0.70
     CG style diagonalization
     c_bands:  1 eigenvalues not converged
     ethr =  2.40E-06,  avg # of iterations =  7.1

     negative rho (up, down):  3.329E-02 0.000E+00

     total cpu time spent up to now is     3053.3 secs

     total energy              =    -364.40784706 Ry
     estimated scf accuracy    <       0.00043564 Ry

     iteration #  6     ecut=    50.00 Ry     beta= 0.70
     CG style diagonalization
     ethr =  9.90E-07,  avg # of iterations =  4.0

[...]

     iteration #  3     ecut=    50.00 Ry     beta= 0.70
     CG style diagonalization
     ethr =  1.65E-08,  avg # of iterations =  4.8

     negative rho (up, down):  3.749E-02 0.000E+00

     total cpu time spent up to now is    11349.8 secs

     total energy              =    -367.33740169 Ry
     estimated scf accuracy    <       0.00000053 Ry

     iteration #  4     ecut=    50.00 Ry     beta= 0.70
     CG style diagonalization
     c_bands:  1 eigenvalues not converged
     ethr =  1.20E-09,  avg # of iterations =  5.9

     negative rho (up, down):  3.749E-02 0.000E+00

     total cpu time spent up to now is    11373.3 secs

     total energy              =    -367.33740219 Ry
     estimated scf accuracy    <       0.00000017 Ry

     iteration #  5     ecut=    50.00 Ry     beta= 0.70
     CG style diagonalization
     ethr =  3.81E-10,  avg # of iterations =  4.6

     negative rho (up, down):  3.749E-02 0.000E+00

     total cpu time spent up to now is    11391.4 secs

     total energy              =    -367.33740222 Ry
     estimated scf accuracy    <       0.00000004 Ry

     iteration #  6     ecut=    50.00 Ry     beta= 0.70
     CG style diagonalization
     ethr =  8.69E-11,  avg # of iterations =  4.8

     negative rho (up, down):  3.749E-02 0.000E+00

     total cpu time spent up to now is    11410.2 secs

     total energy              =    -367.33740224 Ry
     estimated scf accuracy    <          2.1E-09 Ry

     iteration #  7     ecut=    50.00 Ry     beta= 0.70
     CG style diagonalization
     c_bands:  1 eigenvalues not converged
     ethr =  4.66E-12,  avg # of iterations =  7.8

     negative rho (up, down):  3.749E-02 0.000E+00

     total cpu time spent up to now is    11441.1 secs

     total energy              =    -367.33740225 Ry
     estimated scf accuracy    <          4.0E-10 Ry

     iteration #  8     ecut=    50.00 Ry     beta= 0.70
     CG style diagonalization
     ethr =  9.13E-13,  avg # of iterations =  5.7

     negative rho (up, down):  3.749E-02 0.000E+00

     total cpu time spent up to now is    11463.7 secs

     End of self-consistent calculation

     Number of k-points >= 100: set verbosity='high' to print the bands.

     highest occupied level (ev):    69.8119

!    total energy              =    -367.33740225 Ry
     estimated scf accuracy    <          2.8E-11 Ry

     The total energy is the sum of the following terms:
     one-electron contribution =     174.80872540 Ry
     hartree contribution      =      19.08316982 Ry
     xc contribution           =    -114.33302106 Ry
     ewald contribution        =    -446.89627641 Ry

     convergence has been achieved in   8 iterations

     negative rho (up, down):  3.749E-02 0.000E+00

     Forces acting on atoms (cartesian axes, Ry/au):

     atom    1 type  1   force =    -0.00634494    0.00634494    0.01700714
     atom    2 type  2   force =    -0.00217855    0.00217855   -0.01027912
     atom    3 type  3   force =     0.00181021   -0.00181021   -0.00639642
     atom    4 type  3   force =     0.00624642   -0.00046685   -0.00016580
     atom    5 type  3   force =     0.00046685   -0.00624642   -0.00016580

     Total force =     0.024717     Total SCF correction =     0.000015


     Computing stress (Cartesian axis) and pressure


     negative rho (up, down):  3.749E-02 0.000E+00
          total   stress  (Ry/bohr**3)                   (kbar)     P=    41597.65
   0.27110465   0.03240825  -0.00005249        39880.87     4767.42       -7.72
   0.03240825   0.27110465   0.00005249         4767.42    39880.87        7.72
  -0.00005249   0.00005249   0.30611598           -7.72        7.72    45031.22

     Energy error            =      2.6E-05 Ry
     Gradient error          =      1.7E-02 Ry/Bohr

     number of scf cycles    =  33
     number of bfgs steps    =  21

     energy             old  =    -367.3373760303 Ry
     energy             new  =    -367.3374022514 Ry

     CASE: energy            _new < energy            _old

     new trust radius        =       0.0023491926 bohr
     new conv_thr            =            1.0E-10 Ry


ATOMIC_POSITIONS (crystal)
Pb            0.0047798764        0.0047798764        0.9686603516
Ti            0.5770257612        0.5770257612        0.3964147760
O             0.2941381654        0.2941381654        0.1793391026
O             0.6237783336        0.0002778633        0.6614350289
O             0.0002778633        0.6237783336        0.6614350289



     Writing config-only to output data dir ./PTO.save/
     NEW-OLD atomic charge density approx. for the potential

     negative rho (up, down):  3.751E-02 0.000E+00

     total cpu time spent up to now is    11470.4 secs

     Self-consistent Calculation

     iteration #  1     ecut=    50.00 Ry     beta= 0.70
     CG style diagonalization
     c_bands:  1 eigenvalues not converged
     c_bands:  1 eigenvalues not converged
     c_bands:  1 eigenvalues not converged
     ethr =  1.00E-06,  avg # of iterations =  3.7

     Threshold (ethr) on eigenvalues was too large:
     Diagonalizing with lowered threshold

     CG style diagonalization
     c_bands:  1 eigenvalues not converged
     c_bands:  1 eigenvalues not converged
     c_bands:  2 eigenvalues not converged
     c_bands:  1 eigenvalues not converged
     c_bands:  1 eigenvalues not converged
     c_bands:  3 eigenvalues not converged
     c_bands:  1 eigenvalues not converged
     c_bands:  1 eigenvalues not converged
     c_bands:  2 eigenvalues not converged
     c_bands:  1 eigenvalues not converged
     c_bands:  1 eigenvalues not converged
     c_bands:  2 eigenvalues not converged
     c_bands:  1 eigenvalues not converged
     c_bands:  2 eigenvalues not converged
     c_bands:  1 eigenvalues not converged
     c_bands:  2 eigenvalues not converged
     c_bands:  1 eigenvalues not converged
     c_bands:  1 eigenvalues not converged
     c_bands:  3 eigenvalues not converged
     c_bands:  1 eigenvalues not converged
     c_bands:  1 eigenvalues not converged
     c_bands:  1 eigenvalues not converged
     ethr =  5.71E-08,  avg # of iterations =  7.4

     negative rho (up, down):  3.750E-02 0.000E+00

     total cpu time spent up to now is    11517.6 secs

     total energy              =    -367.33743058 Ry
     estimated scf accuracy    <       0.00001514 Ry

     iteration #  2     ecut=    50.00 Ry     beta= 0.70
     CG style diagonalization
     ethr =  3.44E-08,  avg # of iterations =  4.0

     negative rho (up, down):  3.750E-02 0.000E+00

     total cpu time spent up to now is    11533.8 secs

     total energy              =    -367.33743463 Ry
     estimated scf accuracy    <       0.00000126 Ry

     iteration #  3     ecut=    50.00 Ry     beta= 0.70
     CG style diagonalization
     ethr =  2.86E-09,  avg # of iterations =  4.6

     negative rho (up, down):  3.750E-02 0.000E+00

     total cpu time spent up to now is    11551.7 secs

     total energy              =    -367.33743544 Ry
     estimated scf accuracy    <       0.00000017 Ry

     iteration #  4     ecut=    50.00 Ry     beta= 0.70
     CG style diagonalization
     ethr =  3.78E-10,  avg # of iterations =  5.2

     negative rho (up, down):  3.750E-02 0.000E+00

     total cpu time spent up to now is    11572.0 secs

     total energy              =    -367.33743560 Ry
     estimated scf accuracy    <       0.00000004 Ry

     iteration #  5     ecut=    50.00 Ry     beta= 0.70
     CG style diagonalization
     ethr =  9.62E-11,  avg # of iterations =  4.8

     negative rho (up, down):  3.750E-02 0.000E+00

     total cpu time spent up to now is    11590.5 secs

     total energy              =    -367.33743562 Ry
     estimated scf accuracy    <          6.5E-09 Ry

     iteration #  6     ecut=    50.00 Ry     beta= 0.70
     CG style diagonalization
     ethr =  1.49E-11,  avg # of iterations =  5.3

     negative rho (up, down):  3.750E-02 0.000E+00

     total cpu time spent up to now is    11611.5 secs

     total energy              =    -367.33743563 Ry
     estimated scf accuracy    <          1.2E-09 Ry

     iteration #  7     ecut=    50.00 Ry     beta= 0.70
     CG style diagonalization
     ethr =  2.81E-12,  avg # of iterations =  5.6

     negative rho (up, down):  3.750E-02 0.000E+00

     total cpu time spent up to now is    11633.4 secs

     End of self-consistent calculation

     Number of k-points >= 100: set verbosity='high' to print the bands.

     highest occupied level (ev):    69.8169

!    total energy              =    -367.33743563 Ry
     estimated scf accuracy    <          9.6E-11 Ry

     The total energy is the sum of the following terms:
     one-electron contribution =     174.80868235 Ry
     hartree contribution      =      19.08450439 Ry
     xc contribution           =    -114.33296651 Ry
     ewald contribution        =    -446.89765586 Ry

     convergence has been achieved in   7 iterations

     negative rho (up, down):  3.750E-02 0.000E+00

     Forces acting on atoms (cartesian axes, Ry/au):

     atom    1 type  1   force =    -0.00038647    0.00038647   -0.00137392
     atom    2 type  2   force =    -0.00011330    0.00011330    0.00016651
     atom    3 type  3   force =     0.00027458   -0.00027458    0.00103417
     atom    4 type  3   force =     0.00013497   -0.00009021    0.00008662
     atom    5 type  3   force =     0.00009021   -0.00013497    0.00008662

     Total force =     0.001878     Total SCF correction =     0.000023


     Computing stress (Cartesian axis) and pressure


     negative rho (up, down):  3.750E-02 0.000E+00
          total   stress  (Ry/bohr**3)                   (kbar)     P=    41598.50
   0.27111789   0.03244484  -0.00000157        39882.82     4772.80       -0.23
   0.03244484   0.27111789   0.00000157         4772.80    39882.82        0.23
  -0.00000157   0.00000157   0.30610681           -0.23        0.23    45029.87

     Energy error            =      3.3E-05 Ry
     Gradient error          =      1.4E-03 Ry/Bohr

     number of scf cycles    =  34
     number of bfgs steps    =  22

     energy             old  =    -367.3374022514 Ry
     energy             new  =    -367.3374356271 Ry

     CASE: energy            _new < energy            _old

     new trust radius        =       0.0004216961 bohr
     new conv_thr            =            1.0E-10 Ry


ATOMIC_POSITIONS (crystal)
Pb            0.0047585112        0.0047585112        0.9686987765
Ti            0.5770149204        0.5770149204        0.3964537399
O             0.2941940089        0.2941940089        0.1792594152
O             0.6237612106        0.0002713489        0.6614361782
O             0.0002713489        0.6237612106        0.6614361782



     Writing config-only to output data dir ./PTO.save/
     NEW-OLD atomic charge density approx. for the potential

     negative rho (up, down):  3.750E-02 0.000E+00

     total cpu time spent up to now is    11640.3 secs

     Self-consistent Calculation

     iteration #  1     ecut=    50.00 Ry     beta= 0.70
     CG style diagonalization
     ethr =  1.00E-06,  avg # of iterations =  2.0

     Threshold (ethr) on eigenvalues was too large:
     Diagonalizing with lowered threshold

     CG style diagonalization
     c_bands:  2 eigenvalues not converged
     c_bands:  1 eigenvalues not converged
     c_bands:  1 eigenvalues not converged
     c_bands:  2 eigenvalues not converged
     c_bands:  1 eigenvalues not converged
     c_bands:  1 eigenvalues not converged
     c_bands:  2 eigenvalues not converged
     c_bands:  2 eigenvalues not converged
     c_bands:  1 eigenvalues not converged
     c_bands:  2 eigenvalues not converged
     c_bands:  1 eigenvalues not converged
     c_bands:  1 eigenvalues not converged
     c_bands:  1 eigenvalues not converged
     c_bands:  1 eigenvalues not converged
     c_bands:  1 eigenvalues not converged
     c_bands:  3 eigenvalues not converged
     c_bands:  1 eigenvalues not converged
     c_bands:  1 eigenvalues not converged
     c_bands:  1 eigenvalues not converged
     c_bands:  2 eigenvalues not converged
     c_bands:  1 eigenvalues not converged
     c_bands:  4 eigenvalues not converged
     c_bands:  2 eigenvalues not converged
     c_bands:  1 eigenvalues not converged
     c_bands:  1 eigenvalues not converged
     c_bands:  1 eigenvalues not converged
     c_bands:  1 eigenvalues not converged
     c_bands:  1 eigenvalues not converged
     c_bands:  1 eigenvalues not converged
     c_bands:  2 eigenvalues not converged
     c_bands:  2 eigenvalues not converged
     c_bands:  2 eigenvalues not converged
     c_bands:  1 eigenvalues not converged
     c_bands:  2 eigenvalues not converged
     c_bands:  1 eigenvalues not converged
     c_bands:  1 eigenvalues not converged
     c_bands:  1 eigenvalues not converged
     c_bands:  1 eigenvalues not converged
     c_bands:  1 eigenvalues not converged
     c_bands:  1 eigenvalues not converged
     c_bands:  1 eigenvalues not converged
     c_bands:  2 eigenvalues not converged
     c_bands:  3 eigenvalues not converged
     c_bands:  2 eigenvalues not converged
     c_bands:  1 eigenvalues not converged
     c_bands:  2 eigenvalues not converged
     c_bands:  1 eigenvalues not converged
     c_bands:  1 eigenvalues not converged
     c_bands:  1 eigenvalues not converged
     c_bands:  1 eigenvalues not converged
     c_bands:  1 eigenvalues not converged
     c_bands:  1 eigenvalues not converged
     ethr =  4.58E-10,  avg # of iterations =  9.6

     negative rho (up, down):  3.750E-02 0.000E+00

     total cpu time spent up to now is    11690.7 secs

     total energy              =    -367.33743612 Ry
     estimated scf accuracy    <       0.00000024 Ry

     iteration #  2     ecut=    50.00 Ry     beta= 0.70
     CG style diagonalization
     ethr =  5.45E-10,  avg # of iterations =  3.8

     negative rho (up, down):  3.750E-02 0.000E+00

     total cpu time spent up to now is    11705.6 secs

     total energy              =    -367.33743616 Ry
     estimated scf accuracy    <          9.3E-09 Ry

     iteration #  3     ecut=    50.00 Ry     beta= 0.70
     CG style diagonalization
     ethr =  2.11E-11,  avg # of iterations =  4.7

     negative rho (up, down):  3.750E-02 0.000E+00

     total cpu time spent up to now is    11723.8 secs

     total energy              =    -367.33743617 Ry
     estimated scf accuracy    <          9.9E-10 Ry

     iteration #  4     ecut=    50.00 Ry     beta= 0.70
     CG style diagonalization
     ethr =  2.26E-12,  avg # of iterations =  5.2

     negative rho (up, down):  3.750E-02 0.000E+00

     total cpu time spent up to now is    11744.4 secs

     total energy              =    -367.33743617 Ry
     estimated scf accuracy    <          3.7E-10 Ry

     iteration #  5     ecut=    50.00 Ry     beta= 0.70
     CG style diagonalization
     ethr =  8.47E-13,  avg # of iterations =  4.5

     negative rho (up, down):  3.750E-02 0.000E+00

     total cpu time spent up to now is    11763.1 secs

     End of self-consistent calculation

     Number of k-points >= 100: set verbosity='high' to print the bands.

     highest occupied level (ev):    69.8167

!    total energy              =    -367.33743615 Ry
     estimated scf accuracy    <          4.6E-11 Ry

     The total energy is the sum of the following terms:
     one-electron contribution =     174.80868519 Ry
     hartree contribution      =      19.08438149 Ry
     xc contribution           =    -114.33298929 Ry
     ewald contribution        =    -446.89751354 Ry

     convergence has been achieved in   5 iterations

     negative rho (up, down):  3.750E-02 0.000E+00

     Forces acting on atoms (cartesian axes, Ry/au):

     atom    1 type  1   force =     0.00005830   -0.00005830    0.00009692
     atom    2 type  2   force =     0.00007676   -0.00007676    0.00026291
     atom    3 type  3   force =    -0.00003007    0.00003007   -0.00023007
     atom    4 type  3   force =    -0.00007262    0.00003238   -0.00006487
     atom    5 type  3   force =    -0.00003238    0.00007262   -0.00006487

     Total force =     0.000416     Total SCF correction =     0.000012


     Computing stress (Cartesian axis) and pressure


     negative rho (up, down):  3.750E-02 0.000E+00
          total   stress  (Ry/bohr**3)                   (kbar)     P=    41598.51
   0.27111738   0.03244903   0.00000060        39882.74     4773.42        0.09
   0.03244903   0.27111738  -0.00000060         4773.42    39882.74       -0.09
   0.00000060  -0.00000060   0.30610801            0.09       -0.09    45030.04

     Energy error            =      5.2E-07 Ry
     Gradient error          =      2.6E-04 Ry/Bohr

     bfgs converged in  35 scf cycles and  23 bfgs steps
     (criteria: energy <  1.0E-04 Ry, force <  1.0E-03 Ry/Bohr)

     End of BFGS Geometry Optimization

     Final energy             =    -367.3374361505 Ry

     File ./PTO.bfgs deleted, as requested
Begin final coordinates

ATOMIC_POSITIONS (crystal)
Pb            0.0047585112        0.0047585112        0.9686987765
Ti            0.5770149204        0.5770149204        0.3964537399
O             0.2941940089        0.2941940089        0.1792594152
O             0.6237612106        0.0002713489        0.6614361782
O             0.0002713489        0.6237612106        0.6614361782
End final coordinates



     Writing all to output data dir ./PTO.save/
 
     init_run     :      6.83s CPU      7.01s WALL (       1 calls)
     electrons    :  10526.33s CPU  11523.52s WALL (      35 calls)
     update_pot   :      5.13s CPU      5.37s WALL (      34 calls)
     forces       :     34.90s CPU     37.27s WALL (      35 calls)
     stress       :    177.98s CPU    180.14s WALL (      35 calls)

     Called by init_run:
     wfcinit      :      3.34s CPU      3.45s WALL (       1 calls)
     potinit      :      0.04s CPU      0.05s WALL (       1 calls)
     hinit0       :      3.23s CPU      3.25s WALL (       1 calls)

     Called by electrons:
     c_bands      :   9846.96s CPU  10808.55s WALL (     478 calls)
     sum_band     :    578.56s CPU    599.40s WALL (     478 calls)
     v_of_rho     :      7.50s CPU      7.76s WALL (     511 calls)
     newd         :     96.48s CPU    109.29s WALL (     511 calls)
     mix_rho      :      2.10s CPU      2.34s WALL (     478 calls)

     Called by c_bands:
     init_us_2    :    131.96s CPU    143.45s WALL (  125294 calls)
     init_us_2:cp :    128.47s CPU    141.21s WALL (  125294 calls)
     ccgdiagg     :   8865.29s CPU   9751.59s WALL (   61435 calls)
     wfcrot       :    903.01s CPU    935.15s WALL (   57043 calls)

     Called by *cgdiagg:
     h_psi        :   6639.18s CPU   7233.09s WALL ( 6571401 calls)
     s_psi        :   1230.85s CPU   1389.68s WALL (13085759 calls)

     Called by h_psi:
     h_psi:calbec :    892.93s CPU    962.99s WALL ( 6571401 calls)
     vloc_psi     :   4687.01s CPU   5123.09s WALL ( 6571401 calls)
     add_vuspsi   :    719.98s CPU    794.68s WALL ( 6571401 calls)
     hs_1psi      :   6835.62s CPU   7479.98s WALL ( 6514358 calls)
     s_1psi       :   1436.61s CPU   1582.28s WALL ( 6514358 calls)

     General routines
     calbec       :   1360.28s CPU   1534.94s WALL (13165425 calls)
     fft          :      4.13s CPU      4.27s WALL (    3312 calls)
     ffts         :      0.30s CPU      0.32s WALL (     989 calls)
     fftw         :   4272.95s CPU   4658.39s WALL (16823756 calls)
     interpolate  :      0.97s CPU      1.01s WALL (     511 calls)
 
     Parallel routines
 
     PWSCF        :      2h59m CPU      3h16m WALL

 
   This run was terminated on:   4:50:26   7Apr2022            

=------------------------------------------------------------------------------=
   JOB DONE.
=------------------------------------------------------------------------------=
