
     Program PWSCF v.7.0 starts on  7Apr2022 at  4:50:29 

     This program is part of the open-source Quantum ESPRESSO suite
     for quantum simulation of materials; please cite
         "P. Giannozzi et al., J. Phys.:Condens. Matter 21 395502 (2009);
         "P. Giannozzi et al., J. Phys.:Condens. Matter 29 465901 (2017);
         "P. Giannozzi et al., J. Chem. Phys. 152 154105 (2020);
          URL http://www.quantum-espresso.org", 
     in publications or presentations arising from this work. More details at
     http://www.quantum-espresso.org/quote

     Parallel version (MPI), running on     1 processors

     MPI processes distributed on     1 nodes
     91181 MiB available memory on the printing compute node when the environment starts
 
     Waiting for input...
     Reading input from standard input
Warning: card &CELL ignored
Warning: card  CELL_DYNAMICS = 'BFGS', ignored
Warning: card  PRESS=0.1D0, ignored
Warning: card / ignored

     Current dimensions of program PWSCF are:
     Max number of different atomic species (ntypx) = 10
     Max number of k-points (npk) =  40000
     Max angular momentum in pseudopotentials (lmaxx) =  4
     Message from routine setup:
     using ibrav=0 with symmetry is DISCOURAGED, use correct ibrav instead

     Subspace diagonalization in iterative solution of the eigenvalue problem:
     a serial algorithm will be used

 
     G-vector sticks info
     --------------------
     sticks:   dense  smooth     PW     G-vecs:    dense   smooth      PW
     Sum         917     365    121                18241     4621     925
 
     Using Slab Decomposition
 


     bravais-lattice index     =            0
     lattice parameter (alat)  =       7.2800  a.u.
     unit-cell volume          =      96.4466 (a.u.)^3
     number of atoms/cell      =            5
     number of atomic types    =            3
     number of electrons       =        44.00
     number of Kohn-Sham states=           22
     kinetic-energy cutoff     =      50.0000  Ry
     charge density cutoff     =     500.0000  Ry
     scf convergence threshold =      1.0E-08
     mixing beta               =       0.7000
     number of iterations used =            8  plain     mixing
     energy convergence thresh.=      1.0E-04
     force convergence thresh. =      1.0E-03
     Exchange-correlation= SLA  PZ   NOGX NOGC
                           (   1   1   0   0   0   0   0)
     nstep                     =           50


     celldm(1)=   7.280000  celldm(2)=   0.000000  celldm(3)=   1.050000
     celldm(4)=   0.000000  celldm(5)=   0.000000  celldm(6)=   0.000000

     crystal axes: (cart. coord. in units of alat)
               a(1) = (  -0.503000   0.000000   0.494000 )  
               a(2) = (   0.000000   0.503000   0.494000 )  
               a(3) = (  -0.503000   0.503000   0.000000 )  

     reciprocal axes: (cart. coord. in units 2 pi/alat)
               b(1) = ( -0.994036 -0.994036  1.012146 )  
               b(2) = (  0.994036  0.994036  1.012146 )  
               b(3) = ( -0.994036  0.994036 -1.012146 )  


     PseudoPot. # 1 for Pb read from file:
     ./Pb_LDA.UPF
     MD5 check sum: 062a37469794d955244864f8fe2e5624
     Pseudo is Ultrasoft + core correction, Zval = 14.0
     Generated by new atomic code, or converted to UPF format
     Using radial grid of  899 points,  6 beta functions with: 
                l(1) =   0
                l(2) =   0
                l(3) =   1
                l(4) =   1
                l(5) =   2
                l(6) =   2
     Q(r) pseudized with  6 coefficients,  rinner =    1.000   1.000   1.000
                                                       1.000   1.000

     PseudoPot. # 2 for Ti read from file:
     ./Ti_LDA.UPF
     MD5 check sum: 0d9f225c038fe889ca2a701dcc8d72cb
     Pseudo is Ultrasoft + core correction, Zval = 12.0
     Generated by new atomic code, or converted to UPF format
     Using radial grid of  851 points,  6 beta functions with: 
                l(1) =   0
                l(2) =   0
                l(3) =   1
                l(4) =   1
                l(5) =   2
                l(6) =   2
     Q(r) pseudized with  6 coefficients,  rinner =    1.000   1.000   1.000
                                                       1.000   1.000

     PseudoPot. # 3 for O  read from file:
     ./O_LDA.UPF
     MD5 check sum: 194b818514d2a7dbb603bb78519a4f40
     Pseudo is Ultrasoft + core correction, Zval =  6.0
     Generated by new atomic code, or converted to UPF format
     Using radial grid of  737 points,  5 beta functions with: 
                l(1) =   0
                l(2) =   0
                l(3) =   1
                l(4) =   1
                l(5) =   2
     Q(r) pseudized with  8 coefficients,  rinner =    0.900   0.900   0.900
                                                       0.900   0.900

     atomic species   valence    mass     pseudopotential
        Pb            14.00   207.20000     Pb( 1.00)
        Ti            12.00    47.88000     Ti( 1.00)
        O              6.00    16.00000     O ( 1.00)

      2 Sym. Ops. (no inversion) found



   Cartesian axes

     site n.     atom                  positions (alat units)
         1           Pb  tau(   1) = (  -0.5062305   0.5062305   0.0000000  )
         2           Ti  tau(   2) = (  -0.5233331   0.5233331   0.4940000  )
         3           O   tau(   3) = (  -0.3010859   0.3010859   0.4940000  )
         4           O   tau(   4) = (  -0.5587972   0.3072972   0.2470000  )
         5           O   tau(   5) = (  -0.3072972   0.5587972   0.2470000  )

     number of k points=   122

     Number of k-points >= 100: set verbosity='high' to print them.

     Dense  grid:    18241 G-vectors     FFT dimensions: (  40,  40,  40)

     Smooth grid:     4621 G-vectors     FFT dimensions: (  24,  24,  24)

     Estimated max dynamical RAM per process >      98.76 MB

     Initial potential from superposition of free atoms

     starting charge      42.9982, renormalised to      44.0000

     negative rho (up, down):  1.038E-02 0.000E+00
     Starting wfcs are   31 randomized atomic wfcs

     total cpu time spent up to now is        8.3 secs

     Self-consistent Calculation

     iteration #  1     ecut=    50.00 Ry     beta= 0.70
     CG style diagonalization
     ethr =  1.00E-02,  avg # of iterations =  3.0

     negative rho (up, down):  2.512E-02 0.000E+00

     total cpu time spent up to now is       22.3 secs

     total energy              =    -360.44554142 Ry
     estimated scf accuracy    <       4.89401860 Ry

     iteration #  2     ecut=    50.00 Ry     beta= 0.70
     CG style diagonalization
     ethr =  1.00E-02,  avg # of iterations =  4.4

     negative rho (up, down):  3.695E-02 0.000E+00

     total cpu time spent up to now is       39.8 secs

     total energy              =    -361.84215675 Ry
     estimated scf accuracy    <       1.98574320 Ry

     iteration #  3     ecut=    50.00 Ry     beta= 0.70
     CG style diagonalization
     ethr =  4.51E-03,  avg # of iterations =  4.0

     negative rho (up, down):  4.024E-02 0.000E+00

     total cpu time spent up to now is       56.6 secs

     total energy              =    -362.46487396 Ry
     estimated scf accuracy    <       0.09216119 Ry

     iteration #  4     ecut=    50.00 Ry     beta= 0.70
     CG style diagonalization
     c_bands:  1 eigenvalues not converged
     c_bands:  1 eigenvalues not converged
     c_bands:  1 eigenvalues not converged
     c_bands:  1 eigenvalues not converged
     c_bands:  1 eigenvalues not converged
     c_bands:  1 eigenvalues not converged
     c_bands:  1 eigenvalues not converged
     c_bands:  1 eigenvalues not converged
     ethr =  2.09E-04,  avg # of iterations =  4.8

     negative rho (up, down):  4.300E-02 0.000E+00

     total cpu time spent up to now is       75.6 secs

     total energy              =    -362.53932021 Ry
     estimated scf accuracy    <       0.02604875 Ry

     iteration #  5     ecut=    50.00 Ry     beta= 0.70
     CG style diagonalization
     c_bands:  1 eigenvalues not converged
     ethr =  5.92E-05,  avg # of iterations =  4.7

     negative rho (up, down):  4.300E-02 0.000E+00

     total cpu time spent up to now is       94.4 secs

     total energy              =    -362.55207393 Ry
     estimated scf accuracy    <       0.00314889 Ry

     iteration #  6     ecut=    50.00 Ry     beta= 0.70
     CG style diagonalization
     c_bands:  1 eigenvalues not converged
     c_bands:  1 eigenvalues not converged
     ethr =  7.16E-06,  avg # of iterations =  6.0

     negative rho (up, down):  4.300E-02 0.000E+00

     total cpu time spent up to now is      118.4 secs

     total energy              =    -362.55565186 Ry
     estimated scf accuracy    <       0.00031252 Ry

     iteration #  7     ecut=    50.00 Ry     beta= 0.70
     CG style diagonalization
     c_bands:  1 eigenvalues not converged
     c_bands:  1 eigenvalues not converged
     ethr =  7.10E-07,  avg # of iterations =  6.8

     negative rho (up, down):  4.287E-02 0.000E+00

     total cpu time spent up to now is      146.5 secs

     total energy              =    -362.55615960 Ry
     estimated scf accuracy    <       0.00004589 Ry

     iteration #  8     ecut=    50.00 Ry     beta= 0.70
     CG style diagonalization
     c_bands:  1 eigenvalues not converged
     c_bands:  1 eigenvalues not converged
     ethr =  1.04E-07,  avg # of iterations =  6.6

     negative rho (up, down):  4.276E-02 0.000E+00

     total cpu time spent up to now is      172.8 secs

     total energy              =    -362.55635157 Ry
     estimated scf accuracy    <       0.00001604 Ry

     iteration #  9     ecut=    50.00 Ry     beta= 0.70
     CG style diagonalization
     c_bands:  1 eigenvalues not converged
     c_bands:  1 eigenvalues not converged
     ethr =  3.65E-08,  avg # of iterations =  5.2

     negative rho (up, down):  4.269E-02 0.000E+00

     total cpu time spent up to now is      193.5 secs

     total energy              =    -362.55636239 Ry
     estimated scf accuracy    <       0.00000292 Ry

     iteration # 10     ecut=    50.00 Ry     beta= 0.70
     CG style diagonalization
     c_bands:  1 eigenvalues not converged
     ethr =  6.64E-09,  avg # of iterations =  6.2

     negative rho (up, down):  4.263E-02 0.000E+00

     total cpu time spent up to now is      218.6 secs

     total energy              =    -362.55636535 Ry
     estimated scf accuracy    <       0.00000099 Ry

     iteration # 11     ecut=    50.00 Ry     beta= 0.70
     CG style diagonalization
     c_bands:  1 eigenvalues not converged
     ethr =  2.25E-09,  avg # of iterations =  5.2

     negative rho (up, down):  4.263E-02 0.000E+00

     total cpu time spent up to now is      239.4 secs

     total energy              =    -362.55636608 Ry
     estimated scf accuracy    <       0.00000003 Ry

     iteration # 12     ecut=    50.00 Ry     beta= 0.70
     CG style diagonalization
     c_bands:  1 eigenvalues not converged
     c_bands:  1 eigenvalues not converged
     c_bands:  1 eigenvalues not converged
     c_bands:  1 eigenvalues not converged
     c_bands:  1 eigenvalues not converged
     c_bands:  1 eigenvalues not converged
     ethr =  7.37E-11,  avg # of iterations =  9.3

     negative rho (up, down):  4.262E-02 0.000E+00

     total cpu time spent up to now is      276.7 secs

     total energy              =    -362.55637120 Ry
     estimated scf accuracy    <       0.00000297 Ry

     iteration # 13     ecut=    50.00 Ry     beta= 0.70
     CG style diagonalization
     c_bands:  1 eigenvalues not converged
     c_bands:  1 eigenvalues not converged
     ethr =  7.37E-11,  avg # of iterations =  3.5

     negative rho (up, down):  4.262E-02 0.000E+00

     total cpu time spent up to now is      290.4 secs

     total energy              =    -362.55641056 Ry
     estimated scf accuracy    <       0.00000263 Ry

     iteration # 14     ecut=    50.00 Ry     beta= 0.70
     CG style diagonalization
     c_bands:  1 eigenvalues not converged
     c_bands:  1 eigenvalues not converged
     ethr =  7.37E-11,  avg # of iterations =  4.5

     negative rho (up, down):  4.262E-02 0.000E+00

     total cpu time spent up to now is      308.1 secs

     total energy              =    -362.55640996 Ry
     estimated scf accuracy    <       0.00000178 Ry

     iteration # 15     ecut=    50.00 Ry     beta= 0.70
     CG style diagonalization
     c_bands:  1 eigenvalues not converged
     c_bands:  1 eigenvalues not converged
     c_bands:  1 eigenvalues not converged
     c_bands:  1 eigenvalues not converged
     ethr =  7.37E-11,  avg # of iterations =  5.5

     negative rho (up, down):  4.262E-02 0.000E+00

     total cpu time spent up to now is      330.0 secs

     total energy              =    -362.55640988 Ry
     estimated scf accuracy    <       0.00000043 Ry

     iteration # 16     ecut=    50.00 Ry     beta= 0.70
     CG style diagonalization
     c_bands:  1 eigenvalues not converged
     c_bands:  1 eigenvalues not converged
     ethr =  7.37E-11,  avg # of iterations =  4.7

     negative rho (up, down):  4.262E-02 0.000E+00

     total cpu time spent up to now is      348.6 secs

     total energy              =    -362.55640986 Ry
     estimated scf accuracy    <       0.00000010 Ry

     iteration # 17     ecut=    50.00 Ry     beta= 0.70
     CG style diagonalization
     c_bands:  1 eigenvalues not converged
     ethr =  7.37E-11,  avg # of iterations =  3.7

     negative rho (up, down):  4.262E-02 0.000E+00

     total cpu time spent up to now is      363.3 secs

     total energy              =    -362.55640985 Ry
     estimated scf accuracy    <       0.00000001 Ry

     iteration # 18     ecut=    50.00 Ry     beta= 0.70
     CG style diagonalization
     c_bands:  1 eigenvalues not converged
     c_bands:  1 eigenvalues not converged
     ethr =  3.32E-11,  avg # of iterations =  4.0

     negative rho (up, down):  4.262E-02 0.000E+00

     total cpu time spent up to now is      379.2 secs

     End of self-consistent calculation

     Number of k-points >= 100: set verbosity='high' to print the bands.

     highest occupied level (ev):    65.0543

!    total energy              =    -362.55640986 Ry
     estimated scf accuracy    <          1.2E-10 Ry

     The total energy is the sum of the following terms:
     one-electron contribution =     140.13741701 Ry
     hartree contribution      =      35.39550103 Ry
     xc contribution           =    -115.49051102 Ry
     ewald contribution        =    -422.59881689 Ry

     convergence has been achieved in  18 iterations

     negative rho (up, down):  4.262E-02 0.000E+00

     Forces acting on atoms (cartesian axes, Ry/au):

     atom    1 type  1   force =    -0.48996835    0.48996835   -4.99516935
     atom    2 type  2   force =    -1.53118821    1.53118821    1.75441335
     atom    3 type  3   force =     0.65130322   -0.65130322   -0.13070200
     atom    4 type  3   force =    -0.98108648   -2.35093983    1.68572900
     atom    5 type  3   force =     2.35093983    0.98108648    1.68572900

     Total force =     7.261311     Total SCF correction =     0.000013


     Computing stress (Cartesian axis) and pressure


     negative rho (up, down):  4.262E-02 0.000E+00
          total   stress  (Ry/bohr**3)                   (kbar)     P=    51612.36
   0.34360842   0.05405685   0.03892033        50546.54     7952.04     5725.38
   0.05405685   0.34360842  -0.03892033         7952.04    50546.54    -5725.38
   0.03892033  -0.03892033   0.36534415         5725.38    -5725.38    53743.98


     BFGS Geometry Optimization
     Energy error            =      0.0E+00 Ry
     Gradient error          =      5.0E+00 Ry/Bohr

     number of scf cycles    =   1
     number of bfgs steps    =   0

     energy             new  =    -362.5564098585 Ry

     new trust radius        =       0.5000000000 bohr
     new conv_thr            =       0.0000000100 Ry


ATOMIC_POSITIONS (crystal)
Pb           -0.0688561727       -0.0688561727        1.0885449758
Ti            0.5241838024        0.5241838024        0.5576980714
O             0.4981983314        0.4981983314        0.0827474008
O             0.5683456921       -0.0218716532        0.5691469200
O            -0.0218716532        0.5683456921        0.5691469200



     Writing config-only to output data dir ./PTO.save/
     NEW-OLD atomic charge density approx. for the potential

     negative rho (up, down):  1.159E-02 0.000E+00

     total cpu time spent up to now is      385.9 secs

     Self-consistent Calculation

     iteration #  1     ecut=    50.00 Ry     beta= 0.70
     CG style diagonalization
     c_bands:  1 eigenvalues not converged
     c_bands:  3 eigenvalues not converged
     c_bands:  1 eigenvalues not converged
     c_bands:  1 eigenvalues not converged
     ethr =  1.00E-06,  avg # of iterations = 28.0

     negative rho (up, down):  3.031E-02 0.000E+00

     total cpu time spent up to now is      495.2 secs

     total energy              =    -361.82265759 Ry
     estimated scf accuracy    <       0.61711710 Ry

     iteration #  2     ecut=    50.00 Ry     beta= 0.70
     CG style diagonalization
     ethr =  1.40E-03,  avg # of iterations =  4.0

     negative rho (up, down):  3.434E-02 0.000E+00

     total cpu time spent up to now is      511.1 secs

     total energy              =    -361.92942885 Ry
     estimated scf accuracy    <       0.10400420 Ry

     iteration #  3     ecut=    50.00 Ry     beta= 0.70
     CG style diagonalization
     ethr =  2.36E-04,  avg # of iterations =  4.1

     negative rho (up, down):  3.840E-02 0.000E+00

     total cpu time spent up to now is      527.6 secs

     total energy              =    -361.98314857 Ry
     estimated scf accuracy    <       0.01116801 Ry

     iteration #  4     ecut=    50.00 Ry     beta= 0.70
     CG style diagonalization
     c_bands:  1 eigenvalues not converged
     ethr =  2.54E-05,  avg # of iterations =  5.6

     negative rho (up, down):  4.013E-02 0.000E+00

     total cpu time spent up to now is      550.0 secs

     total energy              =    -361.99257452 Ry
     estimated scf accuracy    <       0.00280280 Ry

     iteration #  5     ecut=    50.00 Ry     beta= 0.70
     CG style diagonalization
     ethr =  6.37E-06,  avg # of iterations =  4.7

     negative rho (up, down):  4.138E-02 0.000E+00

     total cpu time spent up to now is      568.9 secs

     total energy              =    -361.99374477 Ry
     estimated scf accuracy    <       0.00091485 Ry

     iteration #  6     ecut=    50.00 Ry     beta= 0.70
     CG style diagonalization
     ethr =  2.08E-06,  avg # of iterations =  4.5

     negative rho (up, down):  4.220E-02 0.000E+00

     total cpu time spent up to now is      587.0 secs

     total energy              =    -361.99408854 Ry
     estimated scf accuracy    <       0.00009975 Ry

     iteration #  7     ecut=    50.00 Ry     beta= 0.70
     CG style diagonalization
     ethr =  2.27E-07,  avg # of iterations =  6.7

     negative rho (up, down):  4.239E-02 0.000E+00

     total cpu time spent up to now is      614.2 secs

     total energy              =    -361.99422101 Ry
     estimated scf accuracy    <       0.00002522 Ry

     iteration #  8     ecut=    50.00 Ry     beta= 0.70
     CG style diagonalization
     c_bands:  1 eigenvalues not converged
     ethr =  5.73E-08,  avg # of iterations =  5.1

     negative rho (up, down):  4.265E-02 0.000E+00

     total cpu time spent up to now is      634.6 secs

     total energy              =    -361.99423599 Ry
     estimated scf accuracy    <       0.00000262 Ry

     iteration #  9     ecut=    50.00 Ry     beta= 0.70
     CG style diagonalization
     c_bands:  1 eigenvalues not converged
     ethr =  5.96E-09,  avg # of iterations =  6.5

     negative rho (up, down):  4.265E-02 0.000E+00

     total cpu time spent up to now is      660.5 secs

     total energy              =    -361.99440220 Ry
     estimated scf accuracy    <       0.00000264 Ry

     iteration # 10     ecut=    50.00 Ry     beta= 0.70
     CG style diagonalization
     c_bands:  1 eigenvalues not converged
     ethr =  5.96E-09,  avg # of iterations =  3.3

     negative rho (up, down):  4.268E-02 0.000E+00

     total cpu time spent up to now is      673.6 secs

     total energy              =    -361.99440759 Ry
     estimated scf accuracy    <       0.00000109 Ry

     iteration # 11     ecut=    50.00 Ry     beta= 0.70
     CG style diagonalization
     c_bands:  1 eigenvalues not converged
     ethr =  2.47E-09,  avg # of iterations =  4.4

     negative rho (up, down):  4.268E-02 0.000E+00

     total cpu time spent up to now is      691.0 secs

     total energy              =    -361.99440808 Ry
     estimated scf accuracy    <       0.00000021 Ry

     iteration # 12     ecut=    50.00 Ry     beta= 0.70
     CG style diagonalization
     c_bands:  1 eigenvalues not converged
     c_bands:  1 eigenvalues not converged
     c_bands:  1 eigenvalues not converged
     ethr =  4.82E-10,  avg # of iterations =  5.7

     negative rho (up, down):  4.268E-02 0.000E+00

     total cpu time spent up to now is      713.6 secs

     total energy              =    -361.99787630 Ry
     estimated scf accuracy    <       0.00009253 Ry

     iteration # 13     ecut=    50.00 Ry     beta= 0.70
     CG style diagonalization
     c_bands:  1 eigenvalues not converged
     ethr =  4.82E-10,  avg # of iterations =  3.2

     negative rho (up, down):  4.268E-02 0.000E+00

     total cpu time spent up to now is      726.3 secs

     total energy              =    -361.99787870 Ry
     estimated scf accuracy    <       0.00009226 Ry

     iteration # 14     ecut=    50.00 Ry     beta= 0.70
     CG style diagonalization
     ethr =  4.82E-10,  avg # of iterations =  3.0

     negative rho (up, down):  4.268E-02 0.000E+00

     total cpu time spent up to now is      738.2 secs

     total energy              =    -361.99787804 Ry
     estimated scf accuracy    <       0.00009410 Ry

     iteration # 15     ecut=    50.00 Ry     beta= 0.70
     CG style diagonalization
     ethr =  4.82E-10,  avg # of iterations =  3.0

     negative rho (up, down):  4.268E-02 0.000E+00

     total cpu time spent up to now is      750.1 secs

     total energy              =    -361.99787146 Ry
     estimated scf accuracy    <       0.00009267 Ry

     iteration # 16     ecut=    50.00 Ry     beta= 0.70
     CG style diagonalization
     c_bands:  1 eigenvalues not converged
     ethr =  4.82E-10,  avg # of iterations =  4.6

     negative rho (up, down):  4.267E-02 0.000E+00

     total cpu time spent up to now is      768.2 secs

     total energy              =    -361.99814210 Ry
     estimated scf accuracy    <       0.00009579 Ry

     iteration # 17     ecut=    50.00 Ry     beta= 0.70
     CG style diagonalization
     c_bands:  1 eigenvalues not converged
     ethr =  4.82E-10,  avg # of iterations =  4.0

     negative rho (up, down):  4.267E-02 0.000E+00

     total cpu time spent up to now is      784.0 secs

     total energy              =    -361.99815472 Ry
     estimated scf accuracy    <       0.00010662 Ry

     iteration # 18     ecut=    50.00 Ry     beta= 0.70
     CG style diagonalization
     c_bands:  1 eigenvalues not converged
     c_bands:  1 eigenvalues not converged
     ethr =  4.82E-10,  avg # of iterations =  3.2

     negative rho (up, down):  4.268E-02 0.000E+00

     total cpu time spent up to now is      796.5 secs

     total energy              =    -361.99894282 Ry
     estimated scf accuracy    <       0.00019324 Ry

     iteration # 19     ecut=    50.00 Ry     beta= 0.70
     CG style diagonalization
     c_bands:  1 eigenvalues not converged
     c_bands:  1 eigenvalues not converged
     ethr =  4.82E-10,  avg # of iterations =  3.6

     negative rho (up, down):  4.268E-02 0.000E+00

     total cpu time spent up to now is      810.9 secs

     total energy              =    -362.00174443 Ry
     estimated scf accuracy    <       0.00057974 Ry

     iteration # 20     ecut=    50.00 Ry     beta= 0.70
     CG style diagonalization
     c_bands:  1 eigenvalues not converged
     ethr =  4.82E-10,  avg # of iterations =  3.0

     negative rho (up, down):  4.272E-02 0.000E+00

     total cpu time spent up to now is      822.8 secs

     total energy              =    -362.00166093 Ry
     estimated scf accuracy    <       0.00058184 Ry

     iteration # 21     ecut=    50.00 Ry     beta= 0.70
     CG style diagonalization
     c_bands:  1 eigenvalues not converged
     c_bands:  1 eigenvalues not converged
     c_bands:  1 eigenvalues not converged
     c_bands:  1 eigenvalues not converged
     c_bands:  1 eigenvalues not converged
     c_bands:  1 eigenvalues not converged
     c_bands:  1 eigenvalues not converged
     c_bands:  1 eigenvalues not converged
     c_bands:  1 eigenvalues not converged
     c_bands:  1 eigenvalues not converged
     c_bands:  1 eigenvalues not converged
     c_bands:  1 eigenvalues not converged
     c_bands:  1 eigenvalues not converged
     c_bands:  1 eigenvalues not converged
     ethr =  4.82E-10,  avg # of iterations =  9.6

     negative rho (up, down):  4.272E-02 0.000E+00

     total cpu time spent up to now is      861.0 secs

     total energy              =    -362.00167796 Ry
     estimated scf accuracy    <       0.00036068 Ry

     iteration # 22     ecut=    50.00 Ry     beta= 0.70
     CG style diagonalization
     ethr =  4.82E-10,  avg # of iterations =  5.8

     negative rho (up, down):  4.271E-02 0.000E+00

     total cpu time spent up to now is      884.2 secs

     total energy              =    -362.00168263 Ry
     estimated scf accuracy    <       0.00037149 Ry

     iteration # 23     ecut=    50.00 Ry     beta= 0.70
     CG style diagonalization
     ethr =  4.82E-10,  avg # of iterations =  4.2

     negative rho (up, down):  4.271E-02 0.000E+00

     total cpu time spent up to now is      900.6 secs

     total energy              =    -362.00168425 Ry
     estimated scf accuracy    <       0.00038292 Ry

     iteration # 24     ecut=    50.00 Ry     beta= 0.70
     CG style diagonalization
     ethr =  4.82E-10,  avg # of iterations =  3.4

     negative rho (up, down):  4.270E-02 0.000E+00

     total cpu time spent up to now is      914.1 secs

     total energy              =    -362.00168513 Ry
     estimated scf accuracy    <       0.00038772 Ry

     iteration # 25     ecut=    50.00 Ry     beta= 0.70
     CG style diagonalization
     c_bands:  1 eigenvalues not converged
     ethr =  4.82E-10,  avg # of iterations =  5.7

     negative rho (up, down):  4.271E-02 0.000E+00

     total cpu time spent up to now is      936.9 secs

     total energy              =    -362.00168208 Ry
     estimated scf accuracy    <       0.00040566 Ry

     iteration # 26     ecut=    50.00 Ry     beta= 0.70
     CG style diagonalization
     ethr =  4.82E-10,  avg # of iterations =  4.1

     negative rho (up, down):  4.273E-02 0.000E+00

     total cpu time spent up to now is      953.4 secs

     total energy              =    -362.00166288 Ry
     estimated scf accuracy    <       0.00039572 Ry

     iteration # 27     ecut=    50.00 Ry     beta= 0.70
     CG style diagonalization
     c_bands:  1 eigenvalues not converged
     c_bands:  1 eigenvalues not converged
     c_bands:  1 eigenvalues not converged
     ethr =  4.82E-10,  avg # of iterations =  7.8

     negative rho (up, down):  4.262E-02 0.000E+00

     total cpu time spent up to now is      984.7 secs

     total energy              =    -362.00159580 Ry
     estimated scf accuracy    <       0.00032795 Ry

     iteration # 28     ecut=    50.00 Ry     beta= 0.70
     CG style diagonalization
     c_bands:  1 eigenvalues not converged
     c_bands:  1 eigenvalues not converged
     c_bands:  1 eigenvalues not converged
     c_bands:  1 eigenvalues not converged
     c_bands:  1 eigenvalues not converged
     c_bands:  1 eigenvalues not converged
     c_bands:  1 eigenvalues not converged
     c_bands:  1 eigenvalues not converged
     c_bands:  1 eigenvalues not converged
     c_bands:  1 eigenvalues not converged
     c_bands:  1 eigenvalues not converged
     c_bands:  1 eigenvalues not converged
     c_bands:  1 eigenvalues not converged
     c_bands:  1 eigenvalues not converged
     c_bands:  1 eigenvalues not converged
     c_bands:  1 eigenvalues not converged
     c_bands:  1 eigenvalues not converged
     c_bands:  1 eigenvalues not converged
     ethr =  4.82E-10,  avg # of iterations = 10.0

     negative rho (up, down):  4.274E-02 0.000E+00

     total cpu time spent up to now is     1025.1 secs

     total energy              =    -362.00153344 Ry
     estimated scf accuracy    <       0.00014011 Ry

     iteration # 29     ecut=    50.00 Ry     beta= 0.70
     CG style diagonalization
     c_bands:  1 eigenvalues not converged
     c_bands:  1 eigenvalues not converged
     c_bands:  1 eigenvalues not converged
     c_bands:  1 eigenvalues not converged
     c_bands:  1 eigenvalues not converged
     c_bands:  1 eigenvalues not converged
     c_bands:  1 eigenvalues not converged
     c_bands:  1 eigenvalues not converged
     c_bands:  1 eigenvalues not converged
     c_bands:  1 eigenvalues not converged
     c_bands:  1 eigenvalues not converged
     c_bands:  1 eigenvalues not converged
     c_bands:  1 eigenvalues not converged
     c_bands:  1 eigenvalues not converged
     c_bands:  1 eigenvalues not converged
     c_bands:  1 eigenvalues not converged
     c_bands:  1 eigenvalues not converged
     c_bands:  1 eigenvalues not converged
     c_bands:  1 eigenvalues not converged
     c_bands:  2 eigenvalues not converged
     c_bands:  1 eigenvalues not converged
     c_bands:  1 eigenvalues not converged
     c_bands:  1 eigenvalues not converged
     c_bands:  1 eigenvalues not converged
     c_bands:  1 eigenvalues not converged
     c_bands:  1 eigenvalues not converged
     c_bands:  1 eigenvalues not converged
     c_bands:  1 eigenvalues not converged
     c_bands:  1 eigenvalues not converged
     ethr =  4.82E-10,  avg # of iterations = 10.1

     negative rho (up, down):  4.273E-02 0.000E+00

     total cpu time spent up to now is     1065.6 secs

     total energy              =    -362.00155752 Ry
     estimated scf accuracy    <       0.00001097 Ry

     iteration # 30     ecut=    50.00 Ry     beta= 0.70
     CG style diagonalization
     c_bands:  1 eigenvalues not converged
     c_bands:  1 eigenvalues not converged
     c_bands:  1 eigenvalues not converged
     c_bands:  1 eigenvalues not converged
     ethr =  4.82E-10,  avg # of iterations =  7.1

     negative rho (up, down):  4.273E-02 0.000E+00

     total cpu time spent up to now is     1093.7 secs

     total energy              =    -362.00155961 Ry
     estimated scf accuracy    <       0.00000033 Ry

     iteration # 31     ecut=    50.00 Ry     beta= 0.70
     CG style diagonalization
     ethr =  4.82E-10,  avg # of iterations =  3.9

     negative rho (up, down):  4.273E-02 0.000E+00

     total cpu time spent up to now is     1109.4 secs

     total energy              =    -362.00155970 Ry
     estimated scf accuracy    <       0.00000001 Ry

     iteration # 32     ecut=    50.00 Ry     beta= 0.70
     CG style diagonalization
     c_bands:  1 eigenvalues not converged
     ethr =  3.01E-11,  avg # of iterations =  5.7

     negative rho (up, down):  4.273E-02 0.000E+00

     total cpu time spent up to now is     1132.0 secs

     End of self-consistent calculation

     Number of k-points >= 100: set verbosity='high' to print the bands.

     highest occupied level (ev):    64.5605

!    total energy              =    -362.00155971 Ry
     estimated scf accuracy    <          2.4E-09 Ry

     The total energy is the sum of the following terms:
     one-electron contribution =     135.42122911 Ry
     hartree contribution      =      37.27757384 Ry
     xc contribution           =    -115.70210905 Ry
     ewald contribution        =    -418.99825360 Ry

     convergence has been achieved in  32 iterations

     negative rho (up, down):  4.273E-02 0.000E+00

     Forces acting on atoms (cartesian axes, Ry/au):

     atom    1 type  1   force =     4.86438889   -4.86438889    4.81516515
     atom    2 type  2   force =     0.57187366   -0.57187366   -2.77044763
     atom    3 type  3   force =    -0.34353691    0.34353691    0.24850872
     atom    4 type  3   force =    -0.47216246    4.62056318   -1.14661312
     atom    5 type  3   force =    -4.62056318    0.47216246   -1.14661312

     Total force =    11.176410     Total SCF correction =     0.000116


     Computing stress (Cartesian axis) and pressure


     negative rho (up, down):  4.273E-02 0.000E+00
          total   stress  (Ry/bohr**3)                   (kbar)     P=    52751.42
   0.36035408   0.00079520   0.05778611        53009.92      116.98     8500.63
   0.00079520   0.36035408  -0.05778611          116.98    53009.92    -8500.63
   0.05778611  -0.05778611   0.35508248         8500.63    -8500.63    52234.44

     Energy error            =      5.5E-01 Ry
     Gradient error          =      4.9E+00 Ry/Bohr

     number of scf cycles    =   2
     number of bfgs steps    =   1

     energy             old  =    -362.5564098585 Ry
     energy             new  =    -362.0015597097 Ry

     CASE: energy            _new > energy            _old

     new trust radius        =       0.2260118930 bohr
     new conv_thr            =       0.0000000100 Ry


ATOMIC_POSITIONS (crystal)
Pb           -0.0311246279       -0.0311246279        1.0435438168
Ti            0.5109316539        0.5109316539        0.5482321251
O             0.4991856029        0.4991856029        0.0914234535
O             0.5308938785       -0.0098865075        0.5920424463
O            -0.0098865075        0.5308938785        0.5920424463



     Writing config-only to output data dir ./PTO.save/
     NEW-OLD atomic charge density approx. for the potential

     negative rho (up, down):  3.318E-02 0.000E+00

     total cpu time spent up to now is     1138.6 secs

     Self-consistent Calculation

     iteration #  1     ecut=    50.00 Ry     beta= 0.70
     CG style diagonalization
     c_bands:  1 eigenvalues not converged
     c_bands:  5 eigenvalues not converged
     c_bands:  1 eigenvalues not converged
     c_bands:  1 eigenvalues not converged
     c_bands:  1 eigenvalues not converged
     c_bands:  1 eigenvalues not converged
     ethr =  1.00E-06,  avg # of iterations = 24.6

     negative rho (up, down):  3.868E-02 0.000E+00

     total cpu time spent up to now is     1235.5 secs

     total energy              =    -363.63500363 Ry
     estimated scf accuracy    <       0.19333552 Ry

     iteration #  2     ecut=    50.00 Ry     beta= 0.70
     CG style diagonalization
     ethr =  4.39E-04,  avg # of iterations =  3.9

     negative rho (up, down):  4.119E-02 0.000E+00

     total cpu time spent up to now is     1251.2 secs

     total energy              =    -363.66456507 Ry
     estimated scf accuracy    <       0.02864695 Ry

     iteration #  3     ecut=    50.00 Ry     beta= 0.70
     CG style diagonalization
     ethr =  6.51E-05,  avg # of iterations =  4.4

     negative rho (up, down):  4.247E-02 0.000E+00

     total cpu time spent up to now is     1269.1 secs

     total energy              =    -363.68058074 Ry
     estimated scf accuracy    <       0.00514270 Ry

     iteration #  4     ecut=    50.00 Ry     beta= 0.70
     CG style diagonalization
     ethr =  1.17E-05,  avg # of iterations =  5.0

     negative rho (up, down):  4.289E-02 0.000E+00

     total cpu time spent up to now is     1289.0 secs

     total energy              =    -363.68323742 Ry
     estimated scf accuracy    <       0.00223382 Ry

     iteration #  5     ecut=    50.00 Ry     beta= 0.70
     CG style diagonalization
     ethr =  5.08E-06,  avg # of iterations =  4.3

     negative rho (up, down):  4.320E-02 0.000E+00

     total cpu time spent up to now is     1306.1 secs

     total energy              =    -363.68401187 Ry
     estimated scf accuracy    <       0.00028303 Ry

     iteration #  6     ecut=    50.00 Ry     beta= 0.70
     CG style diagonalization
     ethr =  6.43E-07,  avg # of iterations =  5.1

     negative rho (up, down):  4.325E-02 0.000E+00

     total cpu time spent up to now is     1326.3 secs

     total energy              =    -363.68420507 Ry
     estimated scf accuracy    <       0.00001457 Ry

     iteration #  7     ecut=    50.00 Ry     beta= 0.70
     CG style diagonalization
     c_bands:  1 eigenvalues not converged
     c_bands:  1 eigenvalues not converged
     c_bands:  1 eigenvalues not converged
     c_bands:  1 eigenvalues not converged
     c_bands:  1 eigenvalues not converged
     ethr =  3.31E-08,  avg # of iterations =  7.9

     negative rho (up, down):  4.326E-02 0.000E+00

     total cpu time spent up to now is     1357.8 secs

     total energy              =    -363.68492453 Ry
     estimated scf accuracy    <       0.00000856 Ry

     iteration #  8     ecut=    50.00 Ry     beta= 0.70
     CG style diagonalization
     c_bands:  1 eigenvalues not converged
     ethr =  1.95E-08,  avg # of iterations =  4.1

     negative rho (up, down):  4.325E-02 0.000E+00

     total cpu time spent up to now is     1374.2 secs

     total energy              =    -363.68496620 Ry
     estimated scf accuracy    <       0.00000070 Ry

     iteration #  9     ecut=    50.00 Ry     beta= 0.70
     CG style diagonalization
     c_bands:  1 eigenvalues not converged
     c_bands:  1 eigenvalues not converged
     c_bands:  1 eigenvalues not converged
     c_bands:  1 eigenvalues not converged
     c_bands:  1 eigenvalues not converged
     ethr =  1.60E-09,  avg # of iterations =  7.5

     negative rho (up, down):  4.326E-02 0.000E+00

     total cpu time spent up to now is     1404.1 secs

     total energy              =    -363.68607402 Ry
     estimated scf accuracy    <       0.00001261 Ry

     iteration # 10     ecut=    50.00 Ry     beta= 0.70
     CG style diagonalization
     c_bands:  1 eigenvalues not converged
     ethr =  1.60E-09,  avg # of iterations =  3.4

     negative rho (up, down):  4.321E-02 0.000E+00

     total cpu time spent up to now is     1417.4 secs

     total energy              =    -363.68609659 Ry
     estimated scf accuracy    <       0.00001441 Ry

     iteration # 11     ecut=    50.00 Ry     beta= 0.70
     CG style diagonalization
     c_bands:  1 eigenvalues not converged
     c_bands:  1 eigenvalues not converged
     ethr =  1.60E-09,  avg # of iterations =  4.8

     negative rho (up, down):  4.320E-02 0.000E+00

     total cpu time spent up to now is     1436.6 secs

     total energy              =    -363.68609607 Ry
     estimated scf accuracy    <       0.00000300 Ry

     iteration # 12     ecut=    50.00 Ry     beta= 0.70
     CG style diagonalization
     ethr =  1.60E-09,  avg # of iterations =  4.4

     negative rho (up, down):  4.321E-02 0.000E+00

     total cpu time spent up to now is     1454.1 secs

     total energy              =    -363.68609619 Ry
     estimated scf accuracy    <       0.00000039 Ry

     iteration # 13     ecut=    50.00 Ry     beta= 0.70
     CG style diagonalization
     ethr =  8.87E-10,  avg # of iterations =  3.3

     negative rho (up, down):  4.323E-02 0.000E+00

     total cpu time spent up to now is     1467.3 secs

     total energy              =    -363.68609614 Ry
     estimated scf accuracy    <       0.00000022 Ry

     iteration # 14     ecut=    50.00 Ry     beta= 0.70
     CG style diagonalization
     ethr =  5.06E-10,  avg # of iterations =  3.5

     negative rho (up, down):  4.323E-02 0.000E+00

     total cpu time spent up to now is     1481.7 secs

     total energy              =    -363.68609616 Ry
     estimated scf accuracy    <       0.00000003 Ry

     iteration # 15     ecut=    50.00 Ry     beta= 0.70
     CG style diagonalization
     c_bands:  1 eigenvalues not converged
     c_bands:  1 eigenvalues not converged
     ethr =  6.32E-11,  avg # of iterations =  6.2

     negative rho (up, down):  4.323E-02 0.000E+00

     total cpu time spent up to now is     1506.7 secs

     total energy              =    -363.68675658 Ry
     estimated scf accuracy    <       0.00004115 Ry

     iteration # 16     ecut=    50.00 Ry     beta= 0.70
     CG style diagonalization
     c_bands:  1 eigenvalues not converged
     ethr =  6.32E-11,  avg # of iterations =  3.6

     negative rho (up, down):  4.323E-02 0.000E+00

     total cpu time spent up to now is     1521.0 secs

     total energy              =    -363.68685115 Ry
     estimated scf accuracy    <       0.00004164 Ry

     iteration # 17     ecut=    50.00 Ry     beta= 0.70
     CG style diagonalization
     c_bands:  1 eigenvalues not converged
     ethr =  6.32E-11,  avg # of iterations =  3.1

     negative rho (up, down):  4.323E-02 0.000E+00

     total cpu time spent up to now is     1533.0 secs

     total energy              =    -363.68685137 Ry
     estimated scf accuracy    <       0.00004182 Ry

     iteration # 18     ecut=    50.00 Ry     beta= 0.70
     CG style diagonalization
     ethr =  6.32E-11,  avg # of iterations =  3.0

     negative rho (up, down):  4.322E-02 0.000E+00

     total cpu time spent up to now is     1544.8 secs

     total energy              =    -363.68685134 Ry
     estimated scf accuracy    <       0.00004167 Ry

     iteration # 19     ecut=    50.00 Ry     beta= 0.70
     CG style diagonalization
     ethr =  6.32E-11,  avg # of iterations =  3.0

     negative rho (up, down):  4.318E-02 0.000E+00

     total cpu time spent up to now is     1557.1 secs

     total energy              =    -363.68685074 Ry
     estimated scf accuracy    <       0.00004158 Ry

     iteration # 20     ecut=    50.00 Ry     beta= 0.70
     CG style diagonalization
     ethr =  6.32E-11,  avg # of iterations =  4.2

     negative rho (up, down):  4.316E-02 0.000E+00

     total cpu time spent up to now is     1574.0 secs

     total energy              =    -363.68685046 Ry
     estimated scf accuracy    <       0.00003930 Ry

     iteration # 21     ecut=    50.00 Ry     beta= 0.70
     CG style diagonalization
     ethr =  6.32E-11,  avg # of iterations =  3.4

     negative rho (up, down):  4.293E-02 0.000E+00

     total cpu time spent up to now is     1587.6 secs

     total energy              =    -363.68684865 Ry
     estimated scf accuracy    <       0.00003813 Ry

     iteration # 22     ecut=    50.00 Ry     beta= 0.70
     CG style diagonalization
     c_bands:  1 eigenvalues not converged
     c_bands:  1 eigenvalues not converged
     c_bands:  1 eigenvalues not converged
     c_bands:  1 eigenvalues not converged
     c_bands:  1 eigenvalues not converged
     c_bands:  1 eigenvalues not converged
     c_bands:  1 eigenvalues not converged
     c_bands:  1 eigenvalues not converged
     c_bands:  1 eigenvalues not converged
     c_bands:  1 eigenvalues not converged
     c_bands:  1 eigenvalues not converged
     c_bands:  1 eigenvalues not converged
     c_bands:  1 eigenvalues not converged
     c_bands:  1 eigenvalues not converged
     c_bands:  1 eigenvalues not converged
     ethr =  6.32E-11,  avg # of iterations =  9.2

     negative rho (up, down):  4.298E-02 0.000E+00

     total cpu time spent up to now is     1624.1 secs

     total energy              =    -363.68684887 Ry
     estimated scf accuracy    <       0.00002973 Ry

     iteration # 23     ecut=    50.00 Ry     beta= 0.70
     CG style diagonalization
     ethr =  6.32E-11,  avg # of iterations =  4.3

     negative rho (up, down):  4.197E-02 0.000E+00

     total cpu time spent up to now is     1641.3 secs

     total energy              =    -363.68686051 Ry
     estimated scf accuracy    <       0.00003017 Ry

     iteration # 24     ecut=    50.00 Ry     beta= 0.70
     CG style diagonalization
     c_bands:  1 eigenvalues not converged
     c_bands:  1 eigenvalues not converged
     c_bands:  1 eigenvalues not converged
     c_bands:  1 eigenvalues not converged
     c_bands:  1 eigenvalues not converged
     c_bands:  1 eigenvalues not converged
     c_bands:  1 eigenvalues not converged
     c_bands:  1 eigenvalues not converged
     c_bands:  2 eigenvalues not converged
     c_bands:  1 eigenvalues not converged
     c_bands:  1 eigenvalues not converged
     c_bands:  1 eigenvalues not converged
     c_bands:  2 eigenvalues not converged
     c_bands:  2 eigenvalues not converged
     c_bands:  1 eigenvalues not converged
     c_bands:  1 eigenvalues not converged
     c_bands:  2 eigenvalues not converged
     c_bands:  1 eigenvalues not converged
     c_bands:  1 eigenvalues not converged
     c_bands:  1 eigenvalues not converged
     c_bands:  1 eigenvalues not converged
     c_bands:  1 eigenvalues not converged
     c_bands:  1 eigenvalues not converged
     c_bands:  1 eigenvalues not converged
     c_bands:  1 eigenvalues not converged
     c_bands:  1 eigenvalues not converged
     c_bands:  2 eigenvalues not converged
     c_bands:  2 eigenvalues not converged
     c_bands:  1 eigenvalues not converged
     c_bands:  1 eigenvalues not converged
     c_bands:  1 eigenvalues not converged
     c_bands:  1 eigenvalues not converged
     c_bands:  1 eigenvalues not converged
     c_bands:  1 eigenvalues not converged
     c_bands:  1 eigenvalues not converged
     c_bands:  1 eigenvalues not converged
     c_bands:  1 eigenvalues not converged
     c_bands:  2 eigenvalues not converged
     c_bands:  1 eigenvalues not converged
     c_bands:  2 eigenvalues not converged
     c_bands:  2 eigenvalues not converged
     c_bands:  2 eigenvalues not converged
     c_bands:  2 eigenvalues not converged
     c_bands:  1 eigenvalues not converged
     c_bands:  1 eigenvalues not converged
     c_bands:  1 eigenvalues not converged
     c_bands:  1 eigenvalues not converged
     c_bands:  2 eigenvalues not converged
     c_bands:  3 eigenvalues not converged
     c_bands:  1 eigenvalues not converged
     c_bands:  2 eigenvalues not converged
     c_bands:  1 eigenvalues not converged
     c_bands:  2 eigenvalues not converged
     c_bands:  2 eigenvalues not converged
     c_bands:  1 eigenvalues not converged
     c_bands:  1 eigenvalues not converged
     c_bands:  1 eigenvalues not converged
     c_bands:  1 eigenvalues not converged
     c_bands:  1 eigenvalues not converged
     c_bands:  1 eigenvalues not converged
     c_bands:  2 eigenvalues not converged
     c_bands:  2 eigenvalues not converged
     c_bands:  1 eigenvalues not converged
     c_bands:  1 eigenvalues not converged
     c_bands:  2 eigenvalues not converged
     c_bands:  1 eigenvalues not converged
     c_bands:  1 eigenvalues not converged
     c_bands:  1 eigenvalues not converged
     c_bands:  2 eigenvalues not converged
     c_bands:  1 eigenvalues not converged
     c_bands:  2 eigenvalues not converged
     c_bands:  2 eigenvalues not converged
     c_bands:  2 eigenvalues not converged
     c_bands:  1 eigenvalues not converged
     c_bands:  2 eigenvalues not converged
     c_bands:  1 eigenvalues not converged
     c_bands:  1 eigenvalues not converged
     c_bands:  1 eigenvalues not converged
     c_bands:  2 eigenvalues not converged
     c_bands:  1 eigenvalues not converged
     c_bands:  2 eigenvalues not converged
     c_bands:  1 eigenvalues not converged
     c_bands:  1 eigenvalues not converged
     c_bands:  1 eigenvalues not converged
     c_bands:  2 eigenvalues not converged
     c_bands:  2 eigenvalues not converged
     c_bands:  1 eigenvalues not converged
     c_bands:  1 eigenvalues not converged
     c_bands:  1 eigenvalues not converged
     c_bands:  2 eigenvalues not converged
     c_bands:  2 eigenvalues not converged
     ethr =  6.32E-11,  avg # of iterations = 14.8

     negative rho (up, down):  4.314E-02 0.000E+00

     total cpu time spent up to now is     1700.6 secs

     total energy              =    -363.68683589 Ry
     estimated scf accuracy    <       0.00004301 Ry

     iteration # 25     ecut=    50.00 Ry     beta= 0.70
     CG style diagonalization
     c_bands:  2 eigenvalues not converged
     c_bands:  2 eigenvalues not converged
     c_bands:  1 eigenvalues not converged
     c_bands:  1 eigenvalues not converged
     c_bands:  1 eigenvalues not converged
     c_bands:  1 eigenvalues not converged
     c_bands:  1 eigenvalues not converged
     c_bands:  2 eigenvalues not converged
     c_bands:  2 eigenvalues not converged
     c_bands:  1 eigenvalues not converged
     c_bands:  1 eigenvalues not converged
     c_bands:  1 eigenvalues not converged
     c_bands:  2 eigenvalues not converged
     c_bands:  1 eigenvalues not converged
     c_bands:  1 eigenvalues not converged
     c_bands:  1 eigenvalues not converged
     c_bands:  2 eigenvalues not converged
     c_bands:  1 eigenvalues not converged
     c_bands:  1 eigenvalues not converged
     c_bands:  1 eigenvalues not converged
     c_bands:  1 eigenvalues not converged
     c_bands:  1 eigenvalues not converged
     c_bands:  2 eigenvalues not converged
     c_bands:  1 eigenvalues not converged
     c_bands:  1 eigenvalues not converged
     c_bands:  1 eigenvalues not converged
     c_bands:  2 eigenvalues not converged
     c_bands:  1 eigenvalues not converged
     c_bands:  1 eigenvalues not converged
     c_bands:  1 eigenvalues not converged
     c_bands:  1 eigenvalues not converged
     c_bands:  1 eigenvalues not converged
     c_bands:  2 eigenvalues not converged
     c_bands:  1 eigenvalues not converged
     c_bands:  1 eigenvalues not converged
     c_bands:  2 eigenvalues not converged
     c_bands:  1 eigenvalues not converged
     c_bands:  2 eigenvalues not converged
     c_bands:  1 eigenvalues not converged
     c_bands:  1 eigenvalues not converged
     c_bands:  1 eigenvalues not converged
     c_bands:  2 eigenvalues not converged
     c_bands:  1 eigenvalues not converged
     c_bands:  1 eigenvalues not converged
     c_bands:  2 eigenvalues not converged
     c_bands:  2 eigenvalues not converged
     c_bands:  1 eigenvalues not converged
     c_bands:  2 eigenvalues not converged
     c_bands:  2 eigenvalues not converged
     c_bands:  1 eigenvalues not converged
     c_bands:  1 eigenvalues not converged
     c_bands:  2 eigenvalues not converged
     c_bands:  2 eigenvalues not converged
     c_bands:  1 eigenvalues not converged
     c_bands:  1 eigenvalues not converged
     c_bands:  1 eigenvalues not converged
     c_bands:  2 eigenvalues not converged
     c_bands:  1 eigenvalues not converged
     c_bands:  1 eigenvalues not converged
     c_bands:  1 eigenvalues not converged
     c_bands:  2 eigenvalues not converged
     c_bands:  1 eigenvalues not converged
     c_bands:  1 eigenvalues not converged
     c_bands:  1 eigenvalues not converged
     c_bands:  1 eigenvalues not converged
     c_bands:  2 eigenvalues not converged
     c_bands:  2 eigenvalues not converged
     c_bands:  2 eigenvalues not converged
     c_bands:  1 eigenvalues not converged
     c_bands:  2 eigenvalues not converged
     c_bands:  1 eigenvalues not converged
     c_bands:  1 eigenvalues not converged
     c_bands:  1 eigenvalues not converged
     c_bands:  1 eigenvalues not converged
     c_bands:  1 eigenvalues not converged
     c_bands:  2 eigenvalues not converged
     c_bands:  1 eigenvalues not converged
     c_bands:  1 eigenvalues not converged
     c_bands:  1 eigenvalues not converged
     c_bands:  1 eigenvalues not converged
     c_bands:  1 eigenvalues not converged
     c_bands:  2 eigenvalues not converged
     c_bands:  2 eigenvalues not converged
     c_bands:  1 eigenvalues not converged
     c_bands:  1 eigenvalues not converged
     c_bands:  1 eigenvalues not converged
     c_bands:  1 eigenvalues not converged
     c_bands:  2 eigenvalues not converged
     c_bands:  1 eigenvalues not converged
     c_bands:  1 eigenvalues not converged
     ethr =  6.32E-11,  avg # of iterations = 14.8

     negative rho (up, down):  4.325E-02 0.000E+00

     total cpu time spent up to now is     1759.6 secs

     total energy              =    -363.68683928 Ry
     estimated scf accuracy    <       0.00000463 Ry

     iteration # 26     ecut=    50.00 Ry     beta= 0.70
     CG style diagonalization
     c_bands:  1 eigenvalues not converged
     c_bands:  2 eigenvalues not converged
     c_bands:  1 eigenvalues not converged
     c_bands:  1 eigenvalues not converged
     c_bands:  1 eigenvalues not converged
     c_bands:  1 eigenvalues not converged
     c_bands:  1 eigenvalues not converged
     c_bands:  1 eigenvalues not converged
     c_bands:  1 eigenvalues not converged
     c_bands:  1 eigenvalues not converged
     c_bands:  1 eigenvalues not converged
     c_bands:  1 eigenvalues not converged
     c_bands:  1 eigenvalues not converged
     c_bands:  1 eigenvalues not converged
     c_bands:  1 eigenvalues not converged
     c_bands:  1 eigenvalues not converged
     c_bands:  1 eigenvalues not converged
     c_bands:  1 eigenvalues not converged
     c_bands:  1 eigenvalues not converged
     c_bands:  1 eigenvalues not converged
     c_bands:  1 eigenvalues not converged
     c_bands:  1 eigenvalues not converged
     c_bands:  1 eigenvalues not converged
     c_bands:  1 eigenvalues not converged
     c_bands:  1 eigenvalues not converged
     ethr =  6.32E-11,  avg # of iterations =  9.3

     negative rho (up, down):  4.323E-02 0.000E+00

     total cpu time spent up to now is     1796.8 secs

     total energy              =    -363.68684014 Ry
     estimated scf accuracy    <       0.00000023 Ry

     iteration # 27     ecut=    50.00 Ry     beta= 0.70
     CG style diagonalization
     c_bands:  1 eigenvalues not converged
     c_bands:  1 eigenvalues not converged
     ethr =  6.32E-11,  avg # of iterations =  4.9

     negative rho (up, down):  4.323E-02 0.000E+00

     total cpu time spent up to now is     1816.3 secs

     End of self-consistent calculation

     Number of k-points >= 100: set verbosity='high' to print the bands.

     highest occupied level (ev):    64.6354

!    total energy              =    -363.68684017 Ry
     estimated scf accuracy    <          7.2E-09 Ry

     The total energy is the sum of the following terms:
     one-electron contribution =     144.89909742 Ry
     hartree contribution      =      33.26790178 Ry
     xc contribution           =    -115.19525527 Ry
     ewald contribution        =    -426.65858409 Ry

     convergence has been achieved in  27 iterations

     negative rho (up, down):  4.323E-02 0.000E+00

     Forces acting on atoms (cartesian axes, Ry/au):

     atom    1 type  1   force =     1.57347970   -1.57347970   -0.30918308
     atom    2 type  2   force =    -0.45746871    0.45746871    0.02083063
     atom    3 type  3   force =     0.14887182   -0.14887182    0.05351324
     atom    4 type  3   force =    -0.36760545    0.89727736    0.11741960
     atom    5 type  3   force =    -0.89727736    0.36760545    0.11741960

     Total force =     2.724244     Total SCF correction =     0.000407


     Computing stress (Cartesian axis) and pressure


     negative rho (up, down):  4.323E-02 0.000E+00
          total   stress  (Ry/bohr**3)                   (kbar)     P=    49940.75
   0.33890267   0.03171072   0.03995859        49854.30     4664.81     5878.11
   0.03171072   0.33890267  -0.03995859         4664.81    49854.30    -5878.11
   0.03995859  -0.03995859   0.34066562         5878.11    -5878.11    50113.64

     Energy error            =      1.1E+00 Ry
     Gradient error          =      1.6E+00 Ry/Bohr

     number of scf cycles    =   3
     number of bfgs steps    =   1

     energy             old  =    -362.5564098585 Ry
     energy             new  =    -363.6868401705 Ry

     CASE: energy            _new < energy            _old

     new trust radius        =       0.6780356789 bohr
     new conv_thr            =       0.0000000100 Ry


ATOMIC_POSITIONS (crystal)
Pb           -0.0753693725       -0.0753693725        0.9721760820
Ti            0.5230130791        0.5230130791        0.5908633912
O             0.5004554330        0.5004554330        0.0704196380
O             0.5468456544        0.0050552061        0.6169125884
O             0.0050552061        0.5468456544        0.6169125884



     Writing config-only to output data dir ./PTO.save/
     NEW-OLD atomic charge density approx. for the potential

     negative rho (up, down):  9.362E-03 0.000E+00

     total cpu time spent up to now is     1823.3 secs

     Self-consistent Calculation

     iteration #  1     ecut=    50.00 Ry     beta= 0.70
     CG style diagonalization
     c_bands:  1 eigenvalues not converged
     c_bands:  1 eigenvalues not converged
     c_bands:  1 eigenvalues not converged
     c_bands:  1 eigenvalues not converged
     c_bands:  1 eigenvalues not converged
     c_bands:  1 eigenvalues not converged
     c_bands:  1 eigenvalues not converged
     c_bands:  1 eigenvalues not converged
     c_bands:  1 eigenvalues not converged
     c_bands:  1 eigenvalues not converged
     c_bands:  1 eigenvalues not converged
     c_bands:  2 eigenvalues not converged
     c_bands:  2 eigenvalues not converged
     c_bands:  3 eigenvalues not converged
     c_bands:  1 eigenvalues not converged
     ethr =  1.00E-06,  avg # of iterations = 26.9

     negative rho (up, down):  2.839E-02 0.000E+00

     total cpu time spent up to now is     1927.7 secs

     total energy              =    -364.59370454 Ry
     estimated scf accuracy    <       0.45687924 Ry

     iteration #  2     ecut=    50.00 Ry     beta= 0.70
     CG style diagonalization
     ethr =  1.04E-03,  avg # of iterations =  4.4

     negative rho (up, down):  3.071E-02 0.000E+00

     total cpu time spent up to now is     1945.3 secs

     total energy              =    -364.61825886 Ry
     estimated scf accuracy    <       0.50559420 Ry

     iteration #  3     ecut=    50.00 Ry     beta= 0.70
     CG style diagonalization
     ethr =  1.04E-03,  avg # of iterations =  4.0

     negative rho (up, down):  3.433E-02 0.000E+00

     total cpu time spent up to now is     1961.2 secs

     total energy              =    -364.74367952 Ry
     estimated scf accuracy    <       0.03088401 Ry

     iteration #  4     ecut=    50.00 Ry     beta= 0.70
     CG style diagonalization
     ethr =  7.02E-05,  avg # of iterations =  4.0

     negative rho (up, down):  3.612E-02 0.000E+00

     total cpu time spent up to now is     1977.2 secs

     total energy              =    -364.75608310 Ry
     estimated scf accuracy    <       0.00111718 Ry

     iteration #  5     ecut=    50.00 Ry     beta= 0.70
     CG style diagonalization
     c_bands:  1 eigenvalues not converged
     c_bands:  1 eigenvalues not converged
     ethr =  2.54E-06,  avg # of iterations =  6.3

     negative rho (up, down):  3.664E-02 0.000E+00

     total cpu time spent up to now is     2002.2 secs

     total energy              =    -364.75753969 Ry
     estimated scf accuracy    <       0.00031312 Ry

     iteration #  6     ecut=    50.00 Ry     beta= 0.70
     CG style diagonalization
     ethr =  7.12E-07,  avg # of iterations =  4.9

     negative rho (up, down):  3.710E-02 0.000E+00

     total cpu time spent up to now is     2021.4 secs

     total energy              =    -364.75767458 Ry
     estimated scf accuracy    <       0.00002968 Ry

     iteration #  7     ecut=    50.00 Ry     beta= 0.70
     CG style diagonalization
     ethr =  6.75E-08,  avg # of iterations =  7.3

     negative rho (up, down):  3.720E-02 0.000E+00

     total cpu time spent up to now is     2050.2 secs

     total energy              =    -364.75772473 Ry
     estimated scf accuracy    <       0.00001528 Ry

     iteration #  8     ecut=    50.00 Ry     beta= 0.70
     CG style diagonalization
     c_bands:  1 eigenvalues not converged
     ethr =  3.47E-08,  avg # of iterations =  4.4

     negative rho (up, down):  3.725E-02 0.000E+00

     total cpu time spent up to now is     2067.9 secs

     total energy              =    -364.75850932 Ry
     estimated scf accuracy    <       0.00000570 Ry

     iteration #  9     ecut=    50.00 Ry     beta= 0.70
     CG style diagonalization
     c_bands:  1 eigenvalues not converged
     ethr =  1.30E-08,  avg # of iterations =  4.6

     negative rho (up, down):  3.733E-02 0.000E+00

     total cpu time spent up to now is     2086.3 secs

     total energy              =    -364.75851401 Ry
     estimated scf accuracy    <       0.00000096 Ry

     iteration # 10     ecut=    50.00 Ry     beta= 0.70
     CG style diagonalization
     ethr =  2.19E-09,  avg # of iterations =  6.2

     negative rho (up, down):  3.734E-02 0.000E+00

     total cpu time spent up to now is     2110.9 secs

     total energy              =    -364.75851499 Ry
     estimated scf accuracy    <       0.00000022 Ry

     iteration # 11     ecut=    50.00 Ry     beta= 0.70
     CG style diagonalization
     ethr =  4.94E-10,  avg # of iterations =  5.7

     negative rho (up, down):  3.735E-02 0.000E+00

     total cpu time spent up to now is     2133.6 secs

     total energy              =    -364.75851519 Ry
     estimated scf accuracy    <       0.00000002 Ry

     iteration # 12     ecut=    50.00 Ry     beta= 0.70
     CG style diagonalization
     ethr =  3.68E-11,  avg # of iterations =  7.7

     negative rho (up, down):  3.735E-02 0.000E+00

     total cpu time spent up to now is     2165.5 secs

     End of self-consistent calculation

     Number of k-points >= 100: set verbosity='high' to print the bands.

     highest occupied level (ev):    64.9984

!    total energy              =    -364.75851524 Ry
     estimated scf accuracy    <          8.7E-10 Ry

     The total energy is the sum of the following terms:
     one-electron contribution =     147.03052680 Ry
     hartree contribution      =      32.16406616 Ry
     xc contribution           =    -115.00185053 Ry
     ewald contribution        =    -428.95125766 Ry

     convergence has been achieved in  12 iterations

     negative rho (up, down):  3.735E-02 0.000E+00

     Forces acting on atoms (cartesian axes, Ry/au):

     atom    1 type  1   force =    -0.16788099    0.16788099   -0.67634321
     atom    2 type  2   force =     1.72242869   -1.72242869   -0.36910760
     atom    3 type  3   force =    -1.38270068    1.38270068   -0.59347022
     atom    4 type  3   force =     0.38557655    0.55742358    0.81946051
     atom    5 type  3   force =    -0.55742358   -0.38557655    0.81946051

     Total force =     3.608505     Total SCF correction =     0.000071


     Computing stress (Cartesian axis) and pressure


     negative rho (up, down):  3.735E-02 0.000E+00
          total   stress  (Ry/bohr**3)                   (kbar)     P=    47324.71
   0.32765258   0.01699534  -0.00011890        48199.36     2500.10      -17.49
   0.01699534   0.32765258   0.00011890         2500.10    48199.36       17.49
  -0.00011890   0.00011890   0.30981543          -17.49       17.49    45575.42

     Energy error            =      1.1E+00 Ry
     Gradient error          =      1.7E+00 Ry/Bohr

     number of scf cycles    =   4
     number of bfgs steps    =   2

     energy             old  =    -363.6868401705 Ry
     energy             new  =    -364.7585152363 Ry

     CASE: energy            _new < energy            _old

     new trust radius        =       0.8000000000 bohr
     new conv_thr            =       0.0000000100 Ry


ATOMIC_POSITIONS (crystal)
Pb           -0.1512587593       -0.1512587593        0.9351294528
Ti            0.5280246564        0.5280246564        0.5497283987
O             0.4840671350        0.4840671350        0.1437038526
O             0.5691221189        0.0700448490        0.6193612919
O             0.0700448490        0.5691221189        0.6193612919



     Writing config-only to output data dir ./PTO.save/
     NEW-OLD atomic charge density approx. for the potential

     negative rho (up, down):  5.743E-03 0.000E+00

     total cpu time spent up to now is     2172.2 secs

     Self-consistent Calculation

     iteration #  1     ecut=    50.00 Ry     beta= 0.70
     CG style diagonalization
     c_bands:  2 eigenvalues not converged
     c_bands:  1 eigenvalues not converged
     c_bands:  1 eigenvalues not converged
     c_bands:  1 eigenvalues not converged
     c_bands:  1 eigenvalues not converged
     c_bands:  2 eigenvalues not converged
     c_bands:  2 eigenvalues not converged
     c_bands:  1 eigenvalues not converged
     c_bands:  1 eigenvalues not converged
     c_bands:  1 eigenvalues not converged
     c_bands:  1 eigenvalues not converged
     c_bands:  1 eigenvalues not converged
     c_bands:  1 eigenvalues not converged
     c_bands:  1 eigenvalues not converged
     c_bands:  1 eigenvalues not converged
     c_bands:  1 eigenvalues not converged
     ethr =  1.00E-06,  avg # of iterations = 28.5

     negative rho (up, down):  1.586E-02 0.000E+00

     total cpu time spent up to now is     2283.4 secs

     total energy              =    -359.73607515 Ry
     estimated scf accuracy    <       0.91181026 Ry

     iteration #  2     ecut=    50.00 Ry     beta= 0.70
     CG style diagonalization
     ethr =  2.07E-03,  avg # of iterations =  4.1

     negative rho (up, down):  2.166E-02 0.000E+00

     total cpu time spent up to now is     2299.7 secs

     total energy              =    -359.88203600 Ry
     estimated scf accuracy    <       0.25153198 Ry

     iteration #  3     ecut=    50.00 Ry     beta= 0.70
     CG style diagonalization
     ethr =  5.72E-04,  avg # of iterations =  4.2

     negative rho (up, down):  2.658E-02 0.000E+00

     total cpu time spent up to now is     2316.4 secs

     total energy              =    -359.98086332 Ry
     estimated scf accuracy    <       0.04566257 Ry

     iteration #  4     ecut=    50.00 Ry     beta= 0.70
     CG style diagonalization
     c_bands:  1 eigenvalues not converged
     ethr =  1.04E-04,  avg # of iterations =  4.4

     negative rho (up, down):  3.014E-02 0.000E+00

     total cpu time spent up to now is     2333.9 secs

     total energy              =    -360.00046615 Ry
     estimated scf accuracy    <       0.00892812 Ry

     iteration #  5     ecut=    50.00 Ry     beta= 0.70
     CG style diagonalization
     ethr =  2.03E-05,  avg # of iterations =  4.9

     negative rho (up, down):  3.378E-02 0.000E+00

     total cpu time spent up to now is     2353.5 secs

     total energy              =    -360.00474276 Ry
     estimated scf accuracy    <       0.00173134 Ry

     iteration #  6     ecut=    50.00 Ry     beta= 0.70
     CG style diagonalization
     c_bands:  1 eigenvalues not converged
     ethr =  3.93E-06,  avg # of iterations =  4.8

     negative rho (up, down):  3.626E-02 0.000E+00

     total cpu time spent up to now is     2372.6 secs

     total energy              =    -360.00563081 Ry
     estimated scf accuracy    <       0.00023097 Ry

     iteration #  7     ecut=    50.00 Ry     beta= 0.70
     CG style diagonalization
     c_bands:  1 eigenvalues not converged
     c_bands:  1 eigenvalues not converged
     ethr =  5.25E-07,  avg # of iterations =  5.9

     negative rho (up, down):  3.583E-02 0.000E+00

     total cpu time spent up to now is     2395.9 secs

     total energy              =    -360.00584013 Ry
     estimated scf accuracy    <       0.00005927 Ry

     iteration #  8     ecut=    50.00 Ry     beta= 0.70
     CG style diagonalization
     c_bands:  1 eigenvalues not converged
     ethr =  1.35E-07,  avg # of iterations =  5.3

     negative rho (up, down):  3.589E-02 0.000E+00

     total cpu time spent up to now is     2417.0 secs

     total energy              =    -360.00588266 Ry
     estimated scf accuracy    <       0.00000271 Ry

     iteration #  9     ecut=    50.00 Ry     beta= 0.70
     CG style diagonalization
     c_bands:  1 eigenvalues not converged
     c_bands:  1 eigenvalues not converged
     c_bands:  1 eigenvalues not converged
     ethr =  6.15E-09,  avg # of iterations =  8.0

     negative rho (up, down):  3.594E-02 0.000E+00

     total cpu time spent up to now is     2448.9 secs

     total energy              =    -360.00635483 Ry
     estimated scf accuracy    <       0.00000244 Ry

     iteration # 10     ecut=    50.00 Ry     beta= 0.70
     CG style diagonalization
     c_bands:  1 eigenvalues not converged
     c_bands:  1 eigenvalues not converged
     ethr =  5.55E-09,  avg # of iterations =  3.2

     negative rho (up, down):  3.605E-02 0.000E+00

     total cpu time spent up to now is     2461.5 secs

     total energy              =    -360.00636934 Ry
     estimated scf accuracy    <       0.00000122 Ry

     iteration # 11     ecut=    50.00 Ry     beta= 0.70
     CG style diagonalization
     c_bands:  1 eigenvalues not converged
     c_bands:  1 eigenvalues not converged
     ethr =  2.78E-09,  avg # of iterations =  3.7

     negative rho (up, down):  3.604E-02 0.000E+00

     total cpu time spent up to now is     2476.1 secs

     total energy              =    -360.00636961 Ry
     estimated scf accuracy    <       0.00000002 Ry

     iteration # 12     ecut=    50.00 Ry     beta= 0.70
     CG style diagonalization
     c_bands:  1 eigenvalues not converged
     c_bands:  1 eigenvalues not converged
     c_bands:  1 eigenvalues not converged
     c_bands:  1 eigenvalues not converged
     ethr =  5.22E-11,  avg # of iterations =  9.1

     negative rho (up, down):  3.604E-02 0.000E+00

     total cpu time spent up to now is     2512.1 secs

     End of self-consistent calculation

     Number of k-points >= 100: set verbosity='high' to print the bands.

     highest occupied level (ev):    65.0555

!    total energy              =    -360.00636976 Ry
     estimated scf accuracy    <          9.1E-09 Ry

     The total energy is the sum of the following terms:
     one-electron contribution =     122.63967255 Ry
     hartree contribution      =      42.73938162 Ry
     xc contribution           =    -116.33074803 Ry
     ewald contribution        =    -409.05467591 Ry

     convergence has been achieved in  12 iterations

     negative rho (up, down):  3.604E-02 0.000E+00

     Forces acting on atoms (cartesian axes, Ry/au):

     atom    1 type  1   force =    -5.57999701    5.57999701    3.69397400
     atom    2 type  2   force =    -2.84631100    2.84631100    3.47717411
     atom    3 type  3   force =     2.13675064   -2.13675064   -1.26144270
     atom    4 type  3   force =     3.53794544   -2.75161194   -2.95485271
     atom    5 type  3   force =     2.75161194   -3.53794544   -2.95485271

     Total force =    13.136731     Total SCF correction =     0.000277


     Computing stress (Cartesian axis) and pressure


     negative rho (up, down):  3.604E-02 0.000E+00
          total   stress  (Ry/bohr**3)                   (kbar)     P=    54819.29
   0.39394404  -0.02631020  -0.00721363        57951.17    -3870.36    -1061.16
  -0.02631020   0.39394404   0.00721363        -3870.36    57951.17     1061.16
  -0.00721363   0.00721363   0.33007372        -1061.16     1061.16    48555.52

     Energy error            =      4.8E+00 Ry
     Gradient error          =      5.6E+00 Ry/Bohr

     number of scf cycles    =   5
     number of bfgs steps    =   3

     energy             old  =    -364.7585152363 Ry
     energy             new  =    -360.0063697616 Ry

     CASE: energy            _new > energy            _old

     new trust radius        =       0.1200831547 bohr
     new conv_thr            =       0.0000000100 Ry


ATOMIC_POSITIONS (crystal)
Pb           -0.0867606687       -0.0867606687        0.9666152368
Ti            0.5237653366        0.5237653366        0.5846888666
O             0.4979954848        0.4979954848        0.0814198876
O             0.5501894395        0.0148104077        0.6172801485
O             0.0148104077        0.5501894395        0.6172801485



     Writing config-only to output data dir ./PTO.save/
     NEW-OLD atomic charge density approx. for the potential

     negative rho (up, down):  8.732E-03 0.000E+00

     total cpu time spent up to now is     2519.1 secs

     Self-consistent Calculation

     iteration #  1     ecut=    50.00 Ry     beta= 0.70
     CG style diagonalization
     c_bands:  1 eigenvalues not converged
     c_bands:  1 eigenvalues not converged
     c_bands:  1 eigenvalues not converged
     c_bands:  1 eigenvalues not converged
     c_bands:  3 eigenvalues not converged
     c_bands:  1 eigenvalues not converged
     c_bands:  1 eigenvalues not converged
     c_bands:  1 eigenvalues not converged
     c_bands:  1 eigenvalues not converged
     c_bands:  1 eigenvalues not converged
     c_bands:  1 eigenvalues not converged
     c_bands:  2 eigenvalues not converged
     c_bands:  1 eigenvalues not converged
     c_bands:  1 eigenvalues not converged
     c_bands:  1 eigenvalues not converged
     c_bands:  1 eigenvalues not converged
     c_bands:  2 eigenvalues not converged
     c_bands:  1 eigenvalues not converged
     c_bands:  1 eigenvalues not converged
     c_bands:  1 eigenvalues not converged
     c_bands:  1 eigenvalues not converged
     c_bands:  1 eigenvalues not converged
     c_bands:  1 eigenvalues not converged
     c_bands:  2 eigenvalues not converged
     c_bands:  1 eigenvalues not converged
     c_bands:  1 eigenvalues not converged
     c_bands:  1 eigenvalues not converged
     c_bands:  1 eigenvalues not converged
     c_bands:  3 eigenvalues not converged
     c_bands:  1 eigenvalues not converged
     ethr =  1.00E-06,  avg # of iterations = 28.1

     negative rho (up, down):  2.730E-02 0.000E+00

     total cpu time spent up to now is     2628.5 secs

     total energy              =    -364.77105587 Ry
     estimated scf accuracy    <       0.63386950 Ry

     iteration #  2     ecut=    50.00 Ry     beta= 0.70
     CG style diagonalization
     ethr =  1.44E-03,  avg # of iterations =  4.1

     negative rho (up, down):  3.077E-02 0.000E+00

     total cpu time spent up to now is     2644.9 secs

     total energy              =    -364.83906061 Ry
     estimated scf accuracy    <       0.23616142 Ry

     iteration #  3     ecut=    50.00 Ry     beta= 0.70
     CG style diagonalization
     ethr =  5.37E-04,  avg # of iterations =  4.1

     negative rho (up, down):  3.395E-02 0.000E+00

     total cpu time spent up to now is     2661.3 secs

     total energy              =    -364.91814930 Ry
     estimated scf accuracy    <       0.05698862 Ry

     iteration #  4     ecut=    50.00 Ry     beta= 0.70
     CG style diagonalization
     ethr =  1.30E-04,  avg # of iterations =  4.0

     negative rho (up, down):  3.559E-02 0.000E+00

     total cpu time spent up to now is     2677.8 secs

     total energy              =    -364.93436060 Ry
     estimated scf accuracy    <       0.00584895 Ry

     iteration #  5     ecut=    50.00 Ry     beta= 0.70
     CG style diagonalization
     ethr =  1.33E-05,  avg # of iterations =  4.7

     negative rho (up, down):  3.630E-02 0.000E+00

     total cpu time spent up to now is     2696.9 secs

     total energy              =    -364.93730086 Ry
     estimated scf accuracy    <       0.00064606 Ry

     iteration #  6     ecut=    50.00 Ry     beta= 0.70
     CG style diagonalization
     ethr =  1.47E-06,  avg # of iterations =  6.2

     negative rho (up, down):  3.704E-02 0.000E+00

     total cpu time spent up to now is     2721.6 secs

     total energy              =    -364.93794194 Ry
     estimated scf accuracy    <       0.00012003 Ry

     iteration #  7     ecut=    50.00 Ry     beta= 0.70
     CG style diagonalization
     ethr =  2.73E-07,  avg # of iterations =  5.9

     negative rho (up, down):  3.708E-02 0.000E+00

     total cpu time spent up to now is     2744.9 secs

     total energy              =    -364.93804650 Ry
     estimated scf accuracy    <       0.00003594 Ry

     iteration #  8     ecut=    50.00 Ry     beta= 0.70
     CG style diagonalization
     ethr =  8.17E-08,  avg # of iterations =  5.2

     negative rho (up, down):  3.725E-02 0.000E+00

     total cpu time spent up to now is     2765.9 secs

     total energy              =    -364.93807028 Ry
     estimated scf accuracy    <       0.00000187 Ry

     iteration #  9     ecut=    50.00 Ry     beta= 0.70
     CG style diagonalization
     c_bands:  1 eigenvalues not converged
     ethr =  4.26E-09,  avg # of iterations =  8.5

     negative rho (up, down):  3.729E-02 0.000E+00

     total cpu time spent up to now is     2800.3 secs

     total energy              =    -364.93846232 Ry
     estimated scf accuracy    <       0.00000452 Ry

     iteration # 10     ecut=    50.00 Ry     beta= 0.70
     CG style diagonalization
     c_bands:  1 eigenvalues not converged
     ethr =  4.26E-09,  avg # of iterations =  3.4

     negative rho (up, down):  3.732E-02 0.000E+00

     total cpu time spent up to now is     2813.9 secs

     total energy              =    -364.93846238 Ry
     estimated scf accuracy    <       0.00000195 Ry

     iteration # 11     ecut=    50.00 Ry     beta= 0.70
     CG style diagonalization
     ethr =  4.26E-09,  avg # of iterations =  3.4

     negative rho (up, down):  3.733E-02 0.000E+00

     total cpu time spent up to now is     2827.6 secs

     total energy              =    -364.93846254 Ry
     estimated scf accuracy    <       0.00000015 Ry

     iteration # 12     ecut=    50.00 Ry     beta= 0.70
     CG style diagonalization
     ethr =  3.35E-10,  avg # of iterations =  5.9

     negative rho (up, down):  3.734E-02 0.000E+00

     total cpu time spent up to now is     2851.2 secs

     End of self-consistent calculation

     Number of k-points >= 100: set verbosity='high' to print the bands.

     highest occupied level (ev):    64.6111

!    total energy              =    -364.93846264 Ry
     estimated scf accuracy    <          5.0E-09 Ry

     The total energy is the sum of the following terms:
     one-electron contribution =     148.54434311 Ry
     hartree contribution      =      31.46772562 Ry
     xc contribution           =    -114.95425387 Ry
     ewald contribution        =    -429.99627750 Ry

     convergence has been achieved in  12 iterations

     negative rho (up, down):  3.734E-02 0.000E+00

     Forces acting on atoms (cartesian axes, Ry/au):

     atom    1 type  1   force =    -0.59710908    0.59710908   -0.01960347
     atom    2 type  2   force =     1.05267161   -1.05267161    0.13407915
     atom    3 type  3   force =    -0.87286062    0.87286062   -0.48726709
     atom    4 type  3   force =     0.57992573    0.16262763    0.18639571
     atom    5 type  3   force =    -0.16262763   -0.57992573    0.18639571

     Total force =     2.346036     Total SCF correction =     0.000279


     Computing stress (Cartesian axis) and pressure


     negative rho (up, down):  3.734E-02 0.000E+00
          total   stress  (Ry/bohr**3)                   (kbar)     P=    46818.97
   0.32449402   0.00782335  -0.00479774        47734.72     1150.85     -705.77
   0.00782335   0.32449402   0.00479774         1150.85    47734.72      705.77
[...]

     total energy              =    -364.41640017 Ry
     estimated scf accuracy    <       0.00004392 Ry

     iteration # 14     ecut=    50.00 Ry     beta= 0.70
     CG style diagonalization
     ethr =  7.42E-10,  avg # of iterations =  5.1

     negative rho (up, down):  3.435E-02 0.000E+00

     total cpu time spent up to now is     3216.0 secs

     total energy              =    -364.41639480 Ry
     estimated scf accuracy    <       0.00002708 Ry

     iteration # 15     ecut=    50.00 Ry     beta= 0.70
     CG style diagonalization
     c_bands:  1 eigenvalues not converged
     c_bands:  1 eigenvalues not converged
     ethr =  7.42E-10,  avg # of iterations =  5.7

     negative rho (up, down):  3.431E-02 0.000E+00

     total cpu time spent up to now is     3238.5 secs

     total energy              =    -364.41639278 Ry
     estimated scf accuracy    <       0.00001169 Ry

     iteration # 16     ecut=    50.00 Ry     beta= 0.70
     CG style diagonalization
     ethr =  7.42E-10,  avg # of iterations =  4.8

     negative rho (up, down):  3.433E-02 0.000E+00

     total cpu time spent up to now is     3257.5 secs

     total energy              =    -364.41639204 Ry
     estimated scf accuracy    <       0.00000533 Ry

     iteration # 17     ecut=    50.00 Ry     beta= 0.70
     CG style diagonalization
     ethr =  7.42E-10,  avg # of iterations =  4.8

     negative rho (up, down):  3.422E-02 0.000E+00

     total cpu time spent up to now is     3276.5 secs

     total energy              =    -364.41639098 Ry
     estimated scf accuracy    <       0.00000292 Ry

     iteration # 18     ecut=    50.00 Ry     beta= 0.70
     CG style diagonalization
     ethr =  7.42E-10,  avg # of iterations =  4.6

     negative rho (up, down):  3.411E-02 0.000E+00

     total cpu time spent up to now is     3294.7 secs

     total energy              =    -364.41639056 Ry
     estimated scf accuracy    <       0.00000086 Ry

     iteration # 19     ecut=    50.00 Ry     beta= 0.70
     CG style diagonalization
     ethr =  7.42E-10,  avg # of iterations =  3.8

     negative rho (up, down):  3.408E-02 0.000E+00

     total cpu time spent up to now is     3309.6 secs

     total energy              =    -364.41639059 Ry
     estimated scf accuracy    <       0.00000004 Ry

     iteration # 20     ecut=    50.00 Ry     beta= 0.70
     CG style diagonalization
     ethr =  9.57E-11,  avg # of iterations =  5.6

     negative rho (up, down):  3.409E-02 0.000E+00

     total cpu time spent up to now is     3331.8 secs

     End of self-consistent calculation

     Number of k-points >= 100: set verbosity='high' to print the bands.

     highest occupied level (ev):    65.6547

!    total energy              =    -364.41639063 Ry
     estimated scf accuracy    <          4.5E-09 Ry

     The total energy is the sum of the following terms:
     one-electron contribution =     147.81247674 Ry
     hartree contribution      =      31.67822608 Ry
     xc contribution           =    -115.13674013 Ry
     ewald contribution        =    -428.77035331 Ry

     convergence has been achieved in  20 iterations

     negative rho (up, down):  3.409E-02 0.000E+00

     Forces acting on atoms (cartesian axes, Ry/au):

     atom    1 type  1   force =     1.18574779   -1.18574779    1.99341007
     atom    2 type  2   force =    -0.35799963    0.35799963   -2.79966819
     atom    3 type  3   force =     0.62960013   -0.62960013    0.64256423
     atom    4 type  3   force =    -1.14506605    0.31228223    0.08184694
     atom    5 type  3   force =    -0.31228223    1.14506605    0.08184694

     Total force =     4.349324     Total SCF correction =     0.000213


     Computing stress (Cartesian axis) and pressure


     negative rho (up, down):  3.409E-02 0.000E+00
          total   stress  (Ry/bohr**3)                   (kbar)     P=    46749.86
   0.29977726   0.00372574   0.02185488        44098.76      548.08     3214.96
   0.00372574   0.29977726  -0.02185488          548.08    44098.76    -3214.96
   0.02185488  -0.02185488   0.35384283         3214.96    -3214.96    52052.08

     Energy error            =      5.2E-01 Ry
     Gradient error          =      2.8E+00 Ry/Bohr

     number of scf cycles    =   7
     number of bfgs steps    =   4

     energy             old  =    -364.9384626415 Ry
     energy             new  =    -364.4163906315 Ry

     CASE: energy            _new > energy            _old

     new trust radius        =       0.1091811419 bohr
     new conv_thr            =       0.0000000100 Ry


ATOMIC_POSITIONS (crystal)
Pb           -0.0899399588       -0.0899399588        0.9713978646
Ti            0.5386307863        0.5386307863        0.5655565973
O             0.4899705621        0.4899705621        0.1025378032
O             0.5362291617        0.0251094487        0.6138960115
O             0.0251094487        0.5362291617        0.6138960115



     Writing config-only to output data dir ./PTO.save/
     NEW-OLD atomic charge density approx. for the potential

     negative rho (up, down):  3.469E-02 0.000E+00

     total cpu time spent up to now is     3338.5 secs

     Self-consistent Calculation

     iteration #  1     ecut=    50.00 Ry     beta= 0.70
     CG style diagonalization
     c_bands:  5 eigenvalues not converged
     c_bands:  1 eigenvalues not converged
     ethr =  1.00E-06,  avg # of iterations = 24.8

     negative rho (up, down):  3.560E-02 0.000E+00

     total cpu time spent up to now is     3435.3 secs

     total energy              =    -364.93476647 Ry
     estimated scf accuracy    <       0.33127072 Ry

     iteration #  2     ecut=    50.00 Ry     beta= 0.70
     CG style diagonalization
     ethr =  7.53E-04,  avg # of iterations =  4.6

     negative rho (up, down):  3.661E-02 0.000E+00

     total cpu time spent up to now is     3453.4 secs

     total energy              =    -364.96947051 Ry
     estimated scf accuracy    <       0.34864617 Ry

     iteration #  3     ecut=    50.00 Ry     beta= 0.70
     CG style diagonalization
     ethr =  7.53E-04,  avg # of iterations =  4.1

     negative rho (up, down):  3.698E-02 0.000E+00

     total cpu time spent up to now is     3469.4 secs

     total energy              =    -365.05753925 Ry
     estimated scf accuracy    <       0.03367499 Ry

     iteration #  4     ecut=    50.00 Ry     beta= 0.70
     CG style diagonalization
     ethr =  7.65E-05,  avg # of iterations =  4.0

     negative rho (up, down):  3.706E-02 0.000E+00

     total cpu time spent up to now is     3485.3 secs

     total energy              =    -365.06955801 Ry
     estimated scf accuracy    <       0.00095118 Ry

     iteration #  5     ecut=    50.00 Ry     beta= 0.70
     CG style diagonalization
     c_bands:  1 eigenvalues not converged
     ethr =  2.16E-06,  avg # of iterations =  6.3

     negative rho (up, down):  3.704E-02 0.000E+00

     total cpu time spent up to now is     3510.5 secs

     total energy              =    -365.07085550 Ry
     estimated scf accuracy    <       0.00018975 Ry

     iteration #  6     ecut=    50.00 Ry     beta= 0.70
     CG style diagonalization
     ethr =  4.31E-07,  avg # of iterations =  4.7

     negative rho (up, down):  3.696E-02 0.000E+00

     total cpu time spent up to now is     3529.1 secs

     total energy              =    -365.07092779 Ry
     estimated scf accuracy    <       0.00002110 Ry

     iteration #  7     ecut=    50.00 Ry     beta= 0.70
     CG style diagonalization
     ethr =  4.80E-08,  avg # of iterations =  7.0

     negative rho (up, down):  3.693E-02 0.000E+00

     total cpu time spent up to now is     3556.9 secs

     total energy              =    -365.07096035 Ry
     estimated scf accuracy    <       0.00001164 Ry

     iteration #  8     ecut=    50.00 Ry     beta= 0.70
     CG style diagonalization
     ethr =  2.65E-08,  avg # of iterations =  4.5

     negative rho (up, down):  3.690E-02 0.000E+00

     total cpu time spent up to now is     3575.3 secs

     total energy              =    -365.07096438 Ry
     estimated scf accuracy    <       0.00000113 Ry

     iteration #  9     ecut=    50.00 Ry     beta= 0.70
     CG style diagonalization
     ethr =  2.57E-09,  avg # of iterations =  7.5

     negative rho (up, down):  3.685E-02 0.000E+00

     total cpu time spent up to now is     3605.3 secs

     total energy              =    -365.07096654 Ry
     estimated scf accuracy    <       0.00000041 Ry

     iteration # 10     ecut=    50.00 Ry     beta= 0.70
     CG style diagonalization
     ethr =  9.28E-10,  avg # of iterations =  4.7

     negative rho (up, down):  3.684E-02 0.000E+00

     total cpu time spent up to now is     3624.0 secs

     total energy              =    -365.07096673 Ry
     estimated scf accuracy    <       0.00000001 Ry

     iteration # 11     ecut=    50.00 Ry     beta= 0.70
     CG style diagonalization
     ethr =  2.47E-11,  avg # of iterations = 10.0

     negative rho (up, down):  3.684E-02 0.000E+00

     total cpu time spent up to now is     3663.9 secs

     End of self-consistent calculation

     Number of k-points >= 100: set verbosity='high' to print the bands.

     highest occupied level (ev):    64.5332

!    total energy              =    -365.07096683 Ry
     estimated scf accuracy    <          3.3E-09 Ry

     The total energy is the sum of the following terms:
     one-electron contribution =     150.11861475 Ry
     hartree contribution      =      30.78555776 Ry
     xc contribution           =    -114.91079161 Ry
     ewald contribution        =    -431.06434772 Ry

     convergence has been achieved in  11 iterations

     negative rho (up, down):  3.684E-02 0.000E+00

     Forces acting on atoms (cartesian axes, Ry/au):

     atom    1 type  1   force =    -0.10753986    0.10753986    0.37147477
     atom    2 type  2   force =     0.67207123   -0.67207123   -0.57242548
     atom    3 type  3   force =    -0.36334918    0.36334918   -0.11844807
     atom    4 type  3   force =     0.07454072    0.27572291    0.15969939
     atom    5 type  3   force =    -0.27572291   -0.07454072    0.15969939

     Total force =     1.372733     Total SCF correction =     0.000181


     Computing stress (Cartesian axis) and pressure


     negative rho (up, down):  3.684E-02 0.000E+00
          total   stress  (Ry/bohr**3)                   (kbar)     P=    46517.21
   0.31549432   0.00711410   0.00324708        46410.82     1046.52      477.66
   0.00711410   0.31549432  -0.00324708         1046.52    46410.82     -477.66
   0.00324708  -0.00324708   0.31766412          477.66     -477.66    46730.01

     Energy error            =      1.3E-01 Ry
     Gradient error          =      6.7E-01 Ry/Bohr

     number of scf cycles    =   8
     number of bfgs steps    =   4

     energy             old  =    -364.9384626415 Ry
     energy             new  =    -365.0709668279 Ry

     CASE: energy            _new < energy            _old

     new trust radius        =       0.2211233916 bohr
     new conv_thr            =       0.0000000100 Ry


ATOMIC_POSITIONS (crystal)
Pb           -0.0701215882       -0.0701215882        0.9840156264
Ti            0.5140349809        0.5140349809        0.5645354385
O             0.4828246365        0.4828246365        0.1078680626
O             0.5489094807        0.0243524900        0.6054325803
O             0.0243524900        0.5489094807        0.6054325803



     Writing config-only to output data dir ./PTO.save/
     NEW-OLD atomic charge density approx. for the potential

     negative rho (up, down):  3.048E-02 0.000E+00

     total cpu time spent up to now is     3670.6 secs

     Self-consistent Calculation

     iteration #  1     ecut=    50.00 Ry     beta= 0.70
     CG style diagonalization
     c_bands:  5 eigenvalues not converged
     c_bands:  1 eigenvalues not converged
     c_bands:  4 eigenvalues not converged
     c_bands:  3 eigenvalues not converged
     c_bands:  5 eigenvalues not converged
     c_bands:  5 eigenvalues not converged
     c_bands:  5 eigenvalues not converged
     c_bands:  3 eigenvalues not converged
     c_bands:  5 eigenvalues not converged
     c_bands:  5 eigenvalues not converged
     ethr =  1.00E-06,  avg # of iterations = 23.4

     negative rho (up, down):  3.429E-02 0.000E+00

     total cpu time spent up to now is     3762.0 secs

     total energy              =    -364.99166009 Ry
     estimated scf accuracy    <       0.09020944 Ry

     iteration #  2     ecut=    50.00 Ry     beta= 0.70
     CG style diagonalization
     ethr =  2.05E-04,  avg # of iterations =  4.4

     negative rho (up, down):  3.561E-02 0.000E+00

     total cpu time spent up to now is     3779.3 secs

     total energy              =    -365.00191389 Ry
     estimated scf accuracy    <       0.06744333 Ry

     iteration #  3     ecut=    50.00 Ry     beta= 0.70
     CG style diagonalization
     ethr =  1.53E-04,  avg # of iterations =  4.0

     negative rho (up, down):  3.655E-02 0.000E+00

     total cpu time spent up to now is     3795.2 secs

     total energy              =    -365.02021588 Ry
     estimated scf accuracy    <       0.00737010 Ry

     iteration #  4     ecut=    50.00 Ry     beta= 0.70
     CG style diagonalization
     ethr =  1.68E-05,  avg # of iterations =  4.0

     negative rho (up, down):  3.706E-02 0.000E+00

     total cpu time spent up to now is     3811.0 secs

     total energy              =    -365.02286990 Ry
     estimated scf accuracy    <       0.00043258 Ry

     iteration #  5     ecut=    50.00 Ry     beta= 0.70
     CG style diagonalization
     ethr =  9.83E-07,  avg # of iterations =  5.4

     negative rho (up, down):  3.716E-02 0.000E+00

     total cpu time spent up to now is     3832.3 secs

     total energy              =    -365.02320196 Ry
     estimated scf accuracy    <       0.00006397 Ry

     iteration #  6     ecut=    50.00 Ry     beta= 0.70
     CG style diagonalization
     c_bands:  1 eigenvalues not converged
     ethr =  1.45E-07,  avg # of iterations =  5.0

     negative rho (up, down):  3.722E-02 0.000E+00

     total cpu time spent up to now is     3852.1 secs

     total energy              =    -365.02323485 Ry
     estimated scf accuracy    <       0.00001077 Ry

     iteration #  7     ecut=    50.00 Ry     beta= 0.70
     CG style diagonalization
     c_bands:  1 eigenvalues not converged
     ethr =  2.45E-08,  avg # of iterations =  6.4

     negative rho (up, down):  3.723E-02 0.000E+00

     total cpu time spent up to now is     3877.9 secs

     total energy              =    -365.02324471 Ry
     estimated scf accuracy    <       0.00001004 Ry

     iteration #  8     ecut=    50.00 Ry     beta= 0.70
     CG style diagonalization
     ethr =  2.28E-08,  avg # of iterations =  3.8

     negative rho (up, down):  3.723E-02 0.000E+00

     total cpu time spent up to now is     3893.0 secs

     total energy              =    -365.02324641 Ry
     estimated scf accuracy    <       0.00000051 Ry

     iteration #  9     ecut=    50.00 Ry     beta= 0.70
     CG style diagonalization
     ethr =  1.17E-09,  avg # of iterations =  7.8

     negative rho (up, down):  3.723E-02 0.000E+00

     total cpu time spent up to now is     3925.7 secs

     total energy              =    -365.02324771 Ry
     estimated scf accuracy    <       0.00000011 Ry

     iteration # 10     ecut=    50.00 Ry     beta= 0.70
     CG style diagonalization
     ethr =  2.50E-10,  avg # of iterations =  5.7

     negative rho (up, down):  3.722E-02 0.000E+00

     total cpu time spent up to now is     3948.9 secs

     End of self-consistent calculation

     Number of k-points >= 100: set verbosity='high' to print the bands.

     highest occupied level (ev):    64.3066

!    total energy              =    -365.02324782 Ry
     estimated scf accuracy    <          6.0E-09 Ry

     The total energy is the sum of the following terms:
     one-electron contribution =     151.08249674 Ry
     hartree contribution      =      30.36763802 Ry
     xc contribution           =    -114.89870112 Ry
     ewald contribution        =    -431.57468146 Ry

     convergence has been achieved in  10 iterations

     negative rho (up, down):  3.722E-02 0.000E+00

     Forces acting on atoms (cartesian axes, Ry/au):

     atom    1 type  1   force =     0.37644563   -0.37644563   -0.32755568
     atom    2 type  2   force =    -0.28537080    0.28537080    1.21220075
     atom    3 type  3   force =     0.14891770   -0.14891770    0.24961134
     atom    4 type  3   force =    -0.49252907   -0.25253655   -0.56712821
     atom    5 type  3   force =     0.25253655    0.49252907   -0.56712821

     Total force =     1.840018     Total SCF correction =     0.000246


     Computing stress (Cartesian axis) and pressure


     negative rho (up, down):  3.722E-02 0.000E+00
          total   stress  (Ry/bohr**3)                   (kbar)     P=    46794.76
   0.32488509   0.01530066   0.00037714        47792.25     2250.80       55.48
   0.01530066   0.32488509  -0.00037714         2250.80    47792.25      -55.48
   0.00037714  -0.00037714   0.30454283           55.48      -55.48    44799.80

     Energy error            =      4.8E-02 Ry
     Gradient error          =      1.2E+00 Ry/Bohr

     number of scf cycles    =   9
     number of bfgs steps    =   5

     energy             old  =    -365.0709668279 Ry
     energy             new  =    -365.0232478202 Ry

     CASE: energy            _new > energy            _old

     new trust radius        =       0.0953838010 bohr
     new conv_thr            =       0.0000000100 Ry


ATOMIC_POSITIONS (crystal)
Pb           -0.0813911051       -0.0813911051        0.9768406632
Ti            0.5280211380        0.5280211380        0.5651161102
O             0.4868880952        0.4868880952        0.1048370642
O             0.5416989450        0.0247829269        0.6102452252
O             0.0247829269        0.5416989450        0.6102452252



     Writing config-only to output data dir ./PTO.save/
     NEW-OLD atomic charge density approx. for the potential

     negative rho (up, down):  3.442E-02 0.000E+00

     total cpu time spent up to now is     3956.3 secs

     Self-consistent Calculation

     iteration #  1     ecut=    50.00 Ry     beta= 0.70
     CG style diagonalization
     c_bands:  5 eigenvalues not converged
     c_bands:  4 eigenvalues not converged
     c_bands:  3 eigenvalues not converged
     c_bands:  3 eigenvalues not converged
     c_bands:  4 eigenvalues not converged
     c_bands:  2 eigenvalues not converged
     c_bands:  2 eigenvalues not converged
     c_bands:  4 eigenvalues not converged
     c_bands:  3 eigenvalues not converged
     c_bands:  3 eigenvalues not converged
     c_bands:  4 eigenvalues not converged
     c_bands:  5 eigenvalues not converged
     c_bands:  5 eigenvalues not converged
     c_bands:  2 eigenvalues not converged
     c_bands:  4 eigenvalues not converged
     c_bands:  3 eigenvalues not converged
     c_bands:  5 eigenvalues not converged
     c_bands:  4 eigenvalues not converged
     c_bands:  4 eigenvalues not converged
     c_bands:  4 eigenvalues not converged
     c_bands:  2 eigenvalues not converged
     c_bands:  2 eigenvalues not converged
     c_bands:  2 eigenvalues not converged
     c_bands:  3 eigenvalues not converged
     c_bands:  3 eigenvalues not converged
     c_bands:  5 eigenvalues not converged
     c_bands:  4 eigenvalues not converged
     ethr =  1.00E-06,  avg # of iterations = 21.5

     negative rho (up, down):  3.627E-02 0.000E+00

     total cpu time spent up to now is     4040.5 secs

     total energy              =    -365.12801853 Ry
     estimated scf accuracy    <       0.03191742 Ry

     iteration #  2     ecut=    50.00 Ry     beta= 0.70
     CG style diagonalization
