
     Program PWSCF v.7.0 starts on  6Apr2022 at 21:49:40 

     This program is part of the open-source Quantum ESPRESSO suite
     for quantum simulation of materials; please cite
         "P. Giannozzi et al., J. Phys.:Condens. Matter 21 395502 (2009);
         "P. Giannozzi et al., J. Phys.:Condens. Matter 29 465901 (2017);
         "P. Giannozzi et al., J. Chem. Phys. 152 154105 (2020);
          URL http://www.quantum-espresso.org", 
     in publications or presentations arising from this work. More details at
     http://www.quantum-espresso.org/quote

     Parallel version (MPI), running on     1 processors

     MPI processes distributed on     1 nodes
     91243 MiB available memory on the printing compute node when the environment starts
 
     Waiting for input...
     Reading input from standard input
Warning: card &CELL ignored
Warning: card  CELL_DYNAMICS = 'BFGS', ignored
Warning: card  PRESS=0.1D0, ignored
Warning: card / ignored

     Current dimensions of program PWSCF are:
     Max number of different atomic species (ntypx) = 10
     Max number of k-points (npk) =  40000
     Max angular momentum in pseudopotentials (lmaxx) =  4

     File ./PTO.update deleted, as requested

     File ./PTO.bfgs deleted, as requested
     Message from routine setup:
     using ibrav=0 with symmetry is DISCOURAGED, use correct ibrav instead

     Subspace diagonalization in iterative solution of the eigenvalue problem:
     a serial algorithm will be used

 
     G-vector sticks info
     --------------------
     sticks:   dense  smooth     PW     G-vecs:    dense   smooth      PW
     Sum         917     367    121                18165     4637     893
 
     Using Slab Decomposition
 


     bravais-lattice index     =            0
     lattice parameter (alat)  =       7.2800  a.u.
     unit-cell volume          =      96.4559 (a.u.)^3
     number of atoms/cell      =            5
     number of atomic types    =            3
     number of electrons       =        44.00
     number of Kohn-Sham states=           22
     kinetic-energy cutoff     =      50.0000  Ry
     charge density cutoff     =     500.0000  Ry
     scf convergence threshold =      1.0E-08
     mixing beta               =       0.7000
     number of iterations used =            8  plain     mixing
     energy convergence thresh.=      1.0E-04
     force convergence thresh. =      1.0E-03
     Exchange-correlation= SLA  PZ   NOGX NOGC
                           (   1   1   0   0   0   0   0)
     nstep                     =           50


     celldm(1)=   7.280000  celldm(2)=   0.000000  celldm(3)=   1.050000
     celldm(4)=   0.000000  celldm(5)=   0.000000  celldm(6)=   0.000000

     crystal axes: (cart. coord. in units of alat)
               a(1) = (  -0.501000   0.000000   0.498000 )  
               a(2) = (   0.000000   0.501000   0.498000 )  
               a(3) = (  -0.501000   0.501000   0.000000 )  

     reciprocal axes: (cart. coord. in units 2 pi/alat)
               b(1) = ( -0.998004 -0.998004  1.004016 )  
               b(2) = (  0.998004  0.998004  1.004016 )  
               b(3) = ( -0.998004  0.998004 -1.004016 )  


     PseudoPot. # 1 for Pb read from file:
     ./Pb_LDA.UPF
     MD5 check sum: 062a37469794d955244864f8fe2e5624
     Pseudo is Ultrasoft + core correction, Zval = 14.0
     Generated by new atomic code, or converted to UPF format
     Using radial grid of  899 points,  6 beta functions with: 
                l(1) =   0
                l(2) =   0
                l(3) =   1
                l(4) =   1
                l(5) =   2
                l(6) =   2
     Q(r) pseudized with  6 coefficients,  rinner =    1.000   1.000   1.000
                                                       1.000   1.000

     PseudoPot. # 2 for Ti read from file:
     ./Ti_LDA.UPF
     MD5 check sum: 0d9f225c038fe889ca2a701dcc8d72cb
     Pseudo is Ultrasoft + core correction, Zval = 12.0
     Generated by new atomic code, or converted to UPF format
     Using radial grid of  851 points,  6 beta functions with: 
                l(1) =   0
                l(2) =   0
                l(3) =   1
                l(4) =   1
                l(5) =   2
                l(6) =   2
     Q(r) pseudized with  6 coefficients,  rinner =    1.000   1.000   1.000
                                                       1.000   1.000

     PseudoPot. # 3 for O  read from file:
     ./O_LDA.UPF
     MD5 check sum: 194b818514d2a7dbb603bb78519a4f40
     Pseudo is Ultrasoft + core correction, Zval =  6.0
     Generated by new atomic code, or converted to UPF format
     Using radial grid of  737 points,  5 beta functions with: 
                l(1) =   0
                l(2) =   0
                l(3) =   1
                l(4) =   1
                l(5) =   2
     Q(r) pseudized with  8 coefficients,  rinner =    0.900   0.900   0.900
                                                       0.900   0.900

     atomic species   valence    mass     pseudopotential
        Pb            14.00   207.20000     Pb( 1.00)
        Ti            12.00    47.88000     Ti( 1.00)
        O              6.00    16.00000     O ( 1.00)

      2 Sym. Ops. (no inversion) found



   Cartesian axes

     site n.     atom                  positions (alat units)
         1           Pb  tau(   1) = (  -0.5042177   0.5042177   0.0000000  )
         2           Ti  tau(   2) = (  -0.5212523   0.5212523   0.4980000  )
         3           O   tau(   3) = (  -0.2998887   0.2998887   0.4980000  )
         4           O   tau(   4) = (  -0.5565754   0.3060754   0.2490000  )
         5           O   tau(   5) = (  -0.3060754   0.5565754   0.2490000  )

     number of k points=   122

     Number of k-points >= 100: set verbosity='high' to print them.

     Dense  grid:    18165 G-vectors     FFT dimensions: (  40,  40,  40)

     Smooth grid:     4637 G-vectors     FFT dimensions: (  24,  24,  24)

     Estimated max dynamical RAM per process >      98.49 MB

     Initial potential from superposition of free atoms

     starting charge      42.9982, renormalised to      44.0000

     negative rho (up, down):  1.041E-02 0.000E+00
     Starting wfcs are   31 randomized atomic wfcs

     total cpu time spent up to now is        8.8 secs

     Self-consistent Calculation

     iteration #  1     ecut=    50.00 Ry     beta= 0.70
     CG style diagonalization
     ethr =  1.00E-02,  avg # of iterations =  3.0

     negative rho (up, down):  2.517E-02 0.000E+00

     total cpu time spent up to now is       22.7 secs

     total energy              =    -360.48196532 Ry
     estimated scf accuracy    <       4.87622663 Ry

     iteration #  2     ecut=    50.00 Ry     beta= 0.70
     CG style diagonalization
     ethr =  1.00E-02,  avg # of iterations =  4.4

     negative rho (up, down):  3.704E-02 0.000E+00

     total cpu time spent up to now is       40.0 secs

     total energy              =    -361.86166005 Ry
     estimated scf accuracy    <       1.96755389 Ry

     iteration #  3     ecut=    50.00 Ry     beta= 0.70
     CG style diagonalization
     ethr =  4.47E-03,  avg # of iterations =  4.1

     negative rho (up, down):  4.030E-02 0.000E+00

     total cpu time spent up to now is       55.9 secs

     total energy              =    -362.48350299 Ry
     estimated scf accuracy    <       0.09428528 Ry

     iteration #  4     ecut=    50.00 Ry     beta= 0.70
     CG style diagonalization
     c_bands:  1 eigenvalues not converged
     c_bands:  1 eigenvalues not converged
     c_bands:  1 eigenvalues not converged
     c_bands:  1 eigenvalues not converged
     ethr =  2.14E-04,  avg # of iterations =  4.7

     negative rho (up, down):  4.312E-02 0.000E+00

     total cpu time spent up to now is       74.9 secs

     total energy              =    -362.55892702 Ry
     estimated scf accuracy    <       0.02368235 Ry

     iteration #  5     ecut=    50.00 Ry     beta= 0.70
     CG style diagonalization
     c_bands:  1 eigenvalues not converged
     c_bands:  1 eigenvalues not converged
     ethr =  5.38E-05,  avg # of iterations =  4.9

     negative rho (up, down):  4.310E-02 0.000E+00

     total cpu time spent up to now is       94.3 secs

     total energy              =    -362.57145857 Ry
     estimated scf accuracy    <       0.00340881 Ry

     iteration #  6     ecut=    50.00 Ry     beta= 0.70
     CG style diagonalization
     c_bands:  1 eigenvalues not converged
     c_bands:  1 eigenvalues not converged
     c_bands:  1 eigenvalues not converged
     c_bands:  1 eigenvalues not converged
     ethr =  7.75E-06,  avg # of iterations =  5.8

     negative rho (up, down):  4.313E-02 0.000E+00

     total cpu time spent up to now is      117.4 secs

     total energy              =    -362.57514314 Ry
     estimated scf accuracy    <       0.00030347 Ry

     iteration #  7     ecut=    50.00 Ry     beta= 0.70
     CG style diagonalization
     c_bands:  1 eigenvalues not converged
     c_bands:  1 eigenvalues not converged
     c_bands:  1 eigenvalues not converged
     c_bands:  1 eigenvalues not converged
     c_bands:  1 eigenvalues not converged
     ethr =  6.90E-07,  avg # of iterations =  7.0

     negative rho (up, down):  4.302E-02 0.000E+00

     total cpu time spent up to now is      145.1 secs

     total energy              =    -362.57572373 Ry
     estimated scf accuracy    <       0.00007244 Ry

     iteration #  8     ecut=    50.00 Ry     beta= 0.70
     CG style diagonalization
     c_bands:  1 eigenvalues not converged
     c_bands:  1 eigenvalues not converged
     c_bands:  1 eigenvalues not converged
     c_bands:  1 eigenvalues not converged
     ethr =  1.65E-07,  avg # of iterations =  5.6

     negative rho (up, down):  4.292E-02 0.000E+00

     total cpu time spent up to now is      167.8 secs

     total energy              =    -362.57609841 Ry
     estimated scf accuracy    <       0.00002478 Ry

     iteration #  9     ecut=    50.00 Ry     beta= 0.70
     CG style diagonalization
     c_bands:  1 eigenvalues not converged
     c_bands:  1 eigenvalues not converged
     ethr =  5.63E-08,  avg # of iterations =  5.2

     negative rho (up, down):  4.283E-02 0.000E+00

     total cpu time spent up to now is      188.5 secs

     total energy              =    -362.57613291 Ry
     estimated scf accuracy    <       0.00000322 Ry

     iteration # 10     ecut=    50.00 Ry     beta= 0.70
     CG style diagonalization
     c_bands:  1 eigenvalues not converged
     c_bands:  1 eigenvalues not converged
     ethr =  7.33E-09,  avg # of iterations =  6.7

     negative rho (up, down):  4.277E-02 0.000E+00

     total cpu time spent up to now is      215.0 secs

     total energy              =    -362.57613771 Ry
     estimated scf accuracy    <       0.00000066 Ry

     iteration # 11     ecut=    50.00 Ry     beta= 0.70
     CG style diagonalization
     c_bands:  1 eigenvalues not converged
     c_bands:  1 eigenvalues not converged
     ethr =  1.51E-09,  avg # of iterations =  6.1

     negative rho (up, down):  4.277E-02 0.000E+00

     total cpu time spent up to now is      239.3 secs

     total energy              =    -362.57613848 Ry
     estimated scf accuracy    <       0.00000003 Ry

     iteration # 12     ecut=    50.00 Ry     beta= 0.70
     CG style diagonalization
     c_bands:  1 eigenvalues not converged
     c_bands:  1 eigenvalues not converged
     c_bands:  1 eigenvalues not converged
     ethr =  7.34E-11,  avg # of iterations =  8.7

     negative rho (up, down):  4.276E-02 0.000E+00

     total cpu time spent up to now is      273.8 secs

     End of self-consistent calculation

     Number of k-points >= 100: set verbosity='high' to print the bands.

     highest occupied level (ev):    64.9976

!    total energy              =    -362.57613863 Ry
     estimated scf accuracy    <          2.4E-09 Ry

     The total energy is the sum of the following terms:
     one-electron contribution =     140.18696247 Ry
     hartree contribution      =      35.38106339 Ry
     xc contribution           =    -115.48508835 Ry
     ewald contribution        =    -422.65907614 Ry

     convergence has been achieved in  12 iterations

     negative rho (up, down):  4.276E-02 0.000E+00

     Forces acting on atoms (cartesian axes, Ry/au):

     atom    1 type  1   force =    -0.46393765    0.46393765   -4.97080970
     atom    2 type  2   force =    -1.52216426    1.52216426    1.73488226
     atom    3 type  3   force =     0.66288291   -0.66288291   -0.13785540
     atom    4 type  3   force =    -0.95746455   -2.28068355    1.68689142
     atom    5 type  3   force =     2.28068355    0.95746455    1.68689142

     Total force =     7.183924     Total SCF correction =     0.000152


     Computing stress (Cartesian axis) and pressure


     negative rho (up, down):  4.276E-02 0.000E+00
          total   stress  (Ry/bohr**3)                   (kbar)     P=    51600.72
   0.34382765   0.05342547   0.03934321        50578.79     7859.16     5787.59
   0.05342547   0.34382765  -0.03934321         7859.16    50578.79    -5787.59
   0.03934321  -0.03934321   0.36466843         5787.59    -5787.59    53644.58


     BFGS Geometry Optimization
     Energy error            =      0.0E+00 Ry
     Gradient error          =      5.0E+00 Ry/Bohr

     number of scf cycles    =   1
     number of bfgs steps    =   0

     energy             new  =    -362.5761386283 Ry

     new trust radius        =       0.5000000000 bohr
     new conv_thr            =       0.0000000100 Ry


ATOMIC_POSITIONS (crystal)
Pb           -0.0683642023       -0.0683642023        1.0874714876
Ti            0.5238600648        0.5238600648        0.5581819714
O             0.4981040565        0.4981040565        0.0823519943
O             0.5674680442       -0.0210679632        0.5696394173
O            -0.0210679632        0.5674680442        0.5696394173



     Writing config-only to output data dir ./PTO.save/
     NEW-OLD atomic charge density approx. for the potential

     negative rho (up, down):  1.165E-02 0.000E+00

     total cpu time spent up to now is      280.5 secs

     Self-consistent Calculation

     iteration #  1     ecut=    50.00 Ry     beta= 0.70
     CG style diagonalization
     c_bands:  1 eigenvalues not converged
     c_bands:  1 eigenvalues not converged
     c_bands:  1 eigenvalues not converged
     c_bands:  1 eigenvalues not converged
     c_bands:  1 eigenvalues not converged
     c_bands:  1 eigenvalues not converged
     c_bands:  3 eigenvalues not converged
     ethr =  1.00E-06,  avg # of iterations = 27.9

     negative rho (up, down):  3.044E-02 0.000E+00

     total cpu time spent up to now is      390.0 secs

     total energy              =    -361.91080374 Ry
     estimated scf accuracy    <       0.59725522 Ry

     iteration #  2     ecut=    50.00 Ry     beta= 0.70
     CG style diagonalization
     ethr =  1.36E-03,  avg # of iterations =  4.0

     negative rho (up, down):  3.447E-02 0.000E+00

     total cpu time spent up to now is      405.8 secs

     total energy              =    -362.01385233 Ry
     estimated scf accuracy    <       0.09687865 Ry

     iteration #  3     ecut=    50.00 Ry     beta= 0.70
     CG style diagonalization
     ethr =  2.20E-04,  avg # of iterations =  4.1

     negative rho (up, down):  3.855E-02 0.000E+00

     total cpu time spent up to now is      422.0 secs

     total energy              =    -362.06430038 Ry
     estimated scf accuracy    <       0.01013329 Ry

     iteration #  4     ecut=    50.00 Ry     beta= 0.70
     CG style diagonalization
     ethr =  2.30E-05,  avg # of iterations =  5.7

     negative rho (up, down):  4.024E-02 0.000E+00

     total cpu time spent up to now is      445.4 secs

     total energy              =    -362.07335533 Ry
     estimated scf accuracy    <       0.00263160 Ry

     iteration #  5     ecut=    50.00 Ry     beta= 0.70
     CG style diagonalization
     ethr =  5.98E-06,  avg # of iterations =  4.7

     negative rho (up, down):  4.145E-02 0.000E+00

     total cpu time spent up to now is      464.1 secs

     total energy              =    -362.07439081 Ry
     estimated scf accuracy    <       0.00083631 Ry

     iteration #  6     ecut=    50.00 Ry     beta= 0.70
     CG style diagonalization
     ethr =  1.90E-06,  avg # of iterations =  4.5

     negative rho (up, down):  4.222E-02 0.000E+00

     total cpu time spent up to now is      482.1 secs

     total energy              =    -362.07471315 Ry
     estimated scf accuracy    <       0.00011346 Ry

     iteration #  7     ecut=    50.00 Ry     beta= 0.70
     CG style diagonalization
     ethr =  2.58E-07,  avg # of iterations =  6.4

     negative rho (up, down):  4.243E-02 0.000E+00

     total cpu time spent up to now is      507.3 secs

     total energy              =    -362.07483864 Ry
     estimated scf accuracy    <       0.00003163 Ry

     iteration #  8     ecut=    50.00 Ry     beta= 0.70
     CG style diagonalization
     ethr =  7.19E-08,  avg # of iterations =  5.1

     negative rho (up, down):  4.269E-02 0.000E+00

     total cpu time spent up to now is      527.6 secs

     total energy              =    -362.07485682 Ry
     estimated scf accuracy    <       0.00000245 Ry

     iteration #  9     ecut=    50.00 Ry     beta= 0.70
     CG style diagonalization
     c_bands:  1 eigenvalues not converged
     c_bands:  1 eigenvalues not converged
     c_bands:  1 eigenvalues not converged
     c_bands:  1 eigenvalues not converged
     c_bands:  1 eigenvalues not converged
     c_bands:  1 eigenvalues not converged
     ethr =  5.56E-09,  avg # of iterations =  7.0

     negative rho (up, down):  4.269E-02 0.000E+00

     total cpu time spent up to now is      557.7 secs

     total energy              =    -362.08323907 Ry
     estimated scf accuracy    <       0.00065555 Ry

     iteration # 10     ecut=    50.00 Ry     beta= 0.70
     CG style diagonalization
     c_bands:  1 eigenvalues not converged
     c_bands:  1 eigenvalues not converged
     c_bands:  1 eigenvalues not converged
     c_bands:  1 eigenvalues not converged
     c_bands:  1 eigenvalues not converged
     ethr =  5.56E-09,  avg # of iterations =  3.2

     negative rho (up, down):  4.270E-02 0.000E+00

     total cpu time spent up to now is      570.9 secs

     total energy              =    -362.08327651 Ry
     estimated scf accuracy    <       0.00065230 Ry

     iteration # 11     ecut=    50.00 Ry     beta= 0.70
     CG style diagonalization
     ethr =  5.56E-09,  avg # of iterations =  3.3

     negative rho (up, down):  4.270E-02 0.000E+00

     total cpu time spent up to now is      583.8 secs

     total energy              =    -362.08317070 Ry
     estimated scf accuracy    <       0.00070315 Ry

     iteration # 12     ecut=    50.00 Ry     beta= 0.70
     CG style diagonalization
     c_bands:  1 eigenvalues not converged
     ethr =  5.56E-09,  avg # of iterations =  5.3

     negative rho (up, down):  4.271E-02 0.000E+00

     total cpu time spent up to now is      605.0 secs

     total energy              =    -362.08303104 Ry
     estimated scf accuracy    <       0.00042362 Ry

     iteration # 13     ecut=    50.00 Ry     beta= 0.70
     CG style diagonalization
     c_bands:  1 eigenvalues not converged
     c_bands:  1 eigenvalues not converged
     c_bands:  1 eigenvalues not converged
     c_bands:  1 eigenvalues not converged
     c_bands:  1 eigenvalues not converged
     c_bands:  1 eigenvalues not converged
     ethr =  5.56E-09,  avg # of iterations =  6.8

     negative rho (up, down):  4.275E-02 0.000E+00

     total cpu time spent up to now is      631.8 secs

     total energy              =    -362.08301497 Ry
     estimated scf accuracy    <       0.00007467 Ry

     iteration # 14     ecut=    50.00 Ry     beta= 0.70
     CG style diagonalization
     c_bands:  1 eigenvalues not converged
     c_bands:  1 eigenvalues not converged
     c_bands:  1 eigenvalues not converged
     c_bands:  1 eigenvalues not converged
     ethr =  5.56E-09,  avg # of iterations =  6.5

     negative rho (up, down):  4.277E-02 0.000E+00

     total cpu time spent up to now is      657.8 secs

     total energy              =    -362.08303152 Ry
     estimated scf accuracy    <       0.00000113 Ry

     iteration # 15     ecut=    50.00 Ry     beta= 0.70
     CG style diagonalization
     c_bands:  1 eigenvalues not converged
     c_bands:  1 eigenvalues not converged
     ethr =  2.58E-09,  avg # of iterations =  4.8

     negative rho (up, down):  4.277E-02 0.000E+00

     total cpu time spent up to now is      676.7 secs

     total energy              =    -362.08302717 Ry
     estimated scf accuracy    <       0.00000951 Ry

     iteration # 16     ecut=    50.00 Ry     beta= 0.70
     CG style diagonalization
     c_bands:  1 eigenvalues not converged
     ethr =  2.58E-09,  avg # of iterations =  5.1

     negative rho (up, down):  4.277E-02 0.000E+00

     total cpu time spent up to now is      696.8 secs

     total energy              =    -362.08302905 Ry
     estimated scf accuracy    <       0.00000016 Ry

     iteration # 17     ecut=    50.00 Ry     beta= 0.70
     CG style diagonalization
     ethr =  3.52E-10,  avg # of iterations =  3.9

     negative rho (up, down):  4.277E-02 0.000E+00

     total cpu time spent up to now is      712.2 secs

     total energy              =    -362.08302908 Ry
     estimated scf accuracy    <       0.00000003 Ry

     iteration # 18     ecut=    50.00 Ry     beta= 0.70
     CG style diagonalization
     c_bands:  1 eigenvalues not converged
     ethr =  7.04E-11,  avg # of iterations =  4.6

     negative rho (up, down):  4.277E-02 0.000E+00

     total cpu time spent up to now is      730.1 secs

     total energy              =    -362.08312790 Ry
     estimated scf accuracy    <       0.00000325 Ry

     iteration # 19     ecut=    50.00 Ry     beta= 0.70
     CG style diagonalization
     c_bands:  1 eigenvalues not converged
     ethr =  7.04E-11,  avg # of iterations =  3.3

     negative rho (up, down):  4.277E-02 0.000E+00

     total cpu time spent up to now is      743.2 secs

     total energy              =    -362.08313201 Ry
     estimated scf accuracy    <       0.00000330 Ry

     iteration # 20     ecut=    50.00 Ry     beta= 0.70
     CG style diagonalization
     c_bands:  1 eigenvalues not converged
     ethr =  7.04E-11,  avg # of iterations =  3.0

     negative rho (up, down):  4.277E-02 0.000E+00

     total cpu time spent up to now is      755.2 secs

     total energy              =    -362.08313224 Ry
     estimated scf accuracy    <       0.00000330 Ry

     iteration # 21     ecut=    50.00 Ry     beta= 0.70
     CG style diagonalization
     c_bands:  1 eigenvalues not converged
     ethr =  7.04E-11,  avg # of iterations =  3.0

     negative rho (up, down):  4.277E-02 0.000E+00

     total cpu time spent up to now is      766.9 secs

     total energy              =    -362.08313225 Ry
     estimated scf accuracy    <       0.00000331 Ry

     iteration # 22     ecut=    50.00 Ry     beta= 0.70
     CG style diagonalization
     c_bands:  1 eigenvalues not converged
     ethr =  7.04E-11,  avg # of iterations =  3.0

     negative rho (up, down):  4.277E-02 0.000E+00

     total cpu time spent up to now is      778.7 secs

     total energy              =    -362.08313220 Ry
     estimated scf accuracy    <       0.00000329 Ry

     iteration # 23     ecut=    50.00 Ry     beta= 0.70
     CG style diagonalization
     ethr =  7.04E-11,  avg # of iterations =  3.0

     negative rho (up, down):  4.277E-02 0.000E+00

     total cpu time spent up to now is      790.5 secs

     total energy              =    -362.08313217 Ry
     estimated scf accuracy    <       0.00000318 Ry

     iteration # 24     ecut=    50.00 Ry     beta= 0.70
     CG style diagonalization
     ethr =  7.04E-11,  avg # of iterations =  3.0

     negative rho (up, down):  4.276E-02 0.000E+00

     total cpu time spent up to now is      802.2 secs

     total energy              =    -362.08313210 Ry
     estimated scf accuracy    <       0.00000311 Ry

     iteration # 25     ecut=    50.00 Ry     beta= 0.70
     CG style diagonalization
     ethr =  7.04E-11,  avg # of iterations =  3.0

     negative rho (up, down):  4.276E-02 0.000E+00

     total cpu time spent up to now is      814.1 secs

     total energy              =    -362.08313204 Ry
     estimated scf accuracy    <       0.00000296 Ry

     iteration # 26     ecut=    50.00 Ry     beta= 0.70
     CG style diagonalization
     ethr =  7.04E-11,  avg # of iterations =  3.1

     negative rho (up, down):  4.277E-02 0.000E+00

     total cpu time spent up to now is      826.3 secs

     total energy              =    -362.08313089 Ry
     estimated scf accuracy    <       0.00000277 Ry

     iteration # 27     ecut=    50.00 Ry     beta= 0.70
     CG style diagonalization
     c_bands:  1 eigenvalues not converged
     c_bands:  1 eigenvalues not converged
     ethr =  7.04E-11,  avg # of iterations =  7.1

     negative rho (up, down):  4.277E-02 0.000E+00

     total cpu time spent up to now is      854.4 secs

     total energy              =    -362.08313101 Ry
     estimated scf accuracy    <       0.00000032 Ry

     iteration # 28     ecut=    50.00 Ry     beta= 0.70
     CG style diagonalization
     ethr =  7.04E-11,  avg # of iterations =  4.6

     negative rho (up, down):  4.277E-02 0.000E+00

     total cpu time spent up to now is      872.4 secs

     total energy              =    -362.08313100 Ry
     estimated scf accuracy    <       0.00000007 Ry

     iteration # 29     ecut=    50.00 Ry     beta= 0.70
     CG style diagonalization
     ethr =  7.04E-11,  avg # of iterations =  4.3

     negative rho (up, down):  4.277E-02 0.000E+00

     total cpu time spent up to now is      890.0 secs

     End of self-consistent calculation

     Number of k-points >= 100: set verbosity='high' to print the bands.

     highest occupied level (ev):    64.6206

!    total energy              =    -362.08313101 Ry
     estimated scf accuracy    <          3.5E-09 Ry

     The total energy is the sum of the following terms:
     one-electron contribution =     135.82767831 Ry
     hartree contribution      =      37.09422863 Ry
     xc contribution           =    -115.68012758 Ry
     ewald contribution        =    -419.32491036 Ry

     convergence has been achieved in  29 iterations

     negative rho (up, down):  4.277E-02 0.000E+00

     Forces acting on atoms (cartesian axes, Ry/au):

     atom    1 type  1   force =     4.77751619   -4.77751619    4.63349905
     atom    2 type  2   force =     0.58823203   -0.58823203   -2.54739764
     atom    3 type  3   force =    -0.35025918    0.35025918    0.27661287
     atom    4 type  3   force =    -0.47384101    4.54164802   -1.18135714
     atom    5 type  3   force =    -4.54164802    0.47384101   -1.18135714

     Total force =    10.913990     Total SCF correction =     0.000268


     Computing stress (Cartesian axis) and pressure


     negative rho (up, down):  4.277E-02 0.000E+00
          total   stress  (Ry/bohr**3)                   (kbar)     P=    52613.19
   0.36086534   0.00139739   0.05762143        53085.12      205.56     8476.40
   0.00139739   0.36086534  -0.05762143          205.56    53085.12    -8476.40
   0.05762143  -0.05762143   0.35124089         8476.40    -8476.40    51669.32

     Energy error            =      4.9E-01 Ry
     Gradient error          =      4.8E+00 Ry/Bohr

     number of scf cycles    =   2
     number of bfgs steps    =   1

     energy             old  =    -362.5761386283 Ry
     energy             new  =    -362.0831310090 Ry

     CASE: energy            _new > energy            _old

     new trust radius        =       0.2281450903 bohr
     new conv_thr            =       0.0000000100 Ry


ATOMIC_POSITIONS (crystal)
Pb           -0.0311939142       -0.0311939142        1.0434043615
Ti            0.5108871133        0.5108871133        0.5485266233
O             0.4991348996        0.4991348996        0.0911754840
O             0.5307850061       -0.0096131047        0.5920889096
O            -0.0096131047        0.5307850061        0.5920889096



     Writing config-only to output data dir ./PTO.save/
     NEW-OLD atomic charge density approx. for the potential

     negative rho (up, down):  3.335E-02 0.000E+00

     total cpu time spent up to now is      897.1 secs

     Self-consistent Calculation

     iteration #  1     ecut=    50.00 Ry     beta= 0.70
     CG style diagonalization
     c_bands:  1 eigenvalues not converged
     c_bands:  1 eigenvalues not converged
     c_bands:  1 eigenvalues not converged
     c_bands:  5 eigenvalues not converged
     c_bands:  1 eigenvalues not converged
     c_bands:  1 eigenvalues not converged
     c_bands:  1 eigenvalues not converged
     c_bands:  1 eigenvalues not converged
     c_bands:  1 eigenvalues not converged
     ethr =  1.00E-06,  avg # of iterations = 24.6

     negative rho (up, down):  3.868E-02 0.000E+00

     total cpu time spent up to now is      992.5 secs

     total energy              =    -363.64717984 Ry
     estimated scf accuracy    <       0.18561564 Ry

     iteration #  2     ecut=    50.00 Ry     beta= 0.70
     CG style diagonalization
     ethr =  4.22E-04,  avg # of iterations =  3.9

     negative rho (up, down):  4.119E-02 0.000E+00

     total cpu time spent up to now is     1007.8 secs

     total energy              =    -363.67557761 Ry
     estimated scf accuracy    <       0.02745734 Ry

     iteration #  3     ecut=    50.00 Ry     beta= 0.70
     CG style diagonalization
     ethr =  6.24E-05,  avg # of iterations =  4.4

     negative rho (up, down):  4.245E-02 0.000E+00

     total cpu time spent up to now is     1025.2 secs

     total energy              =    -363.69081798 Ry
     estimated scf accuracy    <       0.00496221 Ry

     iteration #  4     ecut=    50.00 Ry     beta= 0.70
     CG style diagonalization
     ethr =  1.13E-05,  avg # of iterations =  5.0

     negative rho (up, down):  4.289E-02 0.000E+00

     total cpu time spent up to now is     1045.0 secs

     total energy              =    -363.69334086 Ry
     estimated scf accuracy    <       0.00221833 Ry

     iteration #  5     ecut=    50.00 Ry     beta= 0.70
     CG style diagonalization
     ethr =  5.04E-06,  avg # of iterations =  4.3

     negative rho (up, down):  4.318E-02 0.000E+00

     total cpu time spent up to now is     1062.1 secs

     total energy              =    -363.69409789 Ry
     estimated scf accuracy    <       0.00027367 Ry

     iteration #  6     ecut=    50.00 Ry     beta= 0.70
     CG style diagonalization
     c_bands:  1 eigenvalues not converged
     ethr =  6.22E-07,  avg # of iterations =  5.1

     negative rho (up, down):  4.324E-02 0.000E+00

     total cpu time spent up to now is     1082.3 secs

     total energy              =    -363.69428681 Ry
     estimated scf accuracy    <       0.00001331 Ry

     iteration #  7     ecut=    50.00 Ry     beta= 0.70
     CG style diagonalization
     c_bands:  1 eigenvalues not converged
     c_bands:  1 eigenvalues not converged
     c_bands:  1 eigenvalues not converged
     c_bands:  1 eigenvalues not converged
     c_bands:  1 eigenvalues not converged
     c_bands:  1 eigenvalues not converged
     ethr =  3.02E-08,  avg # of iterations =  7.9

     negative rho (up, down):  4.322E-02 0.000E+00

     total cpu time spent up to now is     1113.7 secs

     total energy              =    -363.69555225 Ry
     estimated scf accuracy    <       0.00003034 Ry

     iteration #  8     ecut=    50.00 Ry     beta= 0.70
     CG style diagonalization
     c_bands:  1 eigenvalues not converged
     c_bands:  1 eigenvalues not converged
     c_bands:  1 eigenvalues not converged
     ethr =  3.02E-08,  avg # of iterations =  3.7

     negative rho (up, down):  4.325E-02 0.000E+00

     total cpu time spent up to now is     1128.4 secs

     total energy              =    -363.69592905 Ry
     estimated scf accuracy    <       0.00001130 Ry

     iteration #  9     ecut=    50.00 Ry     beta= 0.70
     CG style diagonalization
     c_bands:  1 eigenvalues not converged
     ethr =  2.57E-08,  avg # of iterations =  3.2

     negative rho (up, down):  4.327E-02 0.000E+00

     total cpu time spent up to now is     1141.0 secs

     total energy              =    -363.69592984 Ry
     estimated scf accuracy    <       0.00000283 Ry

     iteration # 10     ecut=    50.00 Ry     beta= 0.70
     CG style diagonalization
     c_bands:  1 eigenvalues not converged
     c_bands:  1 eigenvalues not converged
     c_bands:  1 eigenvalues not converged
     c_bands:  1 eigenvalues not converged
     ethr =  6.44E-09,  avg # of iterations =  4.9

     negative rho (up, down):  4.325E-02 0.000E+00

     total cpu time spent up to now is     1160.3 secs

     total energy              =    -363.69593137 Ry
     estimated scf accuracy    <       0.00000075 Ry

     iteration # 11     ecut=    50.00 Ry     beta= 0.70
     CG style diagonalization
     c_bands:  1 eigenvalues not converged
     ethr =  1.71E-09,  avg # of iterations =  6.1

     negative rho (up, down):  4.324E-02 0.000E+00

     total cpu time spent up to now is     1184.3 secs

     total energy              =    -363.69593205 Ry
     estimated scf accuracy    <       0.00000020 Ry

     iteration # 12     ecut=    50.00 Ry     beta= 0.70
     CG style diagonalization
     ethr =  4.54E-10,  avg # of iterations =  4.6

     negative rho (up, down):  4.323E-02 0.000E+00

     total cpu time spent up to now is     1202.7 secs

     total energy              =    -363.69593211 Ry
     estimated scf accuracy    <       0.00000009 Ry

     iteration # 13     ecut=    50.00 Ry     beta= 0.70
     CG style diagonalization
     c_bands:  1 eigenvalues not converged
     ethr =  2.12E-10,  avg # of iterations =  4.2

     negative rho (up, down):  4.322E-02 0.000E+00

     total cpu time spent up to now is     1219.4 secs

     End of self-consistent calculation

     Number of k-points >= 100: set verbosity='high' to print the bands.

     highest occupied level (ev):    64.6718

!    total energy              =    -363.69593214 Ry
     estimated scf accuracy    <          1.8E-09 Ry

     The total energy is the sum of the following terms:
     one-electron contribution =     144.89000381 Ry
     hartree contribution      =      33.27647456 Ry
     xc contribution           =    -115.19506690 Ry
     ewald contribution        =    -426.66734361 Ry

     convergence has been achieved in  13 iterations

     negative rho (up, down):  4.322E-02 0.000E+00

     Forces acting on atoms (cartesian axes, Ry/au):

     atom    1 type  1   force =     1.58259754   -1.58259754   -0.30675863
     atom    2 type  2   force =    -0.43784073    0.43784073    0.07548729
     atom    3 type  3   force =     0.15672261   -0.15672261    0.04836169
     atom    4 type  3   force =    -0.37449215    0.92698728    0.09145483
     atom    5 type  3   force =    -0.92698728    0.37449215    0.09145483

     Total force =     2.749496     Total SCF correction =     0.000153


     Computing stress (Cartesian axis) and pressure


     negative rho (up, down):  4.322E-02 0.000E+00
          total   stress  (Ry/bohr**3)                   (kbar)     P=    49919.30
   0.33921421   0.03093790   0.04040455        49900.13     4551.12     5943.72
   0.03093790   0.33921421  -0.04040455         4551.12    49900.13    -5943.72
   0.04040455  -0.04040455   0.33960515         5943.72    -5943.72    49957.64

     Energy error            =      1.1E+00 Ry
     Gradient error          =      1.6E+00 Ry/Bohr

     number of scf cycles    =   3
     number of bfgs steps    =   1

     energy             old  =    -362.5761386283 Ry
     energy             new  =    -363.6959321445 Ry

     CASE: energy            _new < energy            _old

     new trust radius        =       0.6844352710 bohr
     new conv_thr            =       0.0000000100 Ry


ATOMIC_POSITIONS (crystal)
Pb           -0.0759860217       -0.0759860217        0.9713944997
Ti            0.5252868608        0.5252868608        0.5880996030
O             0.5001139417        0.5001139417        0.0693283642
O             0.5452865906        0.0052986286        0.6192309106
O             0.0052986286        0.5452865906        0.6192309106



     Writing config-only to output data dir ./PTO.save/
     NEW-OLD atomic charge density approx. for the potential

     negative rho (up, down):  9.432E-03 0.000E+00

     total cpu time spent up to now is     1226.2 secs

     Self-consistent Calculation

     iteration #  1     ecut=    50.00 Ry     beta= 0.70
     CG style diagonalization
     c_bands:  1 eigenvalues not converged
     c_bands:  1 eigenvalues not converged
     c_bands:  1 eigenvalues not converged
     c_bands:  1 eigenvalues not converged
     c_bands:  1 eigenvalues not converged
     c_bands:  1 eigenvalues not converged
     c_bands:  1 eigenvalues not converged
     c_bands:  1 eigenvalues not converged
     c_bands:  1 eigenvalues not converged
     c_bands:  1 eigenvalues not converged
     c_bands:  1 eigenvalues not converged
     c_bands:  1 eigenvalues not converged
     c_bands:  2 eigenvalues not converged
     c_bands:  1 eigenvalues not converged
     ethr =  1.00E-06,  avg # of iterations = 27.0

     negative rho (up, down):  2.823E-02 0.000E+00

     total cpu time spent up to now is     1331.4 secs

     total energy              =    -364.56899447 Ry
     estimated scf accuracy    <       0.46483877 Ry

     iteration #  2     ecut=    50.00 Ry     beta= 0.70
     CG style diagonalization
     c_bands:  1 eigenvalues not converged
     ethr =  1.06E-03,  avg # of iterations =  4.4

     negative rho (up, down):  3.056E-02 0.000E+00

     total cpu time spent up to now is     1349.3 secs

     total energy              =    -364.59130377 Ry
     estimated scf accuracy    <       0.52560713 Ry

     iteration #  3     ecut=    50.00 Ry     beta= 0.70
     CG style diagonalization
     ethr =  1.06E-03,  avg # of iterations =  4.0

     negative rho (up, down):  3.432E-02 0.000E+00

     total cpu time spent up to now is     1365.5 secs

     total energy              =    -364.72131904 Ry
     estimated scf accuracy    <       0.03080367 Ry

     iteration #  4     ecut=    50.00 Ry     beta= 0.70
     CG style diagonalization
     ethr =  7.00E-05,  avg # of iterations =  4.1

     negative rho (up, down):  3.613E-02 0.000E+00

     total cpu time spent up to now is     1381.5 secs

     total energy              =    -364.73429479 Ry
     estimated scf accuracy    <       0.00117977 Ry

     iteration #  5     ecut=    50.00 Ry     beta= 0.70
     CG style diagonalization
     c_bands:  1 eigenvalues not converged
     ethr =  2.68E-06,  avg # of iterations =  6.2

     negative rho (up, down):  3.670E-02 0.000E+00

     total cpu time spent up to now is     1406.0 secs

     total energy              =    -364.73658364 Ry
     estimated scf accuracy    <       0.00034785 Ry

     iteration #  6     ecut=    50.00 Ry     beta= 0.70
     CG style diagonalization
     ethr =  7.91E-07,  avg # of iterations =  4.9

     negative rho (up, down):  3.719E-02 0.000E+00

     total cpu time spent up to now is     1425.2 secs

     total energy              =    -364.73673669 Ry
     estimated scf accuracy    <       0.00003482 Ry

     iteration #  7     ecut=    50.00 Ry     beta= 0.70
     CG style diagonalization
     ethr =  7.91E-08,  avg # of iterations =  7.1

     negative rho (up, down):  3.732E-02 0.000E+00

     total cpu time spent up to now is     1453.5 secs

     total energy              =    -364.73679146 Ry
     estimated scf accuracy    <       0.00001737 Ry

     iteration #  8     ecut=    50.00 Ry     beta= 0.70
     CG style diagonalization
     ethr =  3.95E-08,  avg # of iterations =  4.4

     negative rho (up, down):  3.739E-02 0.000E+00

     total cpu time spent up to now is     1471.0 secs

     total energy              =    -364.73679752 Ry
     estimated scf accuracy    <       0.00000137 Ry

     iteration #  9     ecut=    50.00 Ry     beta= 0.70
     CG style diagonalization
     ethr =  3.11E-09,  avg # of iterations =  7.7

     negative rho (up, down):  3.748E-02 0.000E+00

     total cpu time spent up to now is     1501.9 secs

     total energy              =    -364.73680053 Ry
     estimated scf accuracy    <       0.00000057 Ry

     iteration # 10     ecut=    50.00 Ry     beta= 0.70
     CG style diagonalization
     ethr =  1.29E-09,  avg # of iterations =  4.6

     negative rho (up, down):  3.748E-02 0.000E+00

     total cpu time spent up to now is     1519.7 secs

     End of self-consistent calculation

     Number of k-points >= 100: set verbosity='high' to print the bands.

     highest occupied level (ev):    65.1533

!    total energy              =    -364.73680077 Ry
     estimated scf accuracy    <          4.4E-09 Ry

     The total energy is the sum of the following terms:
     one-electron contribution =     146.77162548 Ry
     hartree contribution      =      32.26317790 Ry
     xc contribution           =    -115.01157503 Ry
     ewald contribution        =    -428.76002912 Ry

     convergence has been achieved in  10 iterations

     negative rho (up, down):  3.748E-02 0.000E+00

     Forces acting on atoms (cartesian axes, Ry/au):

     atom    1 type  1   force =    -0.21859518    0.21859518   -0.68264986
     atom    2 type  2   force =     1.81653543   -1.81653543   -0.31915308
     atom    3 type  3   force =    -1.42427133    1.42427133   -0.62592526
     atom    4 type  3   force =     0.40747718    0.58114611    0.81386410
     atom    5 type  3   force =    -0.58114611   -0.40747718    0.81386410

     Total force =     3.747560     Total SCF correction =     0.000137


     Computing stress (Cartesian axis) and pressure


     negative rho (up, down):  3.748E-02 0.000E+00
          total   stress  (Ry/bohr**3)                   (kbar)     P=    47361.80
   0.32822526   0.01611679   0.00009905        48283.60     2370.86       14.57
   0.01611679   0.32822526  -0.00009905         2370.86    48283.60      -14.57
   0.00009905  -0.00009905   0.30942636           14.57      -14.57    45518.19

     Energy error            =      1.0E+00 Ry
     Gradient error          =      1.8E+00 Ry/Bohr

     number of scf cycles    =   4
     number of bfgs steps    =   2

     energy             old  =    -363.6959321445 Ry
     energy             new  =    -364.7368007702 Ry

     CASE: energy            _new < energy            _old

     new trust radius        =       0.8000000000 bohr
     new conv_thr            =       0.0000000100 Ry


ATOMIC_POSITIONS (crystal)
Pb           -0.1520475748       -0.1520475748        0.9351048546
Ti            0.5346425634        0.5346425634        0.5393484290
O             0.4831367667        0.4831367667        0.1421232494
O             0.5642775691        0.0699906757        0.6253538775
O             0.0699906757        0.5642775691        0.6253538775



     Writing config-only to output data dir ./PTO.save/
     NEW-OLD atomic charge density approx. for the potential

     negative rho (up, down):  5.552E-03 0.000E+00

     total cpu time spent up to now is     1526.5 secs

     Self-consistent Calculation

     iteration #  1     ecut=    50.00 Ry     beta= 0.70
     CG style diagonalization
     c_bands:  2 eigenvalues not converged
     c_bands:  2 eigenvalues not converged
     c_bands:  2 eigenvalues not converged
     c_bands:  1 eigenvalues not converged
     c_bands:  1 eigenvalues not converged
     c_bands:  1 eigenvalues not converged
     c_bands:  1 eigenvalues not converged
     c_bands:  1 eigenvalues not converged
     c_bands:  3 eigenvalues not converged
     c_bands:  1 eigenvalues not converged
     c_bands:  1 eigenvalues not converged
     c_bands:  1 eigenvalues not converged
     c_bands:  1 eigenvalues not converged
     c_bands:  1 eigenvalues not converged
     c_bands:  1 eigenvalues not converged
     c_bands:  1 eigenvalues not converged
     c_bands:  1 eigenvalues not converged
     c_bands:  1 eigenvalues not converged
     c_bands:  1 eigenvalues not converged
     c_bands:  2 eigenvalues not converged
     c_bands:  1 eigenvalues not converged
     c_bands:  1 eigenvalues not converged
     c_bands:  1 eigenvalues not converged
     c_bands:  1 eigenvalues not converged
     c_bands:  1 eigenvalues not converged
     c_bands:  1 eigenvalues not converged
     ethr =  1.00E-06,  avg # of iterations = 28.8

     negative rho (up, down):  1.370E-02 0.000E+00

     total cpu time spent up to now is     1639.1 secs

     total energy              =    -359.69252313 Ry
     estimated scf accuracy    <       0.99515245 Ry

     iteration #  2     ecut=    50.00 Ry     beta= 0.70
     CG style diagonalization
     ethr =  2.26E-03,  avg # of iterations =  4.2

     negative rho (up, down):  1.978E-02 0.000E+00

     total cpu time spent up to now is     1657.2 secs

     total energy              =    -359.86327909 Ry
     estimated scf accuracy    <       0.27076778 Ry

     iteration #  3     ecut=    50.00 Ry     beta= 0.70
     CG style diagonalization
     ethr =  6.15E-04,  avg # of iterations =  4.2

     negative rho (up, down):  2.508E-02 0.000E+00

     total cpu time spent up to now is     1673.9 secs

     total energy              =    -359.97079686 Ry
     estimated scf accuracy    <       0.04603826 Ry

     iteration #  4     ecut=    50.00 Ry     beta= 0.70
     CG style diagonalization
     c_bands:  1 eigenvalues not converged
     c_bands:  1 eigenvalues not converged
     c_bands:  1 eigenvalues not converged
     ethr =  1.05E-04,  avg # of iterations =  4.5

     negative rho (up, down):  2.874E-02 0.000E+00

     total cpu time spent up to now is     1691.5 secs

     total energy              =    -359.99196678 Ry
     estimated scf accuracy    <       0.01165955 Ry

     iteration #  5     ecut=    50.00 Ry     beta= 0.70
     CG style diagonalization
     ethr =  2.65E-05,  avg # of iterations =  4.6

     negative rho (up, down):  3.265E-02 0.000E+00

     total cpu time spent up to now is     1709.7 secs

     total energy              =    -359.99648471 Ry
     estimated scf accuracy    <       0.00170405 Ry

     iteration #  6     ecut=    50.00 Ry     beta= 0.70
     CG style diagonalization
     ethr =  3.87E-06,  avg # of iterations =  5.2

     negative rho (up, down):  3.509E-02 0.000E+00

     total cpu time spent up to now is     1730.3 secs

     total energy              =    -359.99753029 Ry
     estimated scf accuracy    <       0.00028326 Ry

     iteration #  7     ecut=    50.00 Ry     beta= 0.70
     CG style diagonalization
     c_bands:  1 eigenvalues not converged
     ethr =  6.44E-07,  avg # of iterations =  5.4

     negative rho (up, down):  3.476E-02 0.000E+00

     total cpu time spent up to now is     1753.6 secs

     total energy              =    -359.99775746 Ry
     estimated scf accuracy    <       0.00005698 Ry

     iteration #  8     ecut=    50.00 Ry     beta= 0.70
     CG style diagonalization
     c_bands:  1 eigenvalues not converged
     c_bands:  1 eigenvalues not converged
     ethr =  1.29E-07,  avg # of iterations =  5.7

     negative rho (up, down):  3.484E-02 0.000E+00

     total cpu time spent up to now is     1777.6 secs

     total energy              =    -359.99780822 Ry
     estimated scf accuracy    <       0.00000366 Ry

     iteration #  9     ecut=    50.00 Ry     beta= 0.70
     CG style diagonalization
     ethr =  8.33E-09,  avg # of iterations =  7.2

     negative rho (up, down):  3.499E-02 0.000E+00

     total cpu time spent up to now is     1806.8 secs

     total energy              =    -359.99781724 Ry
     estimated scf accuracy    <       0.00000094 Ry

     iteration # 10     ecut=    50.00 Ry     beta= 0.70
     CG style diagonalization
     ethr =  2.13E-09,  avg # of iterations =  5.0

     negative rho (up, down):  3.497E-02 0.000E+00

     total cpu time spent up to now is     1826.4 secs

     total energy              =    -359.99781776 Ry
     estimated scf accuracy    <       0.00000019 Ry

     iteration # 11     ecut=    50.00 Ry     beta= 0.70
     CG style diagonalization
     ethr =  4.22E-10,  avg # of iterations =  5.2

     negative rho (up, down):  3.496E-02 0.000E+00

     total cpu time spent up to now is     1846.7 secs

     End of self-consistent calculation

     Number of k-points >= 100: set verbosity='high' to print the bands.

     highest occupied level (ev):    65.0706

!    total energy              =    -359.99781790 Ry
     estimated scf accuracy    <          4.6E-09 Ry

     The total energy is the sum of the following terms:
     one-electron contribution =     123.07177970 Ry
     hartree contribution      =      42.60292610 Ry
     xc contribution           =    -116.36811346 Ry
     ewald contribution        =    -409.30441024 Ry

     convergence has been achieved in  11 iterations

     negative rho (up, down):  3.496E-02 0.000E+00

     Forces acting on atoms (cartesian axes, Ry/au):

     atom    1 type  1   force =    -5.57390890    5.57390890    3.97103014
     atom    2 type  2   force =    -2.72391807    2.72391807    3.16036833
     atom    3 type  3   force =     2.10886404   -2.10886404   -1.27167910
     atom    4 type  3   force =     3.70264530   -2.48631763   -2.92985968
     atom    5 type  3   force =     2.48631763   -3.70264530   -2.92985968

     Total force =    13.045921     Total SCF correction =     0.000292


     Computing stress (Cartesian axis) and pressure


     negative rho (up, down):  3.496E-02 0.000E+00
          total   stress  (Ry/bohr**3)                   (kbar)     P=    54664.13
   0.39015777  -0.02918626  -0.00432268        57394.19    -4293.45     -635.89
  -0.02918626   0.39015777   0.00432268        -4293.45    57394.19      635.89
  -0.00432268   0.00432268   0.33448203         -635.89      635.89    49204.00

     Energy error            =      4.7E+00 Ry
     Gradient error          =      5.6E+00 Ry/Bohr

     number of scf cycles    =   5
     number of bfgs steps    =   3

     energy             old  =    -364.7368007702 Ry
     energy             new  =    -359.9978178991 Ry

     CASE: energy            _new > energy            _old

     new trust radius        =       0.1217700519 bohr
     new conv_thr            =       0.0000000100 Ry


ATOMIC_POSITIONS (crystal)
Pb           -0.0875635458       -0.0875635458        0.9658707597
Ti            0.5267109163        0.5267109163        0.5806790618
O             0.4975298024        0.4975298024        0.0804086604
O             0.5481772561        0.0151455710        0.6201629031
O             0.0151455710        0.5481772561        0.6201629031



     Writing config-only to output data dir ./PTO.save/
     NEW-OLD atomic charge density approx. for the potential

     negative rho (up, down):  8.746E-03 0.000E+00

     total cpu time spent up to now is     1853.5 secs

     Self-consistent Calculation

     iteration #  1     ecut=    50.00 Ry     beta= 0.70
     CG style diagonalization
     c_bands:  1 eigenvalues not converged
     c_bands:  1 eigenvalues not converged
     c_bands:  1 eigenvalues not converged
     c_bands:  1 eigenvalues not converged
     c_bands:  1 eigenvalues not converged
     c_bands:  1 eigenvalues not converged
     c_bands:  1 eigenvalues not converged
     c_bands:  2 eigenvalues not converged
     c_bands:  1 eigenvalues not converged
     c_bands:  1 eigenvalues not converged
     c_bands:  1 eigenvalues not converged
     c_bands:  4 eigenvalues not converged
     c_bands:  1 eigenvalues not converged
     c_bands:  1 eigenvalues not converged
     c_bands:  1 eigenvalues not converged
     c_bands:  2 eigenvalues not converged
     c_bands:  1 eigenvalues not converged
     c_bands:  1 eigenvalues not converged
     c_bands:  1 eigenvalues not converged
     c_bands:  2 eigenvalues not converged
     c_bands:  1 eigenvalues not converged
     c_bands:  1 eigenvalues not converged
     c_bands:  1 eigenvalues not converged
     c_bands:  1 eigenvalues not converged
     c_bands:  2 eigenvalues not converged
     c_bands:  1 eigenvalues not converged
     c_bands:  1 eigenvalues not converged
     c_bands:  1 eigenvalues not converged
     c_bands:  2 eigenvalues not converged
     c_bands:  1 eigenvalues not converged
     c_bands:  1 eigenvalues not converged
     c_bands:  1 eigenvalues not converged
     c_bands:  2 eigenvalues not converged
     c_bands:  1 eigenvalues not converged
     ethr =  1.00E-06,  avg # of iterations = 28.1

     negative rho (up, down):  2.725E-02 0.000E+00

     total cpu time spent up to now is     1962.2 secs

     total energy              =    -364.74093480 Ry
     estimated scf accuracy    <       0.67393198 Ry

     iteration #  2     ecut=    50.00 Ry     beta= 0.70
     CG style diagonalization
     ethr =  1.53E-03,  avg # of iterations =  4.1

     negative rho (up, down):  3.073E-02 0.000E+00

     total cpu time spent up to now is     1979.1 secs

     total energy              =    -364.82001942 Ry
     estimated scf accuracy    <       0.24101850 Ry

     iteration #  3     ecut=    50.00 Ry     beta= 0.70
     CG style diagonalization
     ethr =  5.48E-04,  avg # of iterations =  4.1

     negative rho (up, down):  3.402E-02 0.000E+00

     total cpu time spent up to now is     1995.4 secs

     total energy              =    -364.90134789 Ry
     estimated scf accuracy    <       0.05308295 Ry

     iteration #  4     ecut=    50.00 Ry     beta= 0.70
     CG style diagonalization
     ethr =  1.21E-04,  avg # of iterations =  4.1

     negative rho (up, down):  3.563E-02 0.000E+00

     total cpu time spent up to now is     2011.4 secs

     total energy              =    -364.91725245 Ry
     estimated scf accuracy    <       0.00684895 Ry

     iteration #  5     ecut=    50.00 Ry     beta= 0.70
     CG style diagonalization
     ethr =  1.56E-05,  avg # of iterations =  4.6

     negative rho (up, down):  3.638E-02 0.000E+00

     total cpu time spent up to now is     2029.8 secs

     total energy              =    -364.92057494 Ry
     estimated scf accuracy    <       0.00078134 Ry

     iteration #  6     ecut=    50.00 Ry     beta= 0.70
     CG style diagonalization
     ethr =  1.78E-06,  avg # of iterations =  6.1

     negative rho (up, down):  3.718E-02 0.000E+00

     total cpu time spent up to now is     2053.8 secs

     total energy              =    -364.92130344 Ry
     estimated scf accuracy    <       0.00013374 Ry

     iteration #  7     ecut=    50.00 Ry     beta= 0.70
     CG style diagonalization
     ethr =  3.04E-07,  avg # of iterations =  6.0

     negative rho (up, down):  3.719E-02 0.000E+00

     total cpu time spent up to now is     2077.4 secs

     total energy              =    -364.92142526 Ry
     estimated scf accuracy    <       0.00004803 Ry

     iteration #  8     ecut=    50.00 Ry     beta= 0.70
     CG style diagonalization
     ethr =  1.09E-07,  avg # of iterations =  4.9

     negative rho (up, down):  3.737E-02 0.000E+00

     total cpu time spent up to now is     2097.0 secs

     total energy              =    -364.92145169 Ry
     estimated scf accuracy    <       0.00000243 Ry

     iteration #  9     ecut=    50.00 Ry     beta= 0.70
     CG style diagonalization
     ethr =  5.52E-09,  avg # of iterations =  8.7

     negative rho (up, down):  3.746E-02 0.000E+00

     total cpu time spent up to now is     2131.9 secs

     total energy              =    -364.92146243 Ry
     estimated scf accuracy    <       0.00000037 Ry

     iteration # 10     ecut=    50.00 Ry     beta= 0.70
     CG style diagonalization
     ethr =  8.45E-10,  avg # of iterations =  5.9

     negative rho (up, down):  3.748E-02 0.000E+00

     total cpu time spent up to now is     2155.4 secs

     total energy              =    -364.92146280 Ry
     estimated scf accuracy    <       0.00000004 Ry

     iteration # 11     ecut=    50.00 Ry     beta= 0.70
     CG style diagonalization
     c_bands:  1 eigenvalues not converged
     ethr =  9.28E-11,  avg # of iterations =  7.1

     negative rho (up, down):  3.747E-02 0.000E+00

     total cpu time spent up to now is     2183.6 secs

     total energy              =    -364.92414552 Ry
     estimated scf accuracy    <       0.00008904 Ry

     iteration # 12     ecut=    50.00 Ry     beta= 0.70
     CG style diagonalization
     c_bands:  1 eigenvalues not converged
     ethr =  9.28E-11,  avg # of iterations =  3.2

     negative rho (up, down):  3.747E-02 0.000E+00

     total cpu time spent up to now is     2196.8 secs

     total energy              =    -364.92415303 Ry
     estimated scf accuracy    <       0.00008938 Ry

     iteration # 13     ecut=    50.00 Ry     beta= 0.70
     CG style diagonalization
     ethr =  9.28E-11,  avg # of iterations =  3.0

     negative rho (up, down):  3.748E-02 0.000E+00

     total cpu time spent up to now is     2208.6 secs

     total energy              =    -364.92415208 Ry
     estimated scf accuracy    <       0.00008903 Ry

     iteration # 14     ecut=    50.00 Ry     beta= 0.70
     CG style diagonalization
     ethr =  9.28E-11,  avg # of iterations =  3.5

     negative rho (up, down):  3.748E-02 0.000E+00

     total cpu time spent up to now is     2222.2 secs

     total energy              =    -364.92415147 Ry
     estimated scf accuracy    <       0.00008597 Ry

     iteration # 15     ecut=    50.00 Ry     beta= 0.70
     CG style diagonalization
     ethr =  9.28E-11,  avg # of iterations =  3.2

     negative rho (up, down):  3.748E-02 0.000E+00

     total cpu time spent up to now is     2234.6 secs

     total energy              =    -364.92414828 Ry
     estimated scf accuracy    <       0.00008407 Ry

     iteration # 16     ecut=    50.00 Ry     beta= 0.70
     CG style diagonalization
     ethr =  9.28E-11,  avg # of iterations =  5.0

     negative rho (up, down):  3.748E-02 0.000E+00

     total cpu time spent up to now is     2255.1 secs

     total energy              =    -364.92414583 Ry
     estimated scf accuracy    <       0.00007348 Ry

     iteration # 17     ecut=    50.00 Ry     beta= 0.70
     CG style diagonalization
     ethr =  9.28E-11,  avg # of iterations =  4.8

     negative rho (up, down):  3.749E-02 0.000E+00

     total cpu time spent up to now is     2274.6 secs

     total energy              =    -364.92412449 Ry
     estimated scf accuracy    <       0.00006496 Ry

     iteration # 18     ecut=    50.00 Ry     beta= 0.70
     CG style diagonalization
     c_bands:  1 eigenvalues not converged
     c_bands:  1 eigenvalues not converged
     c_bands:  1 eigenvalues not converged
     c_bands:  1 eigenvalues not converged
     c_bands:  1 eigenvalues not converged
     c_bands:  1 eigenvalues not converged
     c_bands:  1 eigenvalues not converged
     c_bands:  1 eigenvalues not converged
     c_bands:  1 eigenvalues not converged
     c_bands:  1 eigenvalues not converged
     ethr =  9.28E-11,  avg # of iterations =  9.9

     negative rho (up, down):  3.749E-02 0.000E+00

     total cpu time spent up to now is     2314.1 secs

     total energy              =    -364.92496417 Ry
     estimated scf accuracy    <       0.00004395 Ry

     iteration # 19     ecut=    50.00 Ry     beta= 0.70
     CG style diagonalization
     c_bands:  1 eigenvalues not converged
     ethr =  9.28E-11,  avg # of iterations =  4.6

     negative rho (up, down):  3.749E-02 0.000E+00

     total cpu time spent up to now is     2332.4 secs

     total energy              =    -364.92513246 Ry
     estimated scf accuracy    <       0.00004223 Ry

     iteration # 20     ecut=    50.00 Ry     beta= 0.70
     CG style diagonalization
     c_bands:  1 eigenvalues not converged
     c_bands:  1 eigenvalues not converged
     c_bands:  1 eigenvalues not converged
     c_bands:  1 eigenvalues not converged
     c_bands:  1 eigenvalues not converged
     c_bands:  1 eigenvalues not converged
     ethr =  9.28E-11,  avg # of iterations =  7.9

     negative rho (up, down):  3.749E-02 0.000E+00

     total cpu time spent up to now is     2363.7 secs

     total energy              =    -364.92513358 Ry
     estimated scf accuracy    <       0.00004308 Ry

     iteration # 21     ecut=    50.00 Ry     beta= 0.70
     CG style diagonalization
     c_bands:  1 eigenvalues not converged
     ethr =  9.28E-11,  avg # of iterations =  3.5

     negative rho (up, down):  3.748E-02 0.000E+00

     total cpu time spent up to now is     2377.4 secs

     total energy              =    -364.92513380 Ry
     estimated scf accuracy    <       0.00004287 Ry

     iteration # 22     ecut=    50.00 Ry     beta= 0.70
     CG style diagonalization
     ethr =  9.28E-11,  avg # of iterations =  3.0

     negative rho (up, down):  3.747E-02 0.000E+00

     total cpu time spent up to now is     2389.2 secs

     total energy              =    -364.92513390 Ry
     estimated scf accuracy    <       0.00004331 Ry

     iteration # 23     ecut=    50.00 Ry     beta= 0.70
     CG style diagonalization
     ethr =  9.28E-11,  avg # of iterations =  3.0

     negative rho (up, down):  3.746E-02 0.000E+00

     total cpu time spent up to now is     2401.2 secs

     total energy              =    -364.92513413 Ry
     estimated scf accuracy    <       0.00004353 Ry

     iteration # 24     ecut=    50.00 Ry     beta= 0.70
     CG style diagonalization
     ethr =  9.28E-11,  avg # of iterations =  3.0

     negative rho (up, down):  3.743E-02 0.000E+00

     total cpu time spent up to now is     2413.0 secs

     total energy              =    -364.92513518 Ry
     estimated scf accuracy    <       0.00004400 Ry

     iteration # 25     ecut=    50.00 Ry     beta= 0.70
     CG style diagonalization
     ethr =  9.28E-11,  avg # of iterations =  4.1

     negative rho (up, down):  3.740E-02 0.000E+00

     total cpu time spent up to now is     2429.0 secs

     total energy              =    -364.92513621 Ry
     estimated scf accuracy    <       0.00004690 Ry

     iteration # 26     ecut=    50.00 Ry     beta= 0.70
     CG style diagonalization
     ethr =  9.28E-11,  avg # of iterations =  3.5

     negative rho (up, down):  3.862E-02 0.000E+00

     total cpu time spent up to now is     2442.6 secs

     total energy              =    -364.92512636 Ry
     estimated scf accuracy    <       0.00004928 Ry

     iteration # 27     ecut=    50.00 Ry     beta= 0.70
     CG style diagonalization
     c_bands:  1 eigenvalues not converged
     c_bands:  1 eigenvalues not converged
     c_bands:  1 eigenvalues not converged
     c_bands:  1 eigenvalues not converged
     c_bands:  1 eigenvalues not converged
     c_bands:  1 eigenvalues not converged
     c_bands:  3 eigenvalues not converged
     c_bands:  1 eigenvalues not converged
     c_bands:  2 eigenvalues not converged
     c_bands:  1 eigenvalues not converged
     c_bands:  1 eigenvalues not converged
     c_bands:  1 eigenvalues not converged
     c_bands:  2 eigenvalues not converged
     c_bands:  1 eigenvalues not converged
     c_bands:  1 eigenvalues not converged
     c_bands:  1 eigenvalues not converged
     c_bands:  1 eigenvalues not converged
     c_bands:  1 eigenvalues not converged
     c_bands:  1 eigenvalues not converged
     c_bands:  1 eigenvalues not converged
     c_bands:  1 eigenvalues not converged
     c_bands:  1 eigenvalues not converged
     c_bands:  2 eigenvalues not converged
     c_bands:  1 eigenvalues not converged
     c_bands:  2 eigenvalues not converged
     c_bands:  1 eigenvalues not converged
     c_bands:  2 eigenvalues not converged
     c_bands:  1 eigenvalues not converged
     c_bands:  1 eigenvalues not converged
     c_bands:  2 eigenvalues not converged
     c_bands:  1 eigenvalues not converged
     c_bands:  2 eigenvalues not converged
     c_bands:  1 eigenvalues not converged
     c_bands:  1 eigenvalues not converged
     c_bands:  2 eigenvalues not converged
     c_bands:  1 eigenvalues not converged
     c_bands:  1 eigenvalues not converged
     c_bands:  2 eigenvalues not converged
     c_bands:  1 eigenvalues not converged
     c_bands:  2 eigenvalues not converged
     c_bands:  2 eigenvalues not converged
     c_bands:  1 eigenvalues not converged
     c_bands:  1 eigenvalues not converged
     c_bands:  1 eigenvalues not converged
     c_bands:  1 eigenvalues not converged
     c_bands:  1 eigenvalues not converged
     c_bands:  1 eigenvalues not converged
     c_bands:  2 eigenvalues not converged
     c_bands:  1 eigenvalues not converged
     c_bands:  2 eigenvalues not converged
     c_bands:  1 eigenvalues not converged
     c_bands:  2 eigenvalues not converged
     c_bands:  2 eigenvalues not converged
     c_bands:  1 eigenvalues not converged
     c_bands:  1 eigenvalues not converged
     c_bands:  1 eigenvalues not converged
     c_bands:  1 eigenvalues not converged
     c_bands:  1 eigenvalues not converged
     c_bands:  2 eigenvalues not converged
     c_bands:  2 eigenvalues not converged
     c_bands:  2 eigenvalues not converged
     c_bands:  2 eigenvalues not converged
     c_bands:  1 eigenvalues not converged
     c_bands:  1 eigenvalues not converged
     c_bands:  1 eigenvalues not converged
     c_bands:  1 eigenvalues not converged
     c_bands:  2 eigenvalues not converged
     c_bands:  1 eigenvalues not converged
     c_bands:  1 eigenvalues not converged
     c_bands:  1 eigenvalues not converged
     c_bands:  1 eigenvalues not converged
     c_bands:  1 eigenvalues not converged
     c_bands:  1 eigenvalues not converged
     c_bands:  2 eigenvalues not converged
     c_bands:  1 eigenvalues not converged
     c_bands:  2 eigenvalues not converged
     c_bands:  2 eigenvalues not converged
     c_bands:  1 eigenvalues not converged
     c_bands:  1 eigenvalues not converged
     ethr =  9.28E-11,  avg # of iterations = 13.6

     negative rho (up, down):  3.755E-02 0.000E+00

     total cpu time spent up to now is     2497.9 secs

     total energy              =    -364.92578706 Ry
     estimated scf accuracy    <       0.00006978 Ry

     iteration # 28     ecut=    50.00 Ry     beta= 0.70
     CG style diagonalization
     c_bands:  1 eigenvalues not converged
     c_bands:  2 eigenvalues not converged
     c_bands:  1 eigenvalues not converged
     c_bands:  2 eigenvalues not converged
     c_bands:  1 eigenvalues not converged
     c_bands:  1 eigenvalues not converged
     c_bands:  1 eigenvalues not converged
     c_bands:  1 eigenvalues not converged
     c_bands:  1 eigenvalues not converged
     c_bands:  1 eigenvalues not converged
     c_bands:  1 eigenvalues not converged
     c_bands:  1 eigenvalues not converged
     c_bands:  1 eigenvalues not converged
     c_bands:  1 eigenvalues not converged
     c_bands:  1 eigenvalues not converged
     c_bands:  2 eigenvalues not converged
     c_bands:  1 eigenvalues not converged
     c_bands:  1 eigenvalues not converged
     c_bands:  1 eigenvalues not converged
     c_bands:  1 eigenvalues not converged
     c_bands:  2 eigenvalues not converged
     c_bands:  1 eigenvalues not converged
     c_bands:  1 eigenvalues not converged
     c_bands:  1 eigenvalues not converged
     c_bands:  1 eigenvalues not converged
     c_bands:  1 eigenvalues not converged
     c_bands:  1 eigenvalues not converged
     c_bands:  1 eigenvalues not converged
     c_bands:  1 eigenvalues not converged
     c_bands:  2 eigenvalues not converged
     c_bands:  1 eigenvalues not converged
     c_bands:  1 eigenvalues not converged
     c_bands:  1 eigenvalues not converged
     c_bands:  1 eigenvalues not converged
     c_bands:  1 eigenvalues not converged
     c_bands:  1 eigenvalues not converged
     c_bands:  1 eigenvalues not converged
     c_bands:  1 eigenvalues not converged
     c_bands:  2 eigenvalues not converged
     c_bands:  1 eigenvalues not converged
     c_bands:  1 eigenvalues not converged
     c_bands:  1 eigenvalues not converged
     c_bands:  1 eigenvalues not converged
     c_bands:  1 eigenvalues not converged
     c_bands:  1 eigenvalues not converged
     c_bands:  1 eigenvalues not converged
     c_bands:  2 eigenvalues not converged
     c_bands:  1 eigenvalues not converged
     c_bands:  1 eigenvalues not converged
     c_bands:  1 eigenvalues not converged
     c_bands:  1 eigenvalues not converged
     c_bands:  1 eigenvalues not converged
     c_bands:  1 eigenvalues not converged
     c_bands:  1 eigenvalues not converged
     c_bands:  1 eigenvalues not converged
     c_bands:  1 eigenvalues not converged
     c_bands:  1 eigenvalues not converged
     c_bands:  3 eigenvalues not converged
     c_bands:  2 eigenvalues not converged
     c_bands:  1 eigenvalues not converged
     c_bands:  1 eigenvalues not converged
     ethr =  9.28E-11,  avg # of iterations = 13.4

     negative rho (up, down):  3.753E-02 0.000E+00

     total cpu time spent up to now is     2551.5 secs

     total energy              =    -364.92580591 Ry
     estimated scf accuracy    <       0.00004629 Ry

     iteration # 29     ecut=    50.00 Ry     beta= 0.70
     CG style diagonalization
     c_bands:  1 eigenvalues not converged
     c_bands:  1 eigenvalues not converged
     c_bands:  1 eigenvalues not converged
     c_bands:  1 eigenvalues not converged
     c_bands:  1 eigenvalues not converged
     c_bands:  1 eigenvalues not converged
     c_bands:  1 eigenvalues not converged
     c_bands:  1 eigenvalues not converged
     c_bands:  1 eigenvalues not converged
     c_bands:  1 eigenvalues not converged
     c_bands:  1 eigenvalues not converged
     c_bands:  1 eigenvalues not converged
     c_bands:  1 eigenvalues not converged
     c_bands:  1 eigenvalues not converged
     c_bands:  1 eigenvalues not converged
     c_bands:  1 eigenvalues not converged
     c_bands:  1 eigenvalues not converged
     ethr =  9.28E-11,  avg # of iterations = 10.8

     negative rho (up, down):  3.751E-02 0.000E+00

     total cpu time spent up to now is     2594.6 secs

     total energy              =    -364.92581452 Ry
     estimated scf accuracy    <       0.00009453 Ry

     iteration # 30     ecut=    50.00 Ry     beta= 0.70
     CG style diagonalization
     c_bands:  1 eigenvalues not converged
     c_bands:  1 eigenvalues not converged
     ethr =  9.28E-11,  avg # of iterations =  5.9

     negative rho (up, down):  3.750E-02 0.000E+00

     total cpu time spent up to now is     2617.8 secs

     total energy              =    -364.92582205 Ry
     estimated scf accuracy    <       0.00010744 Ry

     iteration # 31     ecut=    50.00 Ry     beta= 0.70
     CG style diagonalization
     c_bands:  1 eigenvalues not converged
     ethr =  9.28E-11,  avg # of iterations =  6.4

     negative rho (up, down):  3.750E-02 0.000E+00

     total cpu time spent up to now is     2643.1 secs

     total energy              =    -364.92581341 Ry
     estimated scf accuracy    <       0.00013532 Ry

     iteration # 32     ecut=    50.00 Ry     beta= 0.70
     CG style diagonalization
     c_bands:  1 eigenvalues not converged
     ethr =  9.28E-11,  avg # of iterations =  6.3

     negative rho (up, down):  3.748E-02 0.000E+00

     total cpu time spent up to now is     2668.2 secs

     total energy              =    -364.92578902 Ry
     estimated scf accuracy    <       0.00010682 Ry

     iteration # 33     ecut=    50.00 Ry     beta= 0.70
     CG style diagonalization
     c_bands:  1 eigenvalues not converged
     c_bands:  1 eigenvalues not converged
     c_bands:  1 eigenvalues not converged
     c_bands:  1 eigenvalues not converged
     c_bands:  1 eigenvalues not converged
     c_bands:  1 eigenvalues not converged
     c_bands:  1 eigenvalues not converged
     c_bands:  1 eigenvalues not converged
     c_bands:  1 eigenvalues not converged
     c_bands:  1 eigenvalues not converged
     c_bands:  1 eigenvalues not converged
     c_bands:  1 eigenvalues not converged
     c_bands:  1 eigenvalues not converged
     ethr =  9.28E-11,  avg # of iterations =  9.5

     negative rho (up, down):  3.748E-02 0.000E+00

     total cpu time spent up to now is     2706.4 secs

     total energy              =    -364.92577948 Ry
     estimated scf accuracy    <       0.00003264 Ry

     iteration # 34     ecut=    50.00 Ry     beta= 0.70
     CG style diagonalization
     c_bands:  1 eigenvalues not converged
     c_bands:  1 eigenvalues not converged
     c_bands:  1 eigenvalues not converged
     c_bands:  1 eigenvalues not converged
     c_bands:  1 eigenvalues not converged
     c_bands:  1 eigenvalues not converged
     c_bands:  1 eigenvalues not converged
     c_bands:  1 eigenvalues not converged
     c_bands:  1 eigenvalues not converged
     c_bands:  1 eigenvalues not converged
     c_bands:  1 eigenvalues not converged
     c_bands:  1 eigenvalues not converged
     c_bands:  1 eigenvalues not converged
     c_bands:  1 eigenvalues not converged
     c_bands:  1 eigenvalues not converged
     c_bands:  1 eigenvalues not converged
     c_bands:  1 eigenvalues not converged
     ethr =  9.28E-11,  avg # of iterations =  9.6

     negative rho (up, down):  3.747E-02 0.000E+00

     total cpu time spent up to now is     2744.7 secs

     total energy              =    -364.92578286 Ry
     estimated scf accuracy    <       0.00000079 Ry

     iteration # 35     ecut=    50.00 Ry     beta= 0.70
     CG style diagonalization
     ethr =  9.28E-11,  avg # of iterations =  5.5

     negative rho (up, down):  3.748E-02 0.000E+00

     total cpu time spent up to now is     2766.5 secs

     End of self-consistent calculation

     Number of k-points >= 100: set verbosity='high' to print the bands.

     highest occupied level (ev):    64.4050

!    total energy              =    -364.92578299 Ry
     estimated scf accuracy    <          2.9E-10 Ry

     The total energy is the sum of the following terms:
     one-electron contribution =     148.35843321 Ry
     hartree contribution      =      31.52720465 Ry
     xc contribution           =    -114.96100813 Ry
     ewald contribution        =    -429.85041273 Ry

     convergence has been achieved in  35 iterations

     negative rho (up, down):  3.748E-02 0.000E+00

     Forces acting on atoms (cartesian axes, Ry/au):

     atom    1 type  1   force =    -0.65457874    0.65457874    0.01638618
     atom    2 type  2   force =     1.12708368   -1.12708368    0.15653596
     atom    3 type  3   force =    -0.90567997    0.90567997   -0.49784201
     atom    4 type  3   force =     0.61834294    0.18516791    0.16245994
     atom    5 type  3   force =    -0.18516791   -0.61834294    0.16245994

     Total force =     2.489331     Total SCF correction =     0.000056


     Computing stress (Cartesian axis) and pressure


     negative rho (up, down):  3.748E-02 0.000E+00
          total   stress  (Ry/bohr**3)                   (kbar)     P=    46844.53
   0.32465144   0.00627184  -0.00446680        47757.88      922.62     -657.09
   0.00627184   0.32465144   0.00446680          922.62    47757.88      657.09
  -0.00446680   0.00446680   0.30602499         -657.09      657.09    45017.83

     Energy error            =      1.9E-01 Ry
     Gradient error          =      1.1E+00 Ry/Bohr

     number of scf cycles    =   6
     number of bfgs steps    =   3

     energy             old  =    -364.7368007702 Ry
     energy             new  =    -364.9257829928 Ry

     CASE: energy            _new < energy            _old

     new trust radius        =       0.3653101557 bohr
     new conv_thr            =       0.0000000100 Ry


ATOMIC_POSITIONS (crystal)
Pb           -0.0985062115       -0.0985062115        0.9844291738
Ti            0.5757909384        0.5757909384        0.5156052538
O             0.4736156522        0.4736156522        0.1439384644
O             0.5011088164        0.0479908045        0.6116556980
O             0.0479908045        0.5011088164        0.6116556980



     Writing config-only to output data dir ./PTO.save/
     NEW-OLD atomic charge density approx. for the potential

     negative rho (up, down):  3.560E-02 0.000E+00

     total cpu time spent up to now is     2773.2 secs

     Self-consistent Calculation

     iteration #  1     ecut=    50.00 Ry     beta= 0.70
     CG style diagonalization
     c_bands:  1 eigenvalues not converged
     c_bands:  1 eigenvalues not converged
     c_bands:  1 eigenvalues not converged
     c_bands:  1 eigenvalues not converged
     c_bands:  1 eigenvalues not converged
     c_bands:  1 eigenvalues not converged
     c_bands:  1 eigenvalues not converged
     c_bands:  3 eigenvalues not converged
     c_bands:  1 eigenvalues not converged
     c_bands:  1 eigenvalues not converged
     ethr =  1.00E-06,  avg # of iterations = 27.3

     negative rho (up, down):  3.283E-02 0.000E+00

     total cpu time spent up to now is     2879.3 secs

     total energy              =    -364.20524970 Ry
     estimated scf accuracy    <       0.55705977 Ry

     iteration #  2     ecut=    50.00 Ry     beta= 0.70
     CG style diagonalization
     ethr =  1.27E-03,  avg # of iterations =  4.5

     negative rho (up, down):  3.216E-02 0.000E+00

     total cpu time spent up to now is     2897.1 secs

     total energy              =    -364.27652195 Ry
     estimated scf accuracy    <       0.46075984 Ry

     iteration #  3     ecut=    50.00 Ry     beta= 0.70
     CG style diagonalization
     ethr =  1.05E-03,  avg # of iterations =  4.1

     negative rho (up, down):  3.232E-02 0.000E+00

     total cpu time spent up to now is     2913.8 secs

     total energy              =    -364.40602098 Ry
     estimated scf accuracy    <       0.05354933 Ry

     iteration #  4     ecut=    50.00 Ry     beta= 0.70
     CG style diagonalization
     ethr =  1.22E-04,  avg # of iterations =  4.0

     negative rho (up, down):  3.268E-02 0.000E+00

     total cpu time spent up to now is     2929.5 secs

     total energy              =    -364.42321273 Ry
     estimated scf accuracy    <       0.00095507 Ry

     iteration #  5     ecut=    50.00 Ry     beta= 0.70
     CG style diagonalization
     c_bands:  1 eigenvalues not converged
     c_bands:  1 eigenvalues not converged
     c_bands:  1 eigenvalues not converged
     c_bands:  1 eigenvalues not converged
     ethr =  2.17E-06,  avg # of iterations =  7.4

     negative rho (up, down):  3.309E-02 0.000E+00

     total cpu time spent up to now is     2958.6 secs

     total energy              =    -364.42914012 Ry
     estimated scf accuracy    <       0.00047448 Ry

     iteration #  6     ecut=    50.00 Ry     beta= 0.70
     CG style diagonalization
     c_bands:  1 eigenvalues not converged
     ethr =  1.08E-06,  avg # of iterations =  3.8

     negative rho (up, down):  3.376E-02 0.000E+00

     total cpu time spent up to now is     2973.7 secs

     total energy              =    -364.42971353 Ry
     estimated scf accuracy    <       0.00006757 Ry

     iteration #  7     ecut=    50.00 Ry     beta= 0.70
     CG style diagonalization
     ethr =  1.54E-07,  avg # of iterations =  5.3

[...]

     iteration #  3     ecut=    50.00 Ry     beta= 0.70
     CG style diagonalization
     c_bands:  1 eigenvalues not converged
     ethr =  2.83E-10,  avg # of iterations =  4.8

     negative rho (up, down):  3.749E-02 0.000E+00

     total cpu time spent up to now is    13079.5 secs

     total energy              =    -367.35422662 Ry
     estimated scf accuracy    <       0.00000001 Ry

     iteration #  4     ecut=    50.00 Ry     beta= 0.70
     CG style diagonalization
     c_bands:  1 eigenvalues not converged
     ethr =  3.07E-11,  avg # of iterations =  5.1

     negative rho (up, down):  3.749E-02 0.000E+00

     total cpu time spent up to now is    13099.8 secs

     total energy              =    -367.35422663 Ry
     estimated scf accuracy    <          4.1E-09 Ry

     iteration #  5     ecut=    50.00 Ry     beta= 0.70
     CG style diagonalization
     ethr =  9.33E-12,  avg # of iterations =  4.5

     negative rho (up, down):  3.749E-02 0.000E+00

     total cpu time spent up to now is    13117.5 secs

     total energy              =    -367.35422664 Ry
     estimated scf accuracy    <          5.0E-10 Ry

     iteration #  6     ecut=    50.00 Ry     beta= 0.70
     CG style diagonalization
     ethr =  1.13E-12,  avg # of iterations =  5.9

     negative rho (up, down):  3.749E-02 0.000E+00

     total cpu time spent up to now is    13140.6 secs

     total energy              =    -367.35422664 Ry
     estimated scf accuracy    <          1.1E-10 Ry

     iteration #  7     ecut=    50.00 Ry     beta= 0.70
     CG style diagonalization
     ethr =  2.44E-13,  avg # of iterations =  5.3

     negative rho (up, down):  3.749E-02 0.000E+00

     total cpu time spent up to now is    13161.6 secs

     End of self-consistent calculation

     Number of k-points >= 100: set verbosity='high' to print the bands.

     highest occupied level (ev):    69.4297

!    total energy              =    -367.35422664 Ry
     estimated scf accuracy    <          7.6E-12 Ry

     The total energy is the sum of the following terms:
     one-electron contribution =     174.95617850 Ry
     hartree contribution      =      19.01722794 Ry
     xc contribution           =    -114.31997433 Ry
     ewald contribution        =    -447.00765875 Ry

     convergence has been achieved in   7 iterations

     negative rho (up, down):  3.749E-02 0.000E+00

     Forces acting on atoms (cartesian axes, Ry/au):

     atom    1 type  1   force =    -0.00026050    0.00026050   -0.00108075
     atom    2 type  2   force =    -0.00038997    0.00038997   -0.00053684
     atom    3 type  3   force =    -0.00028278    0.00028278    0.00152276
     atom    4 type  3   force =     0.00024506   -0.00068819    0.00004742
     atom    5 type  3   force =     0.00068819   -0.00024506    0.00004742

     Total force =     0.002334     Total SCF correction =     0.000007


     Computing stress (Cartesian axis) and pressure


     negative rho (up, down):  3.749E-02 0.000E+00
          total   stress  (Ry/bohr**3)                   (kbar)     P=    41572.05
   0.27098999   0.03135801  -0.00000666        39864.00     4612.92       -0.98
   0.03135801   0.27098999   0.00000666         4612.92    39864.00        0.98
  -0.00000666   0.00000666   0.30582325           -0.98        0.98    44988.15

     Energy error            =      2.1E-06 Ry
     Gradient error          =      1.5E-03 Ry/Bohr

     number of scf cycles    =  38
     number of bfgs steps    =  29

     energy             old  =    -367.3542244911 Ry
     energy             new  =    -367.3542266361 Ry

     CASE: energy            _new < energy            _old

     new trust radius        =       0.0011563052 bohr
     new conv_thr            =            1.0E-10 Ry


ATOMIC_POSITIONS (crystal)
Pb            0.0047534482        0.0047534482        0.9688137447
Ti            0.5776378826        0.5776378826        0.3958105942
O             0.2938803853        0.2938803853        0.1795871959
O             0.6229750305        0.0007532534        0.6615363766
O             0.0007532534        0.6229750305        0.6615363766



     Writing config-only to output data dir ./PTO.save/
     NEW-OLD atomic charge density approx. for the potential

     negative rho (up, down):  3.749E-02 0.000E+00

     total cpu time spent up to now is    13168.3 secs

     Self-consistent Calculation

     iteration #  1     ecut=    50.00 Ry     beta= 0.70
     CG style diagonalization
     ethr =  1.00E-06,  avg # of iterations =  2.5

     Threshold (ethr) on eigenvalues was too large:
     Diagonalizing with lowered threshold

     CG style diagonalization
     c_bands:  3 eigenvalues not converged
     c_bands:  2 eigenvalues not converged
     c_bands:  1 eigenvalues not converged
     c_bands:  1 eigenvalues not converged
     c_bands:  1 eigenvalues not converged
     c_bands:  1 eigenvalues not converged
     c_bands:  1 eigenvalues not converged
     c_bands:  1 eigenvalues not converged
     c_bands:  1 eigenvalues not converged
     c_bands:  1 eigenvalues not converged
     c_bands:  1 eigenvalues not converged
     c_bands:  2 eigenvalues not converged
     c_bands:  2 eigenvalues not converged
     c_bands:  2 eigenvalues not converged
     c_bands:  1 eigenvalues not converged
     c_bands:  2 eigenvalues not converged
     c_bands:  1 eigenvalues not converged
     c_bands:  1 eigenvalues not converged
     c_bands:  1 eigenvalues not converged
     c_bands:  1 eigenvalues not converged
     c_bands:  3 eigenvalues not converged
     c_bands:  2 eigenvalues not converged
     c_bands:  1 eigenvalues not converged
     c_bands:  3 eigenvalues not converged
     c_bands:  4 eigenvalues not converged
     c_bands:  1 eigenvalues not converged
     c_bands:  1 eigenvalues not converged
     c_bands:  1 eigenvalues not converged
     c_bands:  1 eigenvalues not converged
     ethr =  8.15E-09,  avg # of iterations =  8.5

     negative rho (up, down):  3.749E-02 0.000E+00

     total cpu time spent up to now is    13214.9 secs

     total energy              =    -367.35422429 Ry
     estimated scf accuracy    <       0.00000234 Ry

     iteration #  2     ecut=    50.00 Ry     beta= 0.70
     CG style diagonalization
     ethr =  5.32E-09,  avg # of iterations =  3.9

     negative rho (up, down):  3.749E-02 0.000E+00

     total cpu time spent up to now is    13231.6 secs

     total energy              =    -367.35422496 Ry
     estimated scf accuracy    <       0.00000010 Ry

     iteration #  3     ecut=    50.00 Ry     beta= 0.70
     CG style diagonalization
     c_bands:  1 eigenvalues not converged
     ethr =  2.27E-10,  avg # of iterations =  4.8

     negative rho (up, down):  3.749E-02 0.000E+00

     total cpu time spent up to now is    13250.6 secs

     total energy              =    -367.35422510 Ry
     estimated scf accuracy    <          8.8E-09 Ry

     iteration #  4     ecut=    50.00 Ry     beta= 0.70
     CG style diagonalization
     c_bands:  1 eigenvalues not converged
     ethr =  2.01E-11,  avg # of iterations =  5.6

     negative rho (up, down):  3.749E-02 0.000E+00

     total cpu time spent up to now is    13272.6 secs

     total energy              =    -367.35422511 Ry
     estimated scf accuracy    <          3.3E-09 Ry

     iteration #  5     ecut=    50.00 Ry     beta= 0.70
     CG style diagonalization
     c_bands:  1 eigenvalues not converged
     ethr =  7.52E-12,  avg # of iterations =  4.5

     negative rho (up, down):  3.749E-02 0.000E+00

     total cpu time spent up to now is    13290.1 secs

     total energy              =    -367.35422511 Ry
     estimated scf accuracy    <          5.3E-10 Ry

     iteration #  6     ecut=    50.00 Ry     beta= 0.70
     CG style diagonalization
     c_bands:  1 eigenvalues not converged
     ethr =  1.20E-12,  avg # of iterations =  5.3

     negative rho (up, down):  3.749E-02 0.000E+00

     total cpu time spent up to now is    13311.0 secs

     End of self-consistent calculation

     Number of k-points >= 100: set verbosity='high' to print the bands.

     highest occupied level (ev):    69.4330

!    total energy              =    -367.35422511 Ry
     estimated scf accuracy    <          2.6E-11 Ry

     The total energy is the sum of the following terms:
     one-electron contribution =     174.95598632 Ry
     hartree contribution      =      19.01682203 Ry
     xc contribution           =    -114.32012024 Ry
     ewald contribution        =    -447.00691322 Ry

     convergence has been achieved in   6 iterations

     negative rho (up, down):  3.749E-02 0.000E+00

     Forces acting on atoms (cartesian axes, Ry/au):

     atom    1 type  1   force =     0.00269298   -0.00269298    0.00092784
     atom    2 type  2   force =    -0.00013304    0.00013304    0.00077013
     atom    3 type  3   force =     0.00052552   -0.00052552   -0.00177865
     atom    4 type  3   force =    -0.00133113    0.00175433    0.00004034
     atom    5 type  3   force =    -0.00175433    0.00133113    0.00004034

     Total force =     0.005423     Total SCF correction =     0.000018


     Computing stress (Cartesian axis) and pressure


     negative rho (up, down):  3.749E-02 0.000E+00
          total   stress  (Ry/bohr**3)                   (kbar)     P=    41572.29
   0.27100125   0.03138894   0.00003042        39865.66     4617.47        4.48
   0.03138894   0.27100125  -0.00003042         4617.47    39865.66       -4.48
   0.00003042  -0.00003042   0.30580558            4.48       -4.48    44985.55

     Energy error            =      1.5E-06 Ry
     Gradient error          =      2.7E-03 Ry/Bohr

     number of scf cycles    =  39
     number of bfgs steps    =  30

     energy             old  =    -367.3542266361 Ry
     energy             new  =    -367.3542251117 Ry

     CASE: energy            _new > energy            _old

     new trust radius        =       0.0003942026 bohr
     new conv_thr            =            1.0E-10 Ry


ATOMIC_POSITIONS (crystal)
Pb            0.0047733468        0.0047733468        0.9687270908
Ti            0.5776707701        0.5776707701        0.3957337980
O             0.2937755924        0.2937755924        0.1796806153
O             0.6229888800        0.0007914108        0.6615713920
O             0.0007914108        0.6229888800        0.6615713920



     Writing config-only to output data dir ./PTO.save/
     NEW-OLD atomic charge density approx. for the potential

     negative rho (up, down):  3.749E-02 0.000E+00

     total cpu time spent up to now is    13318.4 secs

     Self-consistent Calculation

     iteration #  1     ecut=    50.00 Ry     beta= 0.70
     CG style diagonalization
     ethr =  1.00E-06,  avg # of iterations =  2.1

     Threshold (ethr) on eigenvalues was too large:
     Diagonalizing with lowered threshold

     CG style diagonalization
     c_bands:  1 eigenvalues not converged
     c_bands:  3 eigenvalues not converged
     c_bands:  1 eigenvalues not converged
     c_bands:  2 eigenvalues not converged
     c_bands:  1 eigenvalues not converged
     c_bands:  1 eigenvalues not converged
     c_bands:  1 eigenvalues not converged
     c_bands:  1 eigenvalues not converged
     c_bands:  3 eigenvalues not converged
     c_bands:  1 eigenvalues not converged
     c_bands:  1 eigenvalues not converged
     c_bands:  1 eigenvalues not converged
     c_bands:  3 eigenvalues not converged
     c_bands:  2 eigenvalues not converged
     c_bands:  1 eigenvalues not converged
     c_bands:  2 eigenvalues not converged
     c_bands:  1 eigenvalues not converged
     c_bands:  1 eigenvalues not converged
     c_bands:  2 eigenvalues not converged
     c_bands:  2 eigenvalues not converged
     c_bands:  1 eigenvalues not converged
     c_bands:  1 eigenvalues not converged
     c_bands:  1 eigenvalues not converged
     c_bands:  1 eigenvalues not converged
     c_bands:  1 eigenvalues not converged
     c_bands:  1 eigenvalues not converged
     c_bands:  1 eigenvalues not converged
     c_bands:  1 eigenvalues not converged
     c_bands:  2 eigenvalues not converged
     c_bands:  3 eigenvalues not converged
     c_bands:  2 eigenvalues not converged
     c_bands:  1 eigenvalues not converged
     c_bands:  1 eigenvalues not converged
     c_bands:  1 eigenvalues not converged
     c_bands:  1 eigenvalues not converged
     c_bands:  2 eigenvalues not converged
     c_bands:  1 eigenvalues not converged
     c_bands:  1 eigenvalues not converged
     c_bands:  3 eigenvalues not converged
     c_bands:  5 eigenvalues not converged
     c_bands:  1 eigenvalues not converged
     c_bands:  1 eigenvalues not converged
     c_bands:  2 eigenvalues not converged
     c_bands:  2 eigenvalues not converged
     c_bands:  1 eigenvalues not converged
     c_bands:  1 eigenvalues not converged
     c_bands:  1 eigenvalues not converged
     c_bands:  2 eigenvalues not converged
     ethr =  2.28E-09,  avg # of iterations =  9.7

     negative rho (up, down):  3.749E-02 0.000E+00

     total cpu time spent up to now is    13368.2 secs

     total energy              =    -367.35422686 Ry
     estimated scf accuracy    <       0.00000102 Ry

     iteration #  2     ecut=    50.00 Ry     beta= 0.70
     CG style diagonalization
     ethr =  2.33E-09,  avg # of iterations =  3.9

     negative rho (up, down):  3.749E-02 0.000E+00

     total cpu time spent up to now is    13383.6 secs

     total energy              =    -367.35422708 Ry
     estimated scf accuracy    <       0.00000004 Ry

     iteration #  3     ecut=    50.00 Ry     beta= 0.70
     CG style diagonalization
     c_bands:  1 eigenvalues not converged
     ethr =  1.00E-10,  avg # of iterations =  4.6

     negative rho (up, down):  3.749E-02 0.000E+00

     total cpu time spent up to now is    13402.9 secs

     total energy              =    -367.35422712 Ry
     estimated scf accuracy    <          3.5E-09 Ry

     iteration #  4     ecut=    50.00 Ry     beta= 0.70
     CG style diagonalization
     c_bands:  1 eigenvalues not converged
     ethr =  7.92E-12,  avg # of iterations =  5.6

     negative rho (up, down):  3.749E-02 0.000E+00

     total cpu time spent up to now is    13425.0 secs

     total energy              =    -367.35422712 Ry
     estimated scf accuracy    <          9.1E-10 Ry

     iteration #  5     ecut=    50.00 Ry     beta= 0.70
     CG style diagonalization
     c_bands:  1 eigenvalues not converged
     ethr =  2.07E-12,  avg # of iterations =  4.8

     negative rho (up, down):  3.749E-02 0.000E+00

     total cpu time spent up to now is    13443.6 secs

     total energy              =    -367.35422713 Ry
     estimated scf accuracy    <          2.4E-10 Ry

     iteration #  6     ecut=    50.00 Ry     beta= 0.70
     CG style diagonalization
     c_bands:  1 eigenvalues not converged
     ethr =  5.53E-13,  avg # of iterations =  4.8

     negative rho (up, down):  3.749E-02 0.000E+00

     total cpu time spent up to now is    13462.0 secs

     End of self-consistent calculation

     Number of k-points >= 100: set verbosity='high' to print the bands.

     highest occupied level (ev):    69.4308

!    total energy              =    -367.35422713 Ry
     estimated scf accuracy    <          1.6E-11 Ry

     The total energy is the sum of the following terms:
     one-electron contribution =     174.95613151 Ry
     hartree contribution      =      19.01707518 Ry
     xc contribution           =    -114.32002274 Ry
     ewald contribution        =    -447.00741107 Ry

     convergence has been achieved in   6 iterations

     negative rho (up, down):  3.749E-02 0.000E+00

     Forces acting on atoms (cartesian axes, Ry/au):

     atom    1 type  1   force =     0.00074786   -0.00074786   -0.00039547
     atom    2 type  2   force =    -0.00030625    0.00030625   -0.00009565
     atom    3 type  3   force =    -0.00000760    0.00000760    0.00039785
     atom    4 type  3   force =    -0.00029042    0.00014359    0.00004663
     atom    5 type  3   force =    -0.00014359    0.00029042    0.00004663

     Total force =     0.001358     Total SCF correction =     0.000013


     Computing stress (Cartesian axis) and pressure


     negative rho (up, down):  3.749E-02 0.000E+00
          total   stress  (Ry/bohr**3)                   (kbar)     P=    41572.10
   0.27099357   0.03136859   0.00000598        39864.53     4614.48        0.88
   0.03136859   0.27099357  -0.00000598         4614.48    39864.53       -0.88
   0.00000598  -0.00000598   0.30581703            0.88       -0.88    44987.24

     Energy error            =      4.9E-07 Ry
     Gradient error          =      7.5E-04 Ry/Bohr

     bfgs converged in  40 scf cycles and  30 bfgs steps
     (criteria: energy <  1.0E-04 Ry, force <  1.0E-03 Ry/Bohr)

     End of BFGS Geometry Optimization

     Final energy             =    -367.3542271254 Ry

     File ./PTO.bfgs deleted, as requested
Begin final coordinates

ATOMIC_POSITIONS (crystal)
Pb            0.0047733468        0.0047733468        0.9687270908
Ti            0.5776707701        0.5776707701        0.3957337980
O             0.2937755924        0.2937755924        0.1796806153
O             0.6229888800        0.0007914108        0.6615713920
O             0.0007914108        0.6229888800        0.6615713920
End final coordinates



     Writing all to output data dir ./PTO.save/
 
     init_run     :      6.85s CPU      7.22s WALL (       1 calls)
     electrons    :  12085.42s CPU  13187.33s WALL (      40 calls)
     update_pot   :      5.89s CPU      6.18s WALL (      39 calls)
     forces       :     39.99s CPU     42.39s WALL (      40 calls)
     stress       :    204.11s CPU    206.33s WALL (      40 calls)

     Called by init_run:
     wfcinit      :      3.35s CPU      3.45s WALL (       1 calls)
     potinit      :      0.04s CPU      0.06s WALL (       1 calls)
     hinit0       :      3.24s CPU      3.25s WALL (       1 calls)

     Called by electrons:
     c_bands      :  11296.30s CPU  12357.74s WALL (     556 calls)
     sum_band     :    674.76s CPU    698.92s WALL (     556 calls)
     v_of_rho     :      8.57s CPU      8.95s WALL (     582 calls)
     newd         :    109.38s CPU    123.20s WALL (     582 calls)
     mix_rho      :      2.40s CPU      2.76s WALL (     556 calls)

     Called by c_bands:
     init_us_2    :    153.55s CPU    167.12s WALL (  145546 calls)
     init_us_2:cp :    149.48s CPU    164.51s WALL (  145546 calls)
     ccgdiagg     :  10195.62s CPU  11184.14s WALL (   70033 calls)
     wfcrot       :   1010.17s CPU   1044.35s WALL (   63567 calls)

     Called by *cgdiagg:
     h_psi        :   7662.73s CPU   8332.14s WALL ( 7583921 calls)
     s_psi        :   1405.56s CPU   1574.77s WALL (15104275 calls)

     Called by h_psi:
     h_psi:calbec :   1021.92s CPU   1100.01s WALL ( 7583921 calls)
     vloc_psi     :   5410.77s CPU   5903.42s WALL ( 7583921 calls)
     add_vuspsi   :    829.77s CPU    915.18s WALL ( 7583921 calls)
     hs_1psi      :   7906.67s CPU   8631.68s WALL ( 7520354 calls)
     s_1psi       :   1623.13s CPU   1779.11s WALL ( 7520354 calls)

     General routines
     calbec       :   1544.08s CPU   1732.38s WALL (15196507 calls)
     fft          :      4.77s CPU      4.90s WALL (    3785 calls)
     ffts         :      0.35s CPU      0.36s WALL (    1138 calls)
     fftw         :   4937.55s CPU   5372.73s WALL (19332156 calls)
     interpolate  :      1.12s CPU      1.16s WALL (     582 calls)
 
     Parallel routines
 
     PWSCF        :      3h25m CPU      3h44m WALL

 
   This run was terminated on:   1:34:12   7Apr2022            

=------------------------------------------------------------------------------=
   JOB DONE.
=------------------------------------------------------------------------------=
