
     Program PWSCF v.7.0 starts on  6Apr2022 at 16:34:58 

     This program is part of the open-source Quantum ESPRESSO suite
     for quantum simulation of materials; please cite
         "P. Giannozzi et al., J. Phys.:Condens. Matter 21 395502 (2009);
         "P. Giannozzi et al., J. Phys.:Condens. Matter 29 465901 (2017);
         "P. Giannozzi et al., J. Chem. Phys. 152 154105 (2020);
          URL http://www.quantum-espresso.org", 
     in publications or presentations arising from this work. More details at
     http://www.quantum-espresso.org/quote

     Parallel version (MPI), running on     1 processors

     MPI processes distributed on     1 nodes
     91211 MiB available memory on the printing compute node when the environment starts
 
     Waiting for input...
     Reading input from standard input
Warning: card &CELL ignored
Warning: card  CELL_DYNAMICS = 'BFGS', ignored
Warning: card  PRESS=0.1D0, ignored
Warning: card / ignored

     Current dimensions of program PWSCF are:
     Max number of different atomic species (ntypx) = 10
     Max number of k-points (npk) =  40000
     Max angular momentum in pseudopotentials (lmaxx) =  4
     Message from routine setup:
     using ibrav=0 with symmetry is DISCOURAGED, use correct ibrav instead

     Subspace diagonalization in iterative solution of the eigenvalue problem:
     a serial algorithm will be used

 
     G-vector sticks info
     --------------------
     sticks:   dense  smooth     PW     G-vecs:    dense   smooth      PW
     Sum         917     367    121                18191     4629     893
 
     Using Slab Decomposition
 


     bravais-lattice index     =            0
     lattice parameter (alat)  =       7.2800  a.u.
     unit-cell volume          =      96.4559 (a.u.)^3
     number of atoms/cell      =            5
     number of atomic types    =            3
     number of electrons       =        44.00
     number of Kohn-Sham states=           22
     kinetic-energy cutoff     =      50.0000  Ry
     charge density cutoff     =     500.0000  Ry
     scf convergence threshold =      1.0E-08
     mixing beta               =       0.7000
     number of iterations used =            8  plain     mixing
     energy convergence thresh.=      1.0E-04
     force convergence thresh. =      1.0E-03
     Exchange-correlation= SLA  PZ   NOGX NOGC
                           (   1   1   0   0   0   0   0)
     nstep                     =           50


     celldm(1)=   7.280000  celldm(2)=   0.000000  celldm(3)=   1.050000
     celldm(4)=   0.000000  celldm(5)=   0.000000  celldm(6)=   0.000000

     crystal axes: (cart. coord. in units of alat)
               a(1) = (  -0.499000   0.000000   0.502000 )  
               a(2) = (   0.000000   0.499000   0.502000 )  
               a(3) = (  -0.499000   0.499000   0.000000 )  

     reciprocal axes: (cart. coord. in units 2 pi/alat)
               b(1) = ( -1.002004 -1.002004  0.996016 )  
               b(2) = (  1.002004  1.002004  0.996016 )  
               b(3) = ( -1.002004  1.002004 -0.996016 )  


     PseudoPot. # 1 for Pb read from file:
     ./Pb_LDA.UPF
     MD5 check sum: 062a37469794d955244864f8fe2e5624
     Pseudo is Ultrasoft + core correction, Zval = 14.0
     Generated by new atomic code, or converted to UPF format
     Using radial grid of  899 points,  6 beta functions with: 
                l(1) =   0
                l(2) =   0
                l(3) =   1
                l(4) =   1
                l(5) =   2
                l(6) =   2
     Q(r) pseudized with  6 coefficients,  rinner =    1.000   1.000   1.000
                                                       1.000   1.000

     PseudoPot. # 2 for Ti read from file:
     ./Ti_LDA.UPF
     MD5 check sum: 0d9f225c038fe889ca2a701dcc8d72cb
     Pseudo is Ultrasoft + core correction, Zval = 12.0
     Generated by new atomic code, or converted to UPF format
     Using radial grid of  851 points,  6 beta functions with: 
                l(1) =   0
                l(2) =   0
                l(3) =   1
                l(4) =   1
                l(5) =   2
                l(6) =   2
     Q(r) pseudized with  6 coefficients,  rinner =    1.000   1.000   1.000
                                                       1.000   1.000

     PseudoPot. # 3 for O  read from file:
     ./O_LDA.UPF
     MD5 check sum: 194b818514d2a7dbb603bb78519a4f40
     Pseudo is Ultrasoft + core correction, Zval =  6.0
     Generated by new atomic code, or converted to UPF format
     Using radial grid of  737 points,  5 beta functions with: 
                l(1) =   0
                l(2) =   0
                l(3) =   1
                l(4) =   1
                l(5) =   2
     Q(r) pseudized with  8 coefficients,  rinner =    0.900   0.900   0.900
                                                       0.900   0.900

     atomic species   valence    mass     pseudopotential
        Pb            14.00   207.20000     Pb( 1.00)
        Ti            12.00    47.88000     Ti( 1.00)
        O              6.00    16.00000     O ( 1.00)

      2 Sym. Ops. (no inversion) found



   Cartesian axes

     site n.     atom                  positions (alat units)
         1           Pb  tau(   1) = (  -0.5022048   0.5022048   0.0000000  )
         2           Ti  tau(   2) = (  -0.5191714   0.5191714   0.5020000  )
         3           O   tau(   3) = (  -0.2986916   0.2986916   0.5020000  )
         4           O   tau(   4) = (  -0.5543535   0.3048535   0.2510000  )
         5           O   tau(   5) = (  -0.3048535   0.5543535   0.2510000  )

     number of k points=   122

     Number of k-points >= 100: set verbosity='high' to print them.

     Dense  grid:    18191 G-vectors     FFT dimensions: (  40,  40,  40)

     Smooth grid:     4629 G-vectors     FFT dimensions: (  24,  24,  24)

     Estimated max dynamical RAM per process >      98.58 MB

     Initial potential from superposition of free atoms

     starting charge      42.9982, renormalised to      44.0000

     negative rho (up, down):  1.044E-02 0.000E+00
     Starting wfcs are   31 randomized atomic wfcs

     total cpu time spent up to now is        8.6 secs

     Self-consistent Calculation

     iteration #  1     ecut=    50.00 Ry     beta= 0.70
     CG style diagonalization
     ethr =  1.00E-02,  avg # of iterations =  3.0

     negative rho (up, down):  2.520E-02 0.000E+00

     total cpu time spent up to now is       22.5 secs

     total energy              =    -360.51490195 Ry
     estimated scf accuracy    <       4.85524404 Ry

     iteration #  2     ecut=    50.00 Ry     beta= 0.70
     CG style diagonalization
     ethr =  1.00E-02,  avg # of iterations =  4.4

     negative rho (up, down):  3.704E-02 0.000E+00

     total cpu time spent up to now is       39.7 secs

     total energy              =    -361.88853125 Ry
     estimated scf accuracy    <       1.93562250 Ry

     iteration #  3     ecut=    50.00 Ry     beta= 0.70
     CG style diagonalization
     ethr =  4.40E-03,  avg # of iterations =  4.0

     negative rho (up, down):  4.033E-02 0.000E+00

     total cpu time spent up to now is       55.6 secs

     total energy              =    -362.50059759 Ry
     estimated scf accuracy    <       0.09069077 Ry

     iteration #  4     ecut=    50.00 Ry     beta= 0.70
     CG style diagonalization
     c_bands:  1 eigenvalues not converged
     c_bands:  1 eigenvalues not converged
     c_bands:  1 eigenvalues not converged
     ethr =  2.06E-04,  avg # of iterations =  4.7

     negative rho (up, down):  4.318E-02 0.000E+00

     total cpu time spent up to now is       74.2 secs

     total energy              =    -362.57326725 Ry
     estimated scf accuracy    <       0.02326771 Ry

     iteration #  5     ecut=    50.00 Ry     beta= 0.70
     CG style diagonalization
     c_bands:  1 eigenvalues not converged
     ethr =  5.29E-05,  avg # of iterations =  4.8

     negative rho (up, down):  4.318E-02 0.000E+00

     total cpu time spent up to now is       93.4 secs

     total energy              =    -362.58704351 Ry
     estimated scf accuracy    <       0.00369364 Ry

     iteration #  6     ecut=    50.00 Ry     beta= 0.70
     CG style diagonalization
     c_bands:  1 eigenvalues not converged
     c_bands:  1 eigenvalues not converged
     ethr =  8.39E-06,  avg # of iterations =  5.6

     negative rho (up, down):  4.327E-02 0.000E+00

     total cpu time spent up to now is      115.5 secs

     total energy              =    -362.59064037 Ry
     estimated scf accuracy    <       0.00025556 Ry

     iteration #  7     ecut=    50.00 Ry     beta= 0.70
     CG style diagonalization
     c_bands:  1 eigenvalues not converged
     c_bands:  1 eigenvalues not converged
     c_bands:  1 eigenvalues not converged
     c_bands:  1 eigenvalues not converged
     c_bands:  1 eigenvalues not converged
     c_bands:  1 eigenvalues not converged
     ethr =  5.81E-07,  avg # of iterations =  7.5

     negative rho (up, down):  4.314E-02 0.000E+00

     total cpu time spent up to now is      145.1 secs

     total energy              =    -362.59228018 Ry
     estimated scf accuracy    <       0.00007974 Ry

     iteration #  8     ecut=    50.00 Ry     beta= 0.70
     CG style diagonalization
     c_bands:  1 eigenvalues not converged
     c_bands:  1 eigenvalues not converged
     ethr =  1.81E-07,  avg # of iterations =  4.8

     negative rho (up, down):  4.301E-02 0.000E+00

     total cpu time spent up to now is      164.2 secs

     total energy              =    -362.59234088 Ry
     estimated scf accuracy    <       0.00001022 Ry

     iteration #  9     ecut=    50.00 Ry     beta= 0.70
     CG style diagonalization
     c_bands:  1 eigenvalues not converged
     c_bands:  1 eigenvalues not converged
     c_bands:  1 eigenvalues not converged
     ethr =  2.32E-08,  avg # of iterations =  7.2

     negative rho (up, down):  4.293E-02 0.000E+00

     total cpu time spent up to now is      193.0 secs

     total energy              =    -362.59235838 Ry
     estimated scf accuracy    <       0.00000365 Ry

     iteration # 10     ecut=    50.00 Ry     beta= 0.70
     CG style diagonalization
     c_bands:  1 eigenvalues not converged
     ethr =  8.29E-09,  avg # of iterations =  5.2

     negative rho (up, down):  4.291E-02 0.000E+00

     total cpu time spent up to now is      213.4 secs

     total energy              =    -362.59236072 Ry
     estimated scf accuracy    <       0.00000050 Ry

     iteration # 11     ecut=    50.00 Ry     beta= 0.70
     CG style diagonalization
     c_bands:  1 eigenvalues not converged
     c_bands:  1 eigenvalues not converged
     ethr =  1.14E-09,  avg # of iterations =  6.9

     negative rho (up, down):  4.290E-02 0.000E+00

     total cpu time spent up to now is      240.7 secs

     total energy              =    -362.59236146 Ry
     estimated scf accuracy    <       0.00000004 Ry

     iteration # 12     ecut=    50.00 Ry     beta= 0.70
     CG style diagonalization
     c_bands:  1 eigenvalues not converged
     c_bands:  1 eigenvalues not converged
     c_bands:  1 eigenvalues not converged
     ethr =  9.00E-11,  avg # of iterations =  7.5

     negative rho (up, down):  4.289E-02 0.000E+00

     total cpu time spent up to now is      270.7 secs

     total energy              =    -362.59236155 Ry
     estimated scf accuracy    <       0.00000001 Ry

     iteration # 13     ecut=    50.00 Ry     beta= 0.70
     CG style diagonalization
     c_bands:  1 eigenvalues not converged
     c_bands:  1 eigenvalues not converged
     ethr =  2.60E-11,  avg # of iterations =  5.3

     negative rho (up, down):  4.289E-02 0.000E+00

     total cpu time spent up to now is      292.0 secs

     End of self-consistent calculation

     Number of k-points >= 100: set verbosity='high' to print the bands.

     highest occupied level (ev):    64.9509

!    total energy              =    -362.59236156 Ry
     estimated scf accuracy    <          8.5E-10 Ry

     The total energy is the sum of the following terms:
     one-electron contribution =     140.23843910 Ry
     hartree contribution      =      35.37131151 Ry
     xc contribution           =    -115.48338695 Ry
     ewald contribution        =    -422.71872522 Ry

     convergence has been achieved in  13 iterations

     negative rho (up, down):  4.289E-02 0.000E+00

     Forces acting on atoms (cartesian axes, Ry/au):

     atom    1 type  1   force =    -0.44916003    0.44916003   -4.94807965
     atom    2 type  2   force =    -1.51299187    1.51299187    1.72248481
     atom    3 type  3   force =     0.67468204   -0.67468204   -0.14434648
     atom    4 type  3   force =    -0.92693845   -2.21440830    1.68497066
     atom    5 type  3   force =     2.21440830    0.92693845    1.68497066

     Total force =     7.111072     Total SCF correction =     0.000070


     Computing stress (Cartesian axis) and pressure


     negative rho (up, down):  4.289E-02 0.000E+00
          total   stress  (Ry/bohr**3)                   (kbar)     P=    51612.93
   0.34392933   0.05248671   0.03994029        50593.75     7721.06     5875.42
   0.05248671   0.34392933  -0.03994029         7721.06    50593.75    -5875.42
   0.03994029  -0.03994029   0.36471406         5875.42    -5875.42    53651.29


     BFGS Geometry Optimization
     Energy error            =      0.0E+00 Ry
     Gradient error          =      4.9E+00 Ry/Bohr

     number of scf cycles    =   1
     number of bfgs steps    =   0

     energy             new  =    -362.5923615610 Ry

     new trust radius        =       0.5000000000 bohr
     new conv_thr            =       0.0000000100 Ry


ATOMIC_POSITIONS (crystal)
Pb           -0.0678508793       -0.0678508793        1.0866657200
Ti            0.5236196903        0.5236196903        0.5585474777
O             0.4980206390        0.4980206390        0.0819451732
O             0.5664401798       -0.0202296299        0.5700629586
O            -0.0202296299        0.5664401798        0.5700629586



     Writing config-only to output data dir ./PTO.save/
     NEW-OLD atomic charge density approx. for the potential

     negative rho (up, down):  1.170E-02 0.000E+00

     total cpu time spent up to now is      298.8 secs

     Self-consistent Calculation

     iteration #  1     ecut=    50.00 Ry     beta= 0.70
     CG style diagonalization
     c_bands:  1 eigenvalues not converged
     c_bands:  1 eigenvalues not converged
     c_bands:  1 eigenvalues not converged
     c_bands:  1 eigenvalues not converged
     c_bands:  1 eigenvalues not converged
     c_bands:  1 eigenvalues not converged
     ethr =  1.00E-06,  avg # of iterations = 27.9

     negative rho (up, down):  3.053E-02 0.000E+00

     total cpu time spent up to now is      408.6 secs

     total energy              =    -361.97776761 Ry
     estimated scf accuracy    <       0.57811142 Ry

     iteration #  2     ecut=    50.00 Ry     beta= 0.70
     CG style diagonalization
     ethr =  1.31E-03,  avg # of iterations =  4.0

     negative rho (up, down):  3.457E-02 0.000E+00

     total cpu time spent up to now is      424.2 secs

     total energy              =    -362.07667031 Ry
     estimated scf accuracy    <       0.09121151 Ry

     iteration #  3     ecut=    50.00 Ry     beta= 0.70
     CG style diagonalization
     ethr =  2.07E-04,  avg # of iterations =  4.1

     negative rho (up, down):  3.865E-02 0.000E+00

     total cpu time spent up to now is      440.4 secs

     total energy              =    -362.12438299 Ry
     estimated scf accuracy    <       0.00961683 Ry

     iteration #  4     ecut=    50.00 Ry     beta= 0.70
     CG style diagonalization
     ethr =  2.19E-05,  avg # of iterations =  5.7

     negative rho (up, down):  4.028E-02 0.000E+00

     total cpu time spent up to now is      463.0 secs

     total energy              =    -362.13300683 Ry
     estimated scf accuracy    <       0.00266421 Ry

     iteration #  5     ecut=    50.00 Ry     beta= 0.70
     CG style diagonalization
     ethr =  6.06E-06,  avg # of iterations =  4.7

     negative rho (up, down):  4.150E-02 0.000E+00

     total cpu time spent up to now is      481.4 secs

     total energy              =    -362.13404161 Ry
     estimated scf accuracy    <       0.00086243 Ry

     iteration #  6     ecut=    50.00 Ry     beta= 0.70
     CG style diagonalization
     ethr =  1.96E-06,  avg # of iterations =  4.4

     negative rho (up, down):  4.229E-02 0.000E+00

     total cpu time spent up to now is      498.9 secs

     total energy              =    -362.13436209 Ry
     estimated scf accuracy    <       0.00008860 Ry

     iteration #  7     ecut=    50.00 Ry     beta= 0.70
     CG style diagonalization
     c_bands:  1 eigenvalues not converged
     c_bands:  1 eigenvalues not converged
     ethr =  2.01E-07,  avg # of iterations =  6.9

     negative rho (up, down):  4.247E-02 0.000E+00

     total cpu time spent up to now is      526.2 secs

     total energy              =    -362.13604791 Ry
     estimated scf accuracy    <       0.00003084 Ry

     iteration #  8     ecut=    50.00 Ry     beta= 0.70
     CG style diagonalization
     c_bands:  1 eigenvalues not converged
     c_bands:  1 eigenvalues not converged
     ethr =  7.01E-08,  avg # of iterations =  4.7

     negative rho (up, down):  4.274E-02 0.000E+00

     total cpu time spent up to now is      544.4 secs

     total energy              =    -362.13624482 Ry
     estimated scf accuracy    <       0.00000319 Ry

     iteration #  9     ecut=    50.00 Ry     beta= 0.70
     CG style diagonalization
     c_bands:  1 eigenvalues not converged
     c_bands:  1 eigenvalues not converged
     c_bands:  1 eigenvalues not converged
     c_bands:  1 eigenvalues not converged
     ethr =  7.26E-09,  avg # of iterations =  6.4

     negative rho (up, down):  4.274E-02 0.000E+00

     total cpu time spent up to now is      569.5 secs

     total energy              =    -362.14004317 Ry
     estimated scf accuracy    <       0.00017434 Ry

     iteration # 10     ecut=    50.00 Ry     beta= 0.70
     CG style diagonalization
     c_bands:  1 eigenvalues not converged
     ethr =  7.26E-09,  avg # of iterations =  3.3

     negative rho (up, down):  4.275E-02 0.000E+00

     total cpu time spent up to now is      582.4 secs

     total energy              =    -362.14003746 Ry
     estimated scf accuracy    <       0.00016297 Ry

     iteration # 11     ecut=    50.00 Ry     beta= 0.70
     CG style diagonalization
     ethr =  7.26E-09,  avg # of iterations =  3.7

     negative rho (up, down):  4.278E-02 0.000E+00

     total cpu time spent up to now is      597.1 secs

     total energy              =    -362.14001268 Ry
     estimated scf accuracy    <       0.00011930 Ry

     iteration # 12     ecut=    50.00 Ry     beta= 0.70
     CG style diagonalization
     c_bands:  1 eigenvalues not converged
     c_bands:  1 eigenvalues not converged
     c_bands:  1 eigenvalues not converged
     ethr =  7.26E-09,  avg # of iterations =  4.7

     negative rho (up, down):  4.277E-02 0.000E+00

     total cpu time spent up to now is      615.7 secs

     total energy              =    -362.14452133 Ry
     estimated scf accuracy    <       0.00040368 Ry

     iteration # 13     ecut=    50.00 Ry     beta= 0.70
     CG style diagonalization
     c_bands:  1 eigenvalues not converged
     c_bands:  1 eigenvalues not converged
     ethr =  7.26E-09,  avg # of iterations =  3.0

     negative rho (up, down):  4.276E-02 0.000E+00

     total cpu time spent up to now is      627.5 secs

     total energy              =    -362.14456919 Ry
     estimated scf accuracy    <       0.00041087 Ry

     iteration # 14     ecut=    50.00 Ry     beta= 0.70
     CG style diagonalization
     ethr =  7.26E-09,  avg # of iterations =  3.0

     negative rho (up, down):  4.275E-02 0.000E+00

     total cpu time spent up to now is      639.2 secs

     total energy              =    -362.14456748 Ry
     estimated scf accuracy    <       0.00041113 Ry

     iteration # 15     ecut=    50.00 Ry     beta= 0.70
     CG style diagonalization
     ethr =  7.26E-09,  avg # of iterations =  3.0

     negative rho (up, down):  4.275E-02 0.000E+00

     total cpu time spent up to now is      650.9 secs

     total energy              =    -362.14458154 Ry
     estimated scf accuracy    <       0.00040763 Ry

     iteration # 16     ecut=    50.00 Ry     beta= 0.70
     CG style diagonalization
     ethr =  7.26E-09,  avg # of iterations =  3.1

     negative rho (up, down):  4.279E-02 0.000E+00

     total cpu time spent up to now is      663.0 secs

     total energy              =    -362.14448138 Ry
     estimated scf accuracy    <       0.00043979 Ry

     iteration # 17     ecut=    50.00 Ry     beta= 0.70
     CG style diagonalization
     c_bands:  1 eigenvalues not converged
     c_bands:  1 eigenvalues not converged
     c_bands:  1 eigenvalues not converged
     ethr =  7.26E-09,  avg # of iterations =  5.6

     negative rho (up, down):  4.281E-02 0.000E+00

     total cpu time spent up to now is      685.2 secs

     total energy              =    -362.14444517 Ry
     estimated scf accuracy    <       0.00017588 Ry

     iteration # 18     ecut=    50.00 Ry     beta= 0.70
     CG style diagonalization
     c_bands:  1 eigenvalues not converged
     c_bands:  1 eigenvalues not converged
     ethr =  7.26E-09,  avg # of iterations =  5.3

     negative rho (up, down):  4.280E-02 0.000E+00

     total cpu time spent up to now is      706.3 secs

     total energy              =    -362.14444236 Ry
     estimated scf accuracy    <       0.00005455 Ry

     iteration # 19     ecut=    50.00 Ry     beta= 0.70
     CG style diagonalization
     c_bands:  1 eigenvalues not converged
     ethr =  7.26E-09,  avg # of iterations =  3.6

     negative rho (up, down):  4.281E-02 0.000E+00

     total cpu time spent up to now is      720.6 secs

     total energy              =    -362.14443116 Ry
     estimated scf accuracy    <       0.00003138 Ry

     iteration # 20     ecut=    50.00 Ry     beta= 0.70
     CG style diagonalization
     c_bands:  1 eigenvalues not converged
     ethr =  7.26E-09,  avg # of iterations =  4.7

     negative rho (up, down):  4.281E-02 0.000E+00

     total cpu time spent up to now is      739.0 secs

     total energy              =    -362.14443167 Ry
     estimated scf accuracy    <       0.00000357 Ry

     iteration # 21     ecut=    50.00 Ry     beta= 0.70
     CG style diagonalization
     c_bands:  1 eigenvalues not converged
     ethr =  7.26E-09,  avg # of iterations =  3.8

     negative rho (up, down):  4.281E-02 0.000E+00

     total cpu time spent up to now is      753.9 secs

     total energy              =    -362.14443246 Ry
     estimated scf accuracy    <       0.00000003 Ry

     iteration # 22     ecut=    50.00 Ry     beta= 0.70
     CG style diagonalization
     c_bands:  1 eigenvalues not converged
     c_bands:  1 eigenvalues not converged
     c_bands:  1 eigenvalues not converged
     ethr =  7.48E-11,  avg # of iterations =  7.5

     negative rho (up, down):  4.280E-02 0.000E+00

     total cpu time spent up to now is      783.6 secs

     End of self-consistent calculation

     Number of k-points >= 100: set verbosity='high' to print the bands.

     highest occupied level (ev):    64.7276

!    total energy              =    -362.14443257 Ry
     estimated scf accuracy    <          6.2E-09 Ry

     The total energy is the sum of the following terms:
     one-electron contribution =     136.17705285 Ry
     hartree contribution      =      36.94249863 Ry
     xc contribution           =    -115.66403489 Ry
     ewald contribution        =    -419.59994915 Ry

     convergence has been achieved in  22 iterations

     negative rho (up, down):  4.280E-02 0.000E+00

     Forces acting on atoms (cartesian axes, Ry/au):

     atom    1 type  1   force =     4.69953737   -4.69953737    4.47911979
     atom    2 type  2   force =     0.60617037   -0.60617037   -2.34453551
     atom    3 type  3   force =    -0.35521981    0.35521981    0.30850800
     atom    4 type  3   force =    -0.47711795    4.47336997   -1.22154614
     atom    5 type  3   force =    -4.47336997    0.47711795   -1.22154614

     Total force =    10.689939     Total SCF correction =     0.000258


     Computing stress (Cartesian axis) and pressure


     negative rho (up, down):  4.280E-02 0.000E+00
          total   stress  (Ry/bohr**3)                   (kbar)     P=    52517.12
   0.36156645   0.00194294   0.05758244        53188.26      285.82     8470.67
   0.00194294   0.36156645  -0.05758244          285.82    53188.26    -8470.67
   0.05758244  -0.05758244   0.34787953         8470.67    -8470.67    51174.85

     Energy error            =      4.5E-01 Ry
     Gradient error          =      4.7E+00 Ry/Bohr

     number of scf cycles    =   2
     number of bfgs steps    =   1

     energy             old  =    -362.5923615610 Ry
     energy             new  =    -362.1444325736 Ry

     CASE: energy            _new > energy            _old

     new trust radius        =       0.2296991365 bohr
     new conv_thr            =       0.0000000100 Ry


ATOMIC_POSITIONS (crystal)
Pb           -0.0311705768       -0.0311705768        1.0432861010
Ti            0.5108508449        0.5108508449        0.5487497306
O             0.4990906850        0.4990906850        0.0909381520
O             0.5305225039       -0.0092934570        0.5921551522
O            -0.0092934570        0.5305225039        0.5921551522



     Writing config-only to output data dir ./PTO.save/
     NEW-OLD atomic charge density approx. for the potential

     negative rho (up, down):  3.347E-02 0.000E+00

     total cpu time spent up to now is      790.2 secs

     Self-consistent Calculation

     iteration #  1     ecut=    50.00 Ry     beta= 0.70
     CG style diagonalization
     c_bands:  1 eigenvalues not converged
     c_bands:  1 eigenvalues not converged
     c_bands:  5 eigenvalues not converged
     c_bands:  1 eigenvalues not converged
     c_bands:  1 eigenvalues not converged
     c_bands:  1 eigenvalues not converged
     c_bands:  1 eigenvalues not converged
     c_bands:  4 eigenvalues not converged
     ethr =  1.00E-06,  avg # of iterations = 24.4

     negative rho (up, down):  3.869E-02 0.000E+00

     total cpu time spent up to now is      884.7 secs

     total energy              =    -363.65327249 Ry
     estimated scf accuracy    <       0.17832031 Ry

     iteration #  2     ecut=    50.00 Ry     beta= 0.70
     CG style diagonalization
     ethr =  4.05E-04,  avg # of iterations =  3.9

     negative rho (up, down):  4.121E-02 0.000E+00

     total cpu time spent up to now is      900.3 secs

     total energy              =    -363.68056114 Ry
     estimated scf accuracy    <       0.02608290 Ry

     iteration #  3     ecut=    50.00 Ry     beta= 0.70
     CG style diagonalization
     ethr =  5.93E-05,  avg # of iterations =  4.4

     negative rho (up, down):  4.247E-02 0.000E+00

     total cpu time spent up to now is      917.8 secs

     total energy              =    -363.69504363 Ry
     estimated scf accuracy    <       0.00466949 Ry

     iteration #  4     ecut=    50.00 Ry     beta= 0.70
     CG style diagonalization
     c_bands:  1 eigenvalues not converged
     ethr =  1.06E-05,  avg # of iterations =  5.0

     negative rho (up, down):  4.288E-02 0.000E+00

     total cpu time spent up to now is      937.7 secs

     total energy              =    -363.69742684 Ry
     estimated scf accuracy    <       0.00210738 Ry

     iteration #  5     ecut=    50.00 Ry     beta= 0.70
     CG style diagonalization
     ethr =  4.79E-06,  avg # of iterations =  4.3

     negative rho (up, down):  4.318E-02 0.000E+00

     total cpu time spent up to now is      954.6 secs

     total energy              =    -363.69814397 Ry
     estimated scf accuracy    <       0.00025826 Ry

     iteration #  6     ecut=    50.00 Ry     beta= 0.70
     CG style diagonalization
     ethr =  5.87E-07,  avg # of iterations =  5.1

     negative rho (up, down):  4.323E-02 0.000E+00

     total cpu time spent up to now is      974.7 secs

     total energy              =    -363.69832216 Ry
     estimated scf accuracy    <       0.00001382 Ry

     iteration #  7     ecut=    50.00 Ry     beta= 0.70
     CG style diagonalization
     c_bands:  1 eigenvalues not converged
     c_bands:  1 eigenvalues not converged
     c_bands:  1 eigenvalues not converged
     ethr =  3.14E-08,  avg # of iterations =  7.8

     negative rho (up, down):  4.319E-02 0.000E+00

     total cpu time spent up to now is     1006.5 secs

     total energy              =    -363.69874803 Ry
     estimated scf accuracy    <       0.00001789 Ry

     iteration #  8     ecut=    50.00 Ry     beta= 0.70
     CG style diagonalization
     c_bands:  1 eigenvalues not converged
     ethr =  3.14E-08,  avg # of iterations =  3.8

     negative rho (up, down):  4.321E-02 0.000E+00

     total cpu time spent up to now is     1021.9 secs

     total energy              =    -363.69928745 Ry
     estimated scf accuracy    <       0.00000475 Ry

     iteration #  9     ecut=    50.00 Ry     beta= 0.70
     CG style diagonalization
     c_bands:  1 eigenvalues not converged
     c_bands:  1 eigenvalues not converged
     ethr =  1.08E-08,  avg # of iterations =  3.7

     negative rho (up, down):  4.325E-02 0.000E+00

     total cpu time spent up to now is     1036.5 secs

     total energy              =    -363.69928849 Ry
     estimated scf accuracy    <       0.00000196 Ry

     iteration # 10     ecut=    50.00 Ry     beta= 0.70
     CG style diagonalization
     c_bands:  1 eigenvalues not converged
     c_bands:  1 eigenvalues not converged
     ethr =  4.46E-09,  avg # of iterations =  5.0

     negative rho (up, down):  4.324E-02 0.000E+00

     total cpu time spent up to now is     1056.9 secs

     total energy              =    -363.69928952 Ry
     estimated scf accuracy    <       0.00000025 Ry

     iteration # 11     ecut=    50.00 Ry     beta= 0.70
     CG style diagonalization
     c_bands:  1 eigenvalues not converged
     c_bands:  1 eigenvalues not converged
     ethr =  5.60E-10,  avg # of iterations =  7.0

     negative rho (up, down):  4.324E-02 0.000E+00

     total cpu time spent up to now is     1085.2 secs

     total energy              =    -363.69961584 Ry
     estimated scf accuracy    <       0.00000543 Ry

     iteration # 12     ecut=    50.00 Ry     beta= 0.70
     CG style diagonalization
     c_bands:  1 eigenvalues not converged
     ethr =  5.60E-10,  avg # of iterations =  3.3

     negative rho (up, down):  4.323E-02 0.000E+00

     total cpu time spent up to now is     1098.1 secs

     total energy              =    -363.69969815 Ry
     estimated scf accuracy    <       0.00000931 Ry

     iteration # 13     ecut=    50.00 Ry     beta= 0.70
     CG style diagonalization
     c_bands:  1 eigenvalues not converged
     ethr =  5.60E-10,  avg # of iterations =  3.4

     negative rho (up, down):  4.322E-02 0.000E+00

     total cpu time spent up to now is     1111.6 secs

     total energy              =    -363.69969684 Ry
     estimated scf accuracy    <       0.00000705 Ry

     iteration # 14     ecut=    50.00 Ry     beta= 0.70
     CG style diagonalization
     c_bands:  1 eigenvalues not converged
     c_bands:  1 eigenvalues not converged
     c_bands:  1 eigenvalues not converged
     ethr =  5.60E-10,  avg # of iterations =  4.7

     negative rho (up, down):  4.322E-02 0.000E+00

     total cpu time spent up to now is     1130.3 secs

     total energy              =    -363.69969735 Ry
     estimated scf accuracy    <       0.00000213 Ry

     iteration # 15     ecut=    50.00 Ry     beta= 0.70
     CG style diagonalization
     ethr =  5.60E-10,  avg # of iterations =  3.2

     negative rho (up, down):  4.322E-02 0.000E+00

     total cpu time spent up to now is     1142.7 secs

     total energy              =    -363.69969672 Ry
     estimated scf accuracy    <       0.00000290 Ry

     iteration # 16     ecut=    50.00 Ry     beta= 0.70
     CG style diagonalization
     c_bands:  1 eigenvalues not converged
     ethr =  5.60E-10,  avg # of iterations =  3.8

     negative rho (up, down):  4.322E-02 0.000E+00

     total cpu time spent up to now is     1158.4 secs

     total energy              =    -363.69969646 Ry
     estimated scf accuracy    <       0.00000113 Ry

     iteration # 17     ecut=    50.00 Ry     beta= 0.70
     CG style diagonalization
     ethr =  5.60E-10,  avg # of iterations =  3.8

     negative rho (up, down):  4.322E-02 0.000E+00

     total cpu time spent up to now is     1173.2 secs

     total energy              =    -363.69969646 Ry
     estimated scf accuracy    <       0.00000025 Ry

     iteration # 18     ecut=    50.00 Ry     beta= 0.70
     CG style diagonalization
     ethr =  5.60E-10,  avg # of iterations =  3.1

     negative rho (up, down):  4.321E-02 0.000E+00

     total cpu time spent up to now is     1185.3 secs

     total energy              =    -363.69969643 Ry
     estimated scf accuracy    <       0.00000010 Ry

     iteration # 19     ecut=    50.00 Ry     beta= 0.70
     CG style diagonalization
     c_bands:  1 eigenvalues not converged
     ethr =  2.25E-10,  avg # of iterations =  3.8

     negative rho (up, down):  4.322E-02 0.000E+00

     total cpu time spent up to now is     1200.4 secs

     End of self-consistent calculation

     Number of k-points >= 100: set verbosity='high' to print the bands.

     highest occupied level (ev):    64.6881

!    total energy              =    -363.69969645 Ry
     estimated scf accuracy    <          4.4E-09 Ry

     The total energy is the sum of the following terms:
     one-electron contribution =     144.88546633 Ry
     hartree contribution      =      33.28102713 Ry
     xc contribution           =    -115.19621807 Ry
     ewald contribution        =    -426.66997184 Ry

     convergence has been achieved in  19 iterations

     negative rho (up, down):  4.322E-02 0.000E+00

     Forces acting on atoms (cartesian axes, Ry/au):

     atom    1 type  1   force =     1.58550043   -1.58550043   -0.30347791
     atom    2 type  2   force =    -0.42508097    0.42508097    0.12544691
     atom    3 type  3   force =     0.16461978   -0.16461978    0.05113309
     atom    4 type  3   force =    -0.37924378    0.94579546    0.06344896
     atom    5 type  3   force =    -0.94579546    0.37924378    0.06344896

     Total force =     2.763770     Total SCF correction =     0.000079


     Computing stress (Cartesian axis) and pressure


     negative rho (up, down):  4.322E-02 0.000E+00
          total   stress  (Ry/bohr**3)                   (kbar)     P=    49904.75
   0.33968595   0.03041804   0.04065023        49969.53     4474.65     5979.85
   0.03041804   0.33968595  -0.04065023         4474.65    49969.53    -5979.85
   0.04065023  -0.04065023   0.33836481         5979.85    -5979.85    49775.18

     Energy error            =      1.1E+00 Ry
     Gradient error          =      1.6E+00 Ry/Bohr

     number of scf cycles    =   3
     number of bfgs steps    =   1

     energy             old  =    -362.5923615610 Ry
     energy             new  =    -363.6996964530 Ry

     CASE: energy            _new < energy            _old

     new trust radius        =       0.6890974094 bohr
     new conv_thr            =       0.0000000100 Ry


ATOMIC_POSITIONS (crystal)
Pb           -0.0763366139       -0.0763366139        0.9707136399
Ti            0.5273423999        0.5273423999        0.5859986517
O             0.5001017125        0.5001017125        0.0679103999
O             0.5435513257        0.0053411758        0.6213307982
O             0.0053411758        0.5435513257        0.6213307982



     Writing config-only to output data dir ./PTO.save/
     NEW-OLD atomic charge density approx. for the potential

     negative rho (up, down):  9.512E-03 0.000E+00

     total cpu time spent up to now is     1207.1 secs

     Self-consistent Calculation

     iteration #  1     ecut=    50.00 Ry     beta= 0.70
     CG style diagonalization
     c_bands:  1 eigenvalues not converged
     c_bands:  1 eigenvalues not converged
     c_bands:  1 eigenvalues not converged
     c_bands:  1 eigenvalues not converged
     c_bands:  2 eigenvalues not converged
     c_bands:  1 eigenvalues not converged
     c_bands:  1 eigenvalues not converged
     c_bands:  1 eigenvalues not converged
     c_bands:  1 eigenvalues not converged
     c_bands:  2 eigenvalues not converged
     c_bands:  2 eigenvalues not converged
     c_bands:  2 eigenvalues not converged
     ethr =  1.00E-06,  avg # of iterations = 27.0

     negative rho (up, down):  2.822E-02 0.000E+00

     total cpu time spent up to now is     1311.0 secs

     total energy              =    -364.53322781 Ry
     estimated scf accuracy    <       0.46949048 Ry

     iteration #  2     ecut=    50.00 Ry     beta= 0.70
     CG style diagonalization
     c_bands:  1 eigenvalues not converged
     ethr =  1.07E-03,  avg # of iterations =  4.4

     negative rho (up, down):  3.062E-02 0.000E+00

     total cpu time spent up to now is     1328.4 secs

     total energy              =    -364.55477293 Ry
     estimated scf accuracy    <       0.52520268 Ry

     iteration #  3     ecut=    50.00 Ry     beta= 0.70
     CG style diagonalization
     ethr =  1.07E-03,  avg # of iterations =  4.0

     negative rho (up, down):  3.441E-02 0.000E+00

     total cpu time spent up to now is     1344.2 secs

     total energy              =    -364.68629941 Ry
     estimated scf accuracy    <       0.03263977 Ry

     iteration #  4     ecut=    50.00 Ry     beta= 0.70
     CG style diagonalization
     ethr =  7.42E-05,  avg # of iterations =  4.0

     negative rho (up, down):  3.626E-02 0.000E+00

     total cpu time spent up to now is     1360.2 secs

     total energy              =    -364.69903807 Ry
     estimated scf accuracy    <       0.00119780 Ry

     iteration #  5     ecut=    50.00 Ry     beta= 0.70
     CG style diagonalization
     ethr =  2.72E-06,  avg # of iterations =  6.2

     negative rho (up, down):  3.682E-02 0.000E+00

     total cpu time spent up to now is     1384.9 secs

     total energy              =    -364.70051414 Ry
     estimated scf accuracy    <       0.00031396 Ry

     iteration #  6     ecut=    50.00 Ry     beta= 0.70
     CG style diagonalization
     ethr =  7.14E-07,  avg # of iterations =  5.0

     negative rho (up, down):  3.730E-02 0.000E+00

     total cpu time spent up to now is     1404.5 secs

     total energy              =    -364.70066460 Ry
     estimated scf accuracy    <       0.00003656 Ry

     iteration #  7     ecut=    50.00 Ry     beta= 0.70
     CG style diagonalization
     ethr =  8.31E-08,  avg # of iterations =  6.9

     negative rho (up, down):  3.745E-02 0.000E+00

     total cpu time spent up to now is     1432.0 secs

     total energy              =    -364.70071634 Ry
     estimated scf accuracy    <       0.00001507 Ry

     iteration #  8     ecut=    50.00 Ry     beta= 0.70
     CG style diagonalization
     ethr =  3.42E-08,  avg # of iterations =  4.6

     negative rho (up, down):  3.752E-02 0.000E+00

     total cpu time spent up to now is     1450.3 secs

     total energy              =    -364.70072256 Ry
     estimated scf accuracy    <       0.00000132 Ry

     iteration #  9     ecut=    50.00 Ry     beta= 0.70
     CG style diagonalization
     c_bands:  1 eigenvalues not converged
     ethr =  2.99E-09,  avg # of iterations =  7.7

     negative rho (up, down):  3.755E-02 0.000E+00

     total cpu time spent up to now is     1480.8 secs

     total energy              =    -364.70102897 Ry
     estimated scf accuracy    <       0.00000314 Ry

     iteration # 10     ecut=    50.00 Ry     beta= 0.70
     CG style diagonalization
     c_bands:  1 eigenvalues not converged
     ethr =  2.99E-09,  avg # of iterations =  3.3

     negative rho (up, down):  3.761E-02 0.000E+00

     total cpu time spent up to now is     1493.9 secs

     total energy              =    -364.70104348 Ry
     estimated scf accuracy    <       0.00000174 Ry

     iteration # 11     ecut=    50.00 Ry     beta= 0.70
     CG style diagonalization
     ethr =  2.99E-09,  avg # of iterations =  3.9

     negative rho (up, down):  3.761E-02 0.000E+00

     total cpu time spent up to now is     1509.2 secs

     total energy              =    -364.70104379 Ry
     estimated scf accuracy    <       0.00000004 Ry

     iteration # 12     ecut=    50.00 Ry     beta= 0.70
     CG style diagonalization
     ethr =  8.98E-11,  avg # of iterations =  8.3

     negative rho (up, down):  3.762E-02 0.000E+00

     total cpu time spent up to now is     1542.0 secs

     total energy              =    -364.70104392 Ry
     estimated scf accuracy    <       0.00000002 Ry

     iteration # 13     ecut=    50.00 Ry     beta= 0.70
     CG style diagonalization
     ethr =  4.37E-11,  avg # of iterations =  4.7

     negative rho (up, down):  3.762E-02 0.000E+00

     total cpu time spent up to now is     1560.6 secs

     End of self-consistent calculation

     Number of k-points >= 100: set verbosity='high' to print the bands.

     highest occupied level (ev):    65.3225

!    total energy              =    -364.70104392 Ry
     estimated scf accuracy    <          8.6E-09 Ry

     The total energy is the sum of the following terms:
     one-electron contribution =     146.45429115 Ry
     hartree contribution      =      32.39620660 Ry
     xc contribution           =    -115.02575578 Ry
     ewald contribution        =    -428.52578588 Ry

     convergence has been achieved in  13 iterations

     negative rho (up, down):  3.762E-02 0.000E+00

     Forces acting on atoms (cartesian axes, Ry/au):

     atom    1 type  1   force =    -0.26040645    0.26040645   -0.70811035
     atom    2 type  2   force =     1.93130753   -1.93130753   -0.28631385
     atom    3 type  3   force =    -1.48568383    1.48568383   -0.65410171
     atom    4 type  3   force =     0.42914241    0.61435966    0.82426296
     atom    5 type  3   force =    -0.61435966   -0.42914241    0.82426296

     Total force =     3.937423     Total SCF correction =     0.000184


     Computing stress (Cartesian axis) and pressure


     negative rho (up, down):  3.762E-02 0.000E+00
          total   stress  (Ry/bohr**3)                   (kbar)     P=    47436.59
   0.32929114   0.01559631   0.00036825        48440.40     2294.30       54.17
   0.01559631   0.32929114  -0.00036825         2294.30    48440.40      -54.17
   0.00036825  -0.00036825   0.30881979           54.17      -54.17    45428.96

     Energy error            =      1.0E+00 Ry
     Gradient error          =      1.9E+00 Ry/Bohr

     number of scf cycles    =   4
     number of bfgs steps    =   2

     energy             old  =    -363.6996964530 Ry
     energy             new  =    -364.7010439246 Ry

     CASE: energy            _new < energy            _old

     new trust radius        =       0.8000000000 bohr
     new conv_thr            =       0.0000000100 Ry


ATOMIC_POSITIONS (crystal)
Pb           -0.1521441328       -0.1521441328        0.9341984303
Ti            0.5403638451        0.5403638451        0.5325850376
O             0.4835323137        0.4835323137        0.1380946133
O             0.5594421424        0.0688058317        0.6312031034
O             0.0688058317        0.5594421424        0.6312031034



     Writing config-only to output data dir ./PTO.save/
     NEW-OLD atomic charge density approx. for the potential

     negative rho (up, down):  5.393E-03 0.000E+00

     total cpu time spent up to now is     1567.2 secs

     Self-consistent Calculation

     iteration #  1     ecut=    50.00 Ry     beta= 0.70
     CG style diagonalization
     c_bands:  2 eigenvalues not converged
     c_bands:  1 eigenvalues not converged
     c_bands:  1 eigenvalues not converged
     c_bands:  1 eigenvalues not converged
     c_bands:  1 eigenvalues not converged
     c_bands:  1 eigenvalues not converged
     c_bands:  1 eigenvalues not converged
     c_bands:  1 eigenvalues not converged
     c_bands:  1 eigenvalues not converged
     c_bands:  1 eigenvalues not converged
     c_bands:  1 eigenvalues not converged
     c_bands:  1 eigenvalues not converged
     c_bands:  1 eigenvalues not converged
     c_bands:  1 eigenvalues not converged
     c_bands:  1 eigenvalues not converged
     c_bands:  1 eigenvalues not converged
     c_bands:  1 eigenvalues not converged
     c_bands:  1 eigenvalues not converged
     ethr =  1.00E-06,  avg # of iterations = 28.9

     negative rho (up, down):  1.211E-02 0.000E+00

     total cpu time spent up to now is     1679.1 secs

     total energy              =    -359.74689308 Ry
     estimated scf accuracy    <       1.06667139 Ry

     iteration #  2     ecut=    50.00 Ry     beta= 0.70
     CG style diagonalization
     ethr =  2.42E-03,  avg # of iterations =  4.3

     negative rho (up, down):  1.843E-02 0.000E+00

     total cpu time spent up to now is     1696.0 secs

     total energy              =    -359.94388069 Ry
     estimated scf accuracy    <       0.29075622 Ry

     iteration #  3     ecut=    50.00 Ry     beta= 0.70
     CG style diagonalization
     ethr =  6.61E-04,  avg # of iterations =  4.2

     negative rho (up, down):  2.437E-02 0.000E+00

     total cpu time spent up to now is     1712.3 secs

     total energy              =    -360.06030681 Ry
     estimated scf accuracy    <       0.03651233 Ry

     iteration #  4     ecut=    50.00 Ry     beta= 0.70
     CG style diagonalization
     c_bands:  1 eigenvalues not converged
     ethr =  8.30E-05,  avg # of iterations =  4.6

     negative rho (up, down):  2.794E-02 0.000E+00

     total cpu time spent up to now is     1730.6 secs

     total energy              =    -360.07914413 Ry
     estimated scf accuracy    <       0.00981717 Ry

     iteration #  5     ecut=    50.00 Ry     beta= 0.70
     CG style diagonalization
     ethr =  2.23E-05,  avg # of iterations =  4.7

     negative rho (up, down):  3.200E-02 0.000E+00

     total cpu time spent up to now is     1749.1 secs

     total energy              =    -360.08305562 Ry
     estimated scf accuracy    <       0.00216575 Ry

     iteration #  6     ecut=    50.00 Ry     beta= 0.70
     CG style diagonalization
     ethr =  4.92E-06,  avg # of iterations =  4.6

     negative rho (up, down):  3.422E-02 0.000E+00

     total cpu time spent up to now is     1767.2 secs

     total energy              =    -360.08403044 Ry
     estimated scf accuracy    <       0.00024048 Ry

     iteration #  7     ecut=    50.00 Ry     beta= 0.70
     CG style diagonalization
     c_bands:  1 eigenvalues not converged
     ethr =  5.47E-07,  avg # of iterations =  6.1

     negative rho (up, down):  3.399E-02 0.000E+00

     total cpu time spent up to now is     1791.5 secs

     total energy              =    -360.08589860 Ry
     estimated scf accuracy    <       0.00003274 Ry

     iteration #  8     ecut=    50.00 Ry     beta= 0.70
     CG style diagonalization
     c_bands:  1 eigenvalues not converged
     ethr =  7.44E-08,  avg # of iterations =  6.1

     negative rho (up, down):  3.414E-02 0.000E+00

     total cpu time spent up to now is     1815.6 secs

     total energy              =    -360.08596195 Ry
     estimated scf accuracy    <       0.00000373 Ry

     iteration #  9     ecut=    50.00 Ry     beta= 0.70
     CG style diagonalization
     c_bands:  1 eigenvalues not converged
     ethr =  8.48E-09,  avg # of iterations =  6.5

     negative rho (up, down):  3.425E-02 0.000E+00

     total cpu time spent up to now is     1841.4 secs

     total energy              =    -360.08655387 Ry
     estimated scf accuracy    <       0.00000239 Ry

     iteration # 10     ecut=    50.00 Ry     beta= 0.70
     CG style diagonalization
     c_bands:  1 eigenvalues not converged
     ethr =  5.44E-09,  avg # of iterations =  4.0

     negative rho (up, down):  3.418E-02 0.000E+00

     total cpu time spent up to now is     1857.2 secs

     total energy              =    -360.08655551 Ry
     estimated scf accuracy    <       0.00000068 Ry

     iteration # 11     ecut=    50.00 Ry     beta= 0.70
     CG style diagonalization
     ethr =  1.54E-09,  avg # of iterations =  4.4

     negative rho (up, down):  3.418E-02 0.000E+00

     total cpu time spent up to now is     1874.6 secs

     total energy              =    -360.08655577 Ry
     estimated scf accuracy    <       0.00000006 Ry

     iteration # 12     ecut=    50.00 Ry     beta= 0.70
     CG style diagonalization
     ethr =  1.34E-10,  avg # of iterations =  7.1

     negative rho (up, down):  3.419E-02 0.000E+00

     total cpu time spent up to now is     1903.0 secs

     total energy              =    -360.08655588 Ry
     estimated scf accuracy    <       0.00000001 Ry

     iteration # 13     ecut=    50.00 Ry     beta= 0.70
     CG style diagonalization
     ethr =  2.92E-11,  avg # of iterations =  4.8

     negative rho (up, down):  3.419E-02 0.000E+00

     total cpu time spent up to now is     1922.0 secs

     End of self-consistent calculation

     Number of k-points >= 100: set verbosity='high' to print the bands.

     highest occupied level (ev):    65.0078

!    total energy              =    -360.08655589 Ry
     estimated scf accuracy    <          1.6E-09 Ry

     The total energy is the sum of the following terms:
     one-electron contribution =     124.16246876 Ry
     hartree contribution      =      42.19314480 Ry
     xc contribution           =    -116.38141077 Ry
     ewald contribution        =    -410.06075867 Ry

     convergence has been achieved in  13 iterations

     negative rho (up, down):  3.419E-02 0.000E+00

     Forces acting on atoms (cartesian axes, Ry/au):

     atom    1 type  1   force =    -5.61617578    5.61617578    4.18387622
     atom    2 type  2   force =    -2.49047914    2.49047914    2.78837087
     atom    3 type  3   force =     1.97849992   -1.97849992   -1.30280848
     atom    4 type  3   force =     3.92234343   -2.20581157   -2.83471931
     atom    5 type  3   force =     2.20581157   -3.92234343   -2.83471931

     Total force =    12.917660     Total SCF correction =     0.000092


     Computing stress (Cartesian axis) and pressure


     negative rho (up, down):  3.419E-02 0.000E+00
          total   stress  (Ry/bohr**3)                   (kbar)     P=    54415.43
   0.38663661  -0.03074949  -0.00236367        56876.21    -4523.41     -347.71
  -0.03074949   0.38663661   0.00236367        -4523.41    56876.21      347.71
  -0.00236367   0.00236367   0.33645253         -347.71      347.71    49493.88

     Energy error            =      4.6E+00 Ry
     Gradient error          =      5.6E+00 Ry/Bohr

     number of scf cycles    =   5
     number of bfgs steps    =   3

     energy             old  =    -364.7010439246 Ry
     energy             new  =    -360.0865558890 Ry

     CASE: energy            _new > energy            _old

     new trust radius        =       0.1252015813 bohr
     new conv_thr            =       0.0000000100 Ry


ATOMIC_POSITIONS (crystal)
Pb           -0.0882006404       -0.0882006404        0.9649989375
Ti            0.5293802818        0.5293802818        0.5776393155
O             0.4975085688        0.4975085688        0.0788943680
O             0.5460382699        0.0152735199        0.6228758335
O             0.0152735199        0.5460382699        0.6228758335



     Writing config-only to output data dir ./PTO.save/
     NEW-OLD atomic charge density approx. for the potential

     negative rho (up, down):  8.785E-03 0.000E+00

     total cpu time spent up to now is     1928.6 secs

     Self-consistent Calculation

     iteration #  1     ecut=    50.00 Ry     beta= 0.70
     CG style diagonalization
     c_bands:  1 eigenvalues not converged
     c_bands:  1 eigenvalues not converged
     c_bands:  1 eigenvalues not converged
     c_bands:  2 eigenvalues not converged
     c_bands:  2 eigenvalues not converged
     c_bands:  1 eigenvalues not converged
     c_bands:  1 eigenvalues not converged
     c_bands:  1 eigenvalues not converged
     c_bands:  1 eigenvalues not converged
     c_bands:  1 eigenvalues not converged
     c_bands:  1 eigenvalues not converged
     c_bands:  1 eigenvalues not converged
     c_bands:  1 eigenvalues not converged
     c_bands:  1 eigenvalues not converged
     c_bands:  1 eigenvalues not converged
     c_bands:  1 eigenvalues not converged
     c_bands:  1 eigenvalues not converged
     c_bands:  1 eigenvalues not converged
     c_bands:  1 eigenvalues not converged
     c_bands:  1 eigenvalues not converged
     c_bands:  1 eigenvalues not converged
     c_bands:  2 eigenvalues not converged
     c_bands:  1 eigenvalues not converged
     c_bands:  1 eigenvalues not converged
     c_bands:  1 eigenvalues not converged
     c_bands:  1 eigenvalues not converged
     c_bands:  2 eigenvalues not converged
     c_bands:  1 eigenvalues not converged
     c_bands:  1 eigenvalues not converged
     c_bands:  1 eigenvalues not converged
     c_bands:  1 eigenvalues not converged
     c_bands:  1 eigenvalues not converged
     ethr =  1.00E-06,  avg # of iterations = 28.1

     negative rho (up, down):  2.731E-02 0.000E+00

     total cpu time spent up to now is     2038.8 secs

     total energy              =    -364.70395428 Ry
     estimated scf accuracy    <       0.70111411 Ry

     iteration #  2     ecut=    50.00 Ry     beta= 0.70
     CG style diagonalization
     ethr =  1.59E-03,  avg # of iterations =  4.2

     negative rho (up, down):  3.094E-02 0.000E+00

     total cpu time spent up to now is     2055.1 secs

     total energy              =    -364.79218999 Ry
     estimated scf accuracy    <       0.24086009 Ry

     iteration #  3     ecut=    50.00 Ry     beta= 0.70
     CG style diagonalization
     ethr =  5.47E-04,  avg # of iterations =  4.1

     negative rho (up, down):  3.431E-02 0.000E+00

     total cpu time spent up to now is     2071.2 secs

     total energy              =    -364.87424065 Ry
     estimated scf accuracy    <       0.04520068 Ry

     iteration #  4     ecut=    50.00 Ry     beta= 0.70
     CG style diagonalization
     ethr =  1.03E-04,  avg # of iterations =  4.1

     negative rho (up, down):  3.568E-02 0.000E+00

     total cpu time spent up to now is     2087.4 secs

     total energy              =    -364.88884780 Ry
     estimated scf accuracy    <       0.00852581 Ry

     iteration #  5     ecut=    50.00 Ry     beta= 0.70
     CG style diagonalization
     ethr =  1.94E-05,  avg # of iterations =  4.5

     negative rho (up, down):  3.646E-02 0.000E+00

     total cpu time spent up to now is     2105.3 secs

     total energy              =    -364.89256255 Ry
     estimated scf accuracy    <       0.00092151 Ry

     iteration #  6     ecut=    50.00 Ry     beta= 0.70
     CG style diagonalization
     ethr =  2.09E-06,  avg # of iterations =  6.0

     negative rho (up, down):  3.724E-02 0.000E+00

     total cpu time spent up to now is     2129.4 secs

     total energy              =    -364.89341541 Ry
     estimated scf accuracy    <       0.00015331 Ry

     iteration #  7     ecut=    50.00 Ry     beta= 0.70
     CG style diagonalization
     ethr =  3.48E-07,  avg # of iterations =  6.0

     negative rho (up, down):  3.724E-02 0.000E+00

     total cpu time spent up to now is     2152.9 secs

     total energy              =    -364.89355362 Ry
     estimated scf accuracy    <       0.00005500 Ry

     iteration #  8     ecut=    50.00 Ry     beta= 0.70
     CG style diagonalization
     ethr =  1.25E-07,  avg # of iterations =  4.9

     negative rho (up, down):  3.742E-02 0.000E+00

     total cpu time spent up to now is     2172.1 secs

     total energy              =    -364.89358509 Ry
     estimated scf accuracy    <       0.00000285 Ry

     iteration #  9     ecut=    50.00 Ry     beta= 0.70
     CG style diagonalization
     ethr =  6.49E-09,  avg # of iterations =  8.7

     negative rho (up, down):  3.752E-02 0.000E+00

     total cpu time spent up to now is     2206.9 secs

     total energy              =    -364.89359774 Ry
     estimated scf accuracy    <       0.00000036 Ry

     iteration # 10     ecut=    50.00 Ry     beta= 0.70
     CG style diagonalization
     c_bands:  1 eigenvalues not converged
     ethr =  8.27E-10,  avg # of iterations =  6.3

     negative rho (up, down):  3.752E-02 0.000E+00

     total cpu time spent up to now is     2232.2 secs

     total energy              =    -364.89646290 Ry
     estimated scf accuracy    <       0.00008869 Ry

     iteration # 11     ecut=    50.00 Ry     beta= 0.70
     CG style diagonalization
     c_bands:  1 eigenvalues not converged
     ethr =  8.27E-10,  avg # of iterations =  3.3

     negative rho (up, down):  3.754E-02 0.000E+00

     total cpu time spent up to now is     2245.0 secs

     total energy              =    -364.89647395 Ry
     estimated scf accuracy    <       0.00009137 Ry

     iteration # 12     ecut=    50.00 Ry     beta= 0.70
     CG style diagonalization
     ethr =  8.27E-10,  avg # of iterations =  4.7

     negative rho (up, down):  3.754E-02 0.000E+00

     total cpu time spent up to now is     2263.5 secs

     total energy              =    -364.89647175 Ry
     estimated scf accuracy    <       0.00006835 Ry

     iteration # 13     ecut=    50.00 Ry     beta= 0.70
     CG style diagonalization
     ethr =  8.27E-10,  avg # of iterations =  3.5

     negative rho (up, down):  3.754E-02 0.000E+00

     total cpu time spent up to now is     2277.6 secs

     total energy              =    -364.89646090 Ry
     estimated scf accuracy    <       0.00006064 Ry

     iteration # 14     ecut=    50.00 Ry     beta= 0.70
     CG style diagonalization
     ethr =  8.27E-10,  avg # of iterations =  5.6

     negative rho (up, down):  3.755E-02 0.000E+00

     total cpu time spent up to now is     2299.9 secs

     total energy              =    -364.89645427 Ry
     estimated scf accuracy    <       0.00002777 Ry

     iteration # 15     ecut=    50.00 Ry     beta= 0.70
     CG style diagonalization
     c_bands:  1 eigenvalues not converged
     ethr =  8.27E-10,  avg # of iterations =  5.6

     negative rho (up, down):  3.754E-02 0.000E+00

     total cpu time spent up to now is     2322.2 secs

     total energy              =    -364.89645242 Ry
     estimated scf accuracy    <       0.00000660 Ry

     iteration # 16     ecut=    50.00 Ry     beta= 0.70
     CG style diagonalization
     ethr =  8.27E-10,  avg # of iterations =  5.6

     negative rho (up, down):  3.754E-02 0.000E+00

     total cpu time spent up to now is     2344.1 secs

     total energy              =    -364.89645343 Ry
     estimated scf accuracy    <       0.00000001 Ry

     iteration # 17     ecut=    50.00 Ry     beta= 0.70
     CG style diagonalization
     c_bands:  1 eigenvalues not converged
     c_bands:  1 eigenvalues not converged
     ethr =  2.84E-11,  avg # of iterations =  8.3

     negative rho (up, down):  3.754E-02 0.000E+00

     total cpu time spent up to now is     2377.0 secs

     total energy              =    -364.89733605 Ry
     estimated scf accuracy    <       0.00003048 Ry

     iteration # 18     ecut=    50.00 Ry     beta= 0.70
     CG style diagonalization
     c_bands:  1 eigenvalues not converged
     ethr =  2.84E-11,  avg # of iterations =  3.1

     negative rho (up, down):  3.754E-02 0.000E+00

     total cpu time spent up to now is     2389.1 secs

     total energy              =    -364.89734138 Ry
     estimated scf accuracy    <       0.00003068 Ry

     iteration # 19     ecut=    50.00 Ry     beta= 0.70
     CG style diagonalization
     c_bands:  1 eigenvalues not converged
     c_bands:  1 eigenvalues not converged
     ethr =  2.84E-11,  avg # of iterations =  4.8

     negative rho (up, down):  3.754E-02 0.000E+00

     total cpu time spent up to now is     2408.1 secs

     total energy              =    -364.89843833 Ry
     estimated scf accuracy    <       0.00007692 Ry

     iteration # 20     ecut=    50.00 Ry     beta= 0.70
     CG style diagonalization
     c_bands:  1 eigenvalues not converged
     ethr =  2.84E-11,  avg # of iterations =  3.0

     negative rho (up, down):  3.754E-02 0.000E+00

     total cpu time spent up to now is     2419.9 secs

     total energy              =    -364.89844358 Ry
     estimated scf accuracy    <       0.00007739 Ry

     iteration # 21     ecut=    50.00 Ry     beta= 0.70
     CG style diagonalization
     c_bands:  1 eigenvalues not converged
     ethr =  2.84E-11,  avg # of iterations =  3.0

     negative rho (up, down):  3.754E-02 0.000E+00

     total cpu time spent up to now is     2431.9 secs

     total energy              =    -364.89844373 Ry
     estimated scf accuracy    <       0.00007732 Ry

     iteration # 22     ecut=    50.00 Ry     beta= 0.70
     CG style diagonalization
     ethr =  2.84E-11,  avg # of iterations =  3.0

     negative rho (up, down):  3.755E-02 0.000E+00

     total cpu time spent up to now is     2443.7 secs

     total energy              =    -364.89844485 Ry
     estimated scf accuracy    <       0.00007756 Ry

     iteration # 23     ecut=    50.00 Ry     beta= 0.70
     CG style diagonalization
     ethr =  2.84E-11,  avg # of iterations =  4.5

     negative rho (up, down):  3.754E-02 0.000E+00

     total cpu time spent up to now is     2461.3 secs

     total energy              =    -364.89844367 Ry
     estimated scf accuracy    <       0.00008046 Ry

     iteration # 24     ecut=    50.00 Ry     beta= 0.70
     CG style diagonalization
     c_bands:  1 eigenvalues not converged
     ethr =  2.84E-11,  avg # of iterations =  4.3

     negative rho (up, down):  3.754E-02 0.000E+00

     total cpu time spent up to now is     2478.3 secs

     total energy              =    -364.89862207 Ry
     estimated scf accuracy    <       0.00005904 Ry

     iteration # 25     ecut=    50.00 Ry     beta= 0.70
     CG style diagonalization
     c_bands:  1 eigenvalues not converged
     ethr =  2.84E-11,  avg # of iterations =  3.8

     negative rho (up, down):  3.762E-02 0.000E+00

     total cpu time spent up to now is     2493.3 secs

     total energy              =    -364.89861823 Ry
     estimated scf accuracy    <       0.00006056 Ry

     iteration # 26     ecut=    50.00 Ry     beta= 0.70
     CG style diagonalization
     c_bands:  1 eigenvalues not converged
     c_bands:  1 eigenvalues not converged
     c_bands:  1 eigenvalues not converged
     c_bands:  1 eigenvalues not converged
     c_bands:  1 eigenvalues not converged
     c_bands:  1 eigenvalues not converged
     c_bands:  1 eigenvalues not converged
     c_bands:  1 eigenvalues not converged
     c_bands:  1 eigenvalues not converged
     c_bands:  1 eigenvalues not converged
     c_bands:  1 eigenvalues not converged
     c_bands:  1 eigenvalues not converged
     c_bands:  1 eigenvalues not converged
     c_bands:  1 eigenvalues not converged
     c_bands:  1 eigenvalues not converged
     c_bands:  1 eigenvalues not converged
     c_bands:  1 eigenvalues not converged
     c_bands:  1 eigenvalues not converged
     c_bands:  1 eigenvalues not converged
     c_bands:  1 eigenvalues not converged
     c_bands:  1 eigenvalues not converged
     c_bands:  1 eigenvalues not converged
     c_bands:  1 eigenvalues not converged
     c_bands:  1 eigenvalues not converged
     c_bands:  1 eigenvalues not converged
     c_bands:  1 eigenvalues not converged
     c_bands:  1 eigenvalues not converged
     c_bands:  1 eigenvalues not converged
     ethr =  2.84E-11,  avg # of iterations = 11.4

     negative rho (up, down):  3.756E-02 0.000E+00

     total cpu time spent up to now is     2538.2 secs

     total energy              =    -364.89860997 Ry
     estimated scf accuracy    <       0.00005061 Ry

     iteration # 27     ecut=    50.00 Ry     beta= 0.70
     CG style diagonalization
     c_bands:  1 eigenvalues not converged
     c_bands:  1 eigenvalues not converged
     c_bands:  1 eigenvalues not converged
     c_bands:  1 eigenvalues not converged
     c_bands:  1 eigenvalues not converged
     c_bands:  1 eigenvalues not converged
     c_bands:  1 eigenvalues not converged
     c_bands:  1 eigenvalues not converged
     c_bands:  1 eigenvalues not converged
     c_bands:  1 eigenvalues not converged
     c_bands:  1 eigenvalues not converged
     c_bands:  1 eigenvalues not converged
     c_bands:  1 eigenvalues not converged
     c_bands:  1 eigenvalues not converged
     c_bands:  1 eigenvalues not converged
     c_bands:  1 eigenvalues not converged
     ethr =  2.84E-11,  avg # of iterations = 10.4

     negative rho (up, down):  3.754E-02 0.000E+00

     total cpu time spent up to now is     2579.4 secs

     total energy              =    -364.89860455 Ry
     estimated scf accuracy    <       0.00002309 Ry

     iteration # 28     ecut=    50.00 Ry     beta= 0.70
     CG style diagonalization
     c_bands:  1 eigenvalues not converged
     c_bands:  1 eigenvalues not converged
     c_bands:  1 eigenvalues not converged
     c_bands:  1 eigenvalues not converged
     c_bands:  1 eigenvalues not converged
     c_bands:  1 eigenvalues not converged
     ethr =  2.84E-11,  avg # of iterations =  9.4

     negative rho (up, down):  3.757E-02 0.000E+00

     total cpu time spent up to now is     2616.5 secs

     total energy              =    -364.89860246 Ry
     estimated scf accuracy    <       0.00000937 Ry

     iteration # 29     ecut=    50.00 Ry     beta= 0.70
     CG style diagonalization
     c_bands:  1 eigenvalues not converged
     c_bands:  1 eigenvalues not converged
     c_bands:  1 eigenvalues not converged
     c_bands:  1 eigenvalues not converged
     c_bands:  1 eigenvalues not converged
     c_bands:  1 eigenvalues not converged
     c_bands:  1 eigenvalues not converged
     c_bands:  1 eigenvalues not converged
     c_bands:  1 eigenvalues not converged
     c_bands:  1 eigenvalues not converged
     c_bands:  1 eigenvalues not converged
     c_bands:  1 eigenvalues not converged
     c_bands:  1 eigenvalues not converged
     c_bands:  1 eigenvalues not converged
     c_bands:  1 eigenvalues not converged
     c_bands:  1 eigenvalues not converged
     ethr =  2.84E-11,  avg # of iterations =  9.7

     negative rho (up, down):  3.755E-02 0.000E+00

     total cpu time spent up to now is     2655.1 secs

     total energy              =    -364.89860344 Ry
     estimated scf accuracy    <       0.00000425 Ry

     iteration # 30     ecut=    50.00 Ry     beta= 0.70
     CG style diagonalization
     c_bands:  1 eigenvalues not converged
     ethr =  2.84E-11,  avg # of iterations =  6.9

     negative rho (up, down):  3.755E-02 0.000E+00

     total cpu time spent up to now is     2682.4 secs

     total energy              =    -364.89860335 Ry
     estimated scf accuracy    <       0.00000406 Ry

     iteration # 31     ecut=    50.00 Ry     beta= 0.70
     CG style diagonalization
     ethr =  2.84E-11,  avg # of iterations =  4.7

     negative rho (up, down):  3.755E-02 0.000E+00

     total cpu time spent up to now is     2701.0 secs

     total energy              =    -364.89860334 Ry
     estimated scf accuracy    <       0.00000347 Ry

     iteration # 32     ecut=    50.00 Ry     beta= 0.70
     CG style diagonalization
     ethr =  2.84E-11,  avg # of iterations =  3.1

     negative rho (up, down):  3.754E-02 0.000E+00

     total cpu time spent up to now is     2713.0 secs

     total energy              =    -364.89860193 Ry
     estimated scf accuracy    <       0.00000343 Ry

     iteration # 33     ecut=    50.00 Ry     beta= 0.70
     CG style diagonalization
     c_bands:  1 eigenvalues not converged
     c_bands:  1 eigenvalues not converged
     c_bands:  1 eigenvalues not converged
     ethr =  2.84E-11,  avg # of iterations =  8.7

     negative rho (up, down):  3.754E-02 0.000E+00

     total cpu time spent up to now is     2747.6 secs

     total energy              =    -364.89860209 Ry
     estimated scf accuracy    <       0.00000041 Ry

     iteration # 34     ecut=    50.00 Ry     beta= 0.70
     CG style diagonalization
     c_bands:  1 eigenvalues not converged
     c_bands:  1 eigenvalues not converged
     c_bands:  1 eigenvalues not converged
     ethr =  2.84E-11,  avg # of iterations =  6.7

     negative rho (up, down):  3.754E-02 0.000E+00

     total cpu time spent up to now is     2774.3 secs

     total energy              =    -364.89860216 Ry
     estimated scf accuracy    <       0.00000005 Ry

     iteration # 35     ecut=    50.00 Ry     beta= 0.70
     CG style diagonalization
     ethr =  2.84E-11,  avg # of iterations =  4.5

     negative rho (up, down):  3.754E-02 0.000E+00

     total cpu time spent up to now is     2791.9 secs

     End of self-consistent calculation

     Number of k-points >= 100: set verbosity='high' to print the bands.

     highest occupied level (ev):    64.6037

!    total energy              =    -364.89860217 Ry
     estimated scf accuracy    <          8.8E-10 Ry

     The total energy is the sum of the following terms:
     one-electron contribution =     148.12504779 Ry
     hartree contribution      =      31.62375871 Ry
     xc contribution           =    -114.97242246 Ry
     ewald contribution        =    -429.67498622 Ry

     convergence has been achieved in  35 iterations

     negative rho (up, down):  3.754E-02 0.000E+00

     Forces acting on atoms (cartesian axes, Ry/au):

     atom    1 type  1   force =    -0.71121445    0.71121445    0.02600005
     atom    2 type  2   force =     1.22151787   -1.22151787    0.16687835
     atom    3 type  3   force =    -0.95346106    0.95346106   -0.53007318
     atom    4 type  3   force =     0.66059296    0.21743532    0.16859739
     atom    5 type  3   force =    -0.21743532   -0.66059296    0.16859739

     Total force =     2.673521     Total SCF correction =     0.000079


     Computing stress (Cartesian axis) and pressure


     negative rho (up, down):  3.754E-02 0.000E+00
          total   stress  (Ry/bohr**3)                   (kbar)     P=    46912.80
   0.32544555   0.00522774  -0.00417269        47874.69      769.03     -613.82
   0.00522774   0.32544555   0.00417269          769.03    47874.69      613.82
  -0.00417269   0.00417269   0.30582911         -613.82      613.82    44989.02

     Energy error            =      2.0E-01 Ry
     Gradient error          =      1.2E+00 Ry/Bohr

     number of scf cycles    =   6
     number of bfgs steps    =   3

     energy             old  =    -364.7010439246 Ry
     energy             new  =    -364.8986021723 Ry

     CASE: energy            _new < energy            _old

     new trust radius        =       0.3756047439 bohr
     new conv_thr            =       0.0000000100 Ry


ATOMIC_POSITIONS (crystal)
Pb           -0.0998635884       -0.0998635884        0.9862329172
Ti            0.5793534130        0.5793534130        0.5106253671
O             0.4735007867        0.4735007867        0.1392854535
O             0.4967603379        0.0502490508        0.6155702751
O             0.0502490508        0.4967603379        0.6155702751



     Writing config-only to output data dir ./PTO.save/
     NEW-OLD atomic charge density approx. for the potential

     negative rho (up, down):  3.541E-02 0.000E+00

     total cpu time spent up to now is     2798.8 secs

     Self-consistent Calculation

     iteration #  1     ecut=    50.00 Ry     beta= 0.70
     CG style diagonalization
     c_bands:  1 eigenvalues not converged
     c_bands:  1 eigenvalues not converged
     c_bands:  1 eigenvalues not converged
     c_bands:  1 eigenvalues not converged
     c_bands:  1 eigenvalues not converged
     c_bands:  1 eigenvalues not converged
     c_bands:  1 eigenvalues not converged
     c_bands:  1 eigenvalues not converged
     c_bands:  1 eigenvalues not converged
     c_bands:  1 eigenvalues not converged
     c_bands:  1 eigenvalues not converged
     ethr =  1.00E-06,  avg # of iterations = 27.5

     negative rho (up, down):  3.234E-02 0.000E+00

     total cpu time spent up to now is     2905.4 secs

     total energy              =    -364.16277486 Ry
     estimated scf accuracy    <       0.59351178 Ry

     iteration #  2     ecut=    50.00 Ry     beta= 0.70
     CG style diagonalization
     ethr =  1.35E-03,  avg # of iterations =  4.5

     negative rho (up, down):  3.166E-02 0.000E+00

     total cpu time spent up to now is     2923.0 secs

     total energy              =    -364.23859101 Ry
     estimated scf accuracy    <       0.49729627 Ry

     iteration #  3     ecut=    50.00 Ry     beta= 0.70
     CG style diagonalization
     ethr =  1.13E-03,  avg # of iterations =  4.1

     negative rho (up, down):  3.186E-02 0.000E+00

     total cpu time spent up to now is     2939.2 secs

     total energy              =    -364.37792750 Ry
     estimated scf accuracy    <       0.05588118 Ry

     iteration #  4     ecut=    50.00 Ry     beta= 0.70
     CG style diagonalization
     ethr =  1.27E-04,  avg # of iterations =  4.0

     negative rho (up, down):  3.229E-02 0.000E+00

     total cpu time spent up to now is     2954.9 secs

     total energy              =    -364.39651221 Ry
     estimated scf accuracy    <       0.00100646 Ry

     iteration #  5     ecut=    50.00 Ry     beta= 0.70
     CG style diagonalization
     c_bands:  1 eigenvalues not converged
     c_bands:  1 eigenvalues not converged
     c_bands:  1 eigenvalues not converged
     c_bands:  1 eigenvalues not converged
     c_bands:  1 eigenvalues not converged
     ethr =  2.29E-06,  avg # of iterations =  7.4

     negative rho (up, down):  3.268E-02 0.000E+00

     total cpu time spent up to now is     2984.2 secs

     total energy              =    -364.40208663 Ry
     estimated scf accuracy    <       0.00054789 Ry

     iteration #  6     ecut=    50.00 Ry     beta= 0.70
     CG style diagonalization
     c_bands:  1 eigenvalues not converged
     ethr =  1.25E-06,  avg # of iterations =  3.8

     negative rho (up, down):  3.357E-02 0.000E+00

     total cpu time spent up to now is     2999.5 secs

     total energy              =    -364.40328038 Ry
     estimated scf accuracy    <       0.00009314 Ry

     iteration #  7     ecut=    50.00 Ry     beta= 0.70
     CG style diagonalization
     ethr =  2.12E-07,  avg # of iterations =  5.0

     negative rho (up, down):  3.361E-02 0.000E+00

     total cpu time spent up to now is     3019.1 secs

     total energy              =    -364.40332889 Ry
     estimated scf accuracy    <       0.00001153 Ry

     iteration #  8     ecut=    50.00 Ry     beta= 0.70
     CG style diagonalization
     ethr =  2.62E-08,  avg # of iterations =  6.7

     negative rho (up, down):  3.362E-02 0.000E+00

     total cpu time spent up to now is     3045.5 secs

     total energy              =    -364.40334656 Ry
     estimated scf accuracy    <       0.00000529 Ry

     iteration #  9     ecut=    50.00 Ry     beta= 0.70
     CG style diagonalization
     c_bands:  1 eigenvalues not converged
     ethr =  1.20E-08,  avg # of iterations =  4.6

     negative rho (up, down):  3.362E-02 0.000E+00

     total cpu time spent up to now is     3063.6 secs

     total energy              =    -364.40716450 Ry
     estimated scf accuracy    <       0.00007482 Ry

     iteration # 10     ecut=    50.00 Ry     beta= 0.70
     CG style diagonalization
     ethr =  1.20E-08,  avg # of iterations =  3.1

     negative rho (up, down):  3.361E-02 0.000E+00

     total cpu time spent up to now is     3075.8 secs

     total energy              =    -364.40717493 Ry
     estimated scf accuracy    <       0.00007057 Ry

     iteration # 11     ecut=    50.00 Ry     beta= 0.70
     CG style diagonalization
     ethr =  1.20E-08,  avg # of iterations =  3.0

     negative rho (up, down):  3.358E-02 0.000E+00

     total cpu time spent up to now is     3087.6 secs

     total energy              =    -364.40715230 Ry
     estimated scf accuracy    <       0.00007638 Ry

     iteration # 12     ecut=    50.00 Ry     beta= 0.70
     CG style diagonalization
     ethr =  1.20E-08,  avg # of iterations =  4.7

     negative rho (up, down):  3.364E-02 0.000E+00

     total cpu time spent up to now is     3107.0 secs

     total energy              =    -364.40715383 Ry
     estimated scf accuracy    <       0.00001578 Ry

     iteration # 13     ecut=    50.00 Ry     beta= 0.70
     CG style diagonalization
     ethr =  1.20E-08,  avg # of iterations =  3.1

     negative rho (up, down):  3.369E-02 0.000E+00

     total cpu time spent up to now is     3119.1 secs

     total energy              =    -364.40715157 Ry
     estimated scf accuracy    <       0.00000981 Ry

     iteration # 14     ecut=    50.00 Ry     beta= 0.70
     CG style diagonalization
     ethr =  1.20E-08,  avg # of iterations =  3.3

     negative rho (up, down):  3.369E-02 0.000E+00

     total cpu time spent up to now is     3131.9 secs

     total energy              =    -364.40715130 Ry
     estimated scf accuracy    <       0.00000288 Ry

     iteration # 15     ecut=    50.00 Ry     beta= 0.70
     CG style diagonalization
     ethr =  6.54E-09,  avg # of iterations =  3.2

     negative rho (up, down):  3.369E-02 0.000E+00

     total cpu time spent up to now is     3144.5 secs

     total energy              =    -364.40715115 Ry
     estimated scf accuracy    <       0.00000088 Ry

     iteration # 16     ecut=    50.00 Ry     beta= 0.70
     CG style diagonalization
     ethr =  2.00E-09,  avg # of iterations =  4.2

     negative rho (up, down):  3.369E-02 0.000E+00

     total cpu time spent up to now is     3161.1 secs

     total energy              =    -364.40715144 Ry
     estimated scf accuracy    <       0.00000014 Ry

     iteration # 17     ecut=    50.00 Ry     beta= 0.70
     CG style diagonalization
     ethr =  3.21E-10,  avg # of iterations =  5.2

     negative rho (up, down):  3.369E-02 0.000E+00

     total cpu time spent up to now is     3181.4 secs

     total energy              =    -364.40715151 Ry
     estimated scf accuracy    <       0.00000009 Ry

     iteration # 18     ecut=    50.00 Ry     beta= 0.70
     CG style diagonalization
     ethr =  2.00E-10,  avg # of iterations =  4.4

     negative rho (up, down):  3.369E-02 0.000E+00

     total cpu time spent up to now is     3198.7 secs

     total energy              =    -364.40715153 Ry
     estimated scf accuracy    <       0.00000005 Ry

     iteration # 19     ecut=    50.00 Ry     beta= 0.70
     CG style diagonalization
     ethr =  1.14E-10,  avg # of iterations =  3.8

     negative rho (up, down):  3.369E-02 0.000E+00

     total cpu time spent up to now is     3213.6 secs

     End of self-consistent calculation

     Number of k-points >= 100: set verbosity='high' to print the bands.

     highest occupied level (ev):    66.6229

!    total energy              =    -364.40715153 Ry
[...]
     c_bands:  1 eigenvalues not converged
     c_bands:  1 eigenvalues not converged
     c_bands:  1 eigenvalues not converged
     c_bands:  1 eigenvalues not converged
     c_bands:  1 eigenvalues not converged
     c_bands:  1 eigenvalues not converged
     c_bands:  1 eigenvalues not converged
     c_bands:  2 eigenvalues not converged
     c_bands:  1 eigenvalues not converged
     c_bands:  2 eigenvalues not converged
     c_bands:  1 eigenvalues not converged
     c_bands:  1 eigenvalues not converged
     c_bands:  1 eigenvalues not converged
     c_bands:  1 eigenvalues not converged
     c_bands:  1 eigenvalues not converged
     c_bands:  1 eigenvalues not converged
     c_bands:  1 eigenvalues not converged
     c_bands:  1 eigenvalues not converged
     c_bands:  1 eigenvalues not converged
     c_bands:  1 eigenvalues not converged
     c_bands:  2 eigenvalues not converged
     c_bands:  2 eigenvalues not converged
     c_bands:  1 eigenvalues not converged
     c_bands:  1 eigenvalues not converged
     c_bands:  1 eigenvalues not converged
     c_bands:  2 eigenvalues not converged
     c_bands:  1 eigenvalues not converged
     c_bands:  1 eigenvalues not converged
     c_bands:  1 eigenvalues not converged
     c_bands:  1 eigenvalues not converged
     ethr =  3.63E-12,  avg # of iterations = 14.4

     negative rho (up, down):  3.733E-02 0.000E+00

     total cpu time spent up to now is    12043.9 secs

     total energy              =    -367.38050730 Ry
     estimated scf accuracy    <       0.00000135 Ry

     iteration # 17     ecut=    50.00 Ry     beta= 0.70
     CG style diagonalization
     c_bands:  1 eigenvalues not converged
     c_bands:  1 eigenvalues not converged
     c_bands:  1 eigenvalues not converged
     c_bands:  1 eigenvalues not converged
     c_bands:  1 eigenvalues not converged
     c_bands:  1 eigenvalues not converged
     c_bands:  1 eigenvalues not converged
     c_bands:  1 eigenvalues not converged
     c_bands:  1 eigenvalues not converged
     c_bands:  1 eigenvalues not converged
     c_bands:  1 eigenvalues not converged
     c_bands:  1 eigenvalues not converged
     c_bands:  1 eigenvalues not converged
     c_bands:  1 eigenvalues not converged
     c_bands:  1 eigenvalues not converged
     c_bands:  1 eigenvalues not converged
     c_bands:  1 eigenvalues not converged
     c_bands:  1 eigenvalues not converged
     c_bands:  1 eigenvalues not converged
     c_bands:  1 eigenvalues not converged
     ethr =  3.63E-12,  avg # of iterations = 10.1

     negative rho (up, down):  3.733E-02 0.000E+00

     total cpu time spent up to now is    12084.2 secs

     total energy              =    -367.38050743 Ry
     estimated scf accuracy    <          4.5E-09 Ry

     iteration # 18     ecut=    50.00 Ry     beta= 0.70
     CG style diagonalization
     c_bands:  1 eigenvalues not converged
     ethr =  3.63E-12,  avg # of iterations =  4.3

     negative rho (up, down):  3.733E-02 0.000E+00

     total cpu time spent up to now is    12100.7 secs

     total energy              =    -367.38050743 Ry
     estimated scf accuracy    <          4.7E-10 Ry

     iteration # 19     ecut=    50.00 Ry     beta= 0.70
     CG style diagonalization
     c_bands:  1 eigenvalues not converged
     ethr =  1.07E-12,  avg # of iterations =  4.4

     negative rho (up, down):  3.733E-02 0.000E+00

     total cpu time spent up to now is    12117.8 secs

     End of self-consistent calculation

     Number of k-points >= 100: set verbosity='high' to print the bands.

     highest occupied level (ev):    69.4383

!    total energy              =    -367.38050743 Ry
     estimated scf accuracy    <          1.1E-10 Ry

     The total energy is the sum of the following terms:
     one-electron contribution =     175.24591575 Ry
     hartree contribution      =      18.90155671 Ry
     xc contribution           =    -114.30207551 Ry
     ewald contribution        =    -447.22590438 Ry

     convergence has been achieved in  19 iterations

     negative rho (up, down):  3.733E-02 0.000E+00

     Forces acting on atoms (cartesian axes, Ry/au):

     atom    1 type  1   force =    -0.00071192    0.00071192    0.00149087
     atom    2 type  2   force =     0.00336989   -0.00336989    0.00829946
     atom    3 type  3   force =    -0.00077581    0.00077581   -0.00569066
     atom    4 type  3   force =    -0.00117851    0.00070365   -0.00204983
     atom    5 type  3   force =    -0.00070365    0.00117851   -0.00204983

     Total force =     0.011857     Total SCF correction =     0.000030


     Computing stress (Cartesian axis) and pressure


     negative rho (up, down):  3.733E-02 0.000E+00
          total   stress  (Ry/bohr**3)                   (kbar)     P=    41510.04
   0.27110766   0.02981392   0.00000050        39881.31     4385.78        0.07
   0.02981392   0.27110766  -0.00000050         4385.78    39881.31       -0.07
   0.00000050  -0.00000050   0.30432321            0.07       -0.07    44767.49

     Energy error            =      2.5E-04 Ry
     Gradient error          =      8.3E-03 Ry/Bohr

     number of scf cycles    =  16
     number of bfgs steps    =   9

     energy             old  =    -367.3802564007 Ry
     energy             new  =    -367.3805074304 Ry

     CASE: energy            _new < energy            _old

     new trust radius        =       0.0039565464 bohr
     new conv_thr            =       0.0000000003 Ry


ATOMIC_POSITIONS (crystal)
Pb            0.0046222316        0.0046222316        0.9686999838
Ti            0.5786537362        0.5786537362        0.3948630314
O             0.2931763788        0.2931763788        0.1805082178
O             0.6213108363        0.0022368171        0.6616065275
O             0.0022368171        0.6213108363        0.6616065275



     Writing config-only to output data dir ./PTO.save/
     NEW-OLD atomic charge density approx. for the potential

     negative rho (up, down):  3.734E-02 0.000E+00

     total cpu time spent up to now is    12124.7 secs

     Self-consistent Calculation

     iteration #  1     ecut=    50.00 Ry     beta= 0.70
     CG style diagonalization
     c_bands:  1 eigenvalues not converged
     ethr =  1.00E-06,  avg # of iterations =  5.3

     Threshold (ethr) on eigenvalues was too large:
     Diagonalizing with lowered threshold

     CG style diagonalization
     c_bands:  1 eigenvalues not converged
     c_bands:  1 eigenvalues not converged
     c_bands:  1 eigenvalues not converged
     c_bands:  1 eigenvalues not converged
     c_bands:  2 eigenvalues not converged
     c_bands:  1 eigenvalues not converged
     c_bands:  2 eigenvalues not converged
     c_bands:  1 eigenvalues not converged
     c_bands:  1 eigenvalues not converged
     c_bands:  1 eigenvalues not converged
     ethr =  7.37E-08,  avg # of iterations =  6.5

     negative rho (up, down):  3.734E-02 0.000E+00

     total cpu time spent up to now is    12174.6 secs

     total energy              =    -367.38049905 Ry
     estimated scf accuracy    <       0.00003557 Ry

     iteration #  2     ecut=    50.00 Ry     beta= 0.70
     CG style diagonalization
     ethr =  8.08E-08,  avg # of iterations =  4.0

     negative rho (up, down):  3.734E-02 0.000E+00

     total cpu time spent up to now is    12189.9 secs

     total energy              =    -367.38050750 Ry
     estimated scf accuracy    <       0.00000206 Ry

     iteration #  3     ecut=    50.00 Ry     beta= 0.70
     CG style diagonalization
     c_bands:  1 eigenvalues not converged
     ethr =  4.68E-09,  avg # of iterations =  4.3

     negative rho (up, down):  3.734E-02 0.000E+00

     total cpu time spent up to now is    12206.7 secs

     total energy              =    -367.38050914 Ry
     estimated scf accuracy    <       0.00000017 Ry

     iteration #  4     ecut=    50.00 Ry     beta= 0.70
     CG style diagonalization
     c_bands:  1 eigenvalues not converged
     ethr =  3.79E-10,  avg # of iterations =  5.6

     negative rho (up, down):  3.734E-02 0.000E+00

     total cpu time spent up to now is    12228.4 secs

     total energy              =    -367.38050929 Ry
     estimated scf accuracy    <       0.00000007 Ry

     iteration #  5     ecut=    50.00 Ry     beta= 0.70
     CG style diagonalization
     ethr =  1.60E-10,  avg # of iterations =  4.3

     negative rho (up, down):  3.734E-02 0.000E+00

     total cpu time spent up to now is    12245.1 secs

     total energy              =    -367.38050931 Ry
     estimated scf accuracy    <       0.00000001 Ry

     iteration #  6     ecut=    50.00 Ry     beta= 0.70
     CG style diagonalization
     ethr =  2.40E-11,  avg # of iterations =  5.1

     negative rho (up, down):  3.734E-02 0.000E+00

     total cpu time spent up to now is    12265.0 secs

     total energy              =    -367.38050932 Ry
     estimated scf accuracy    <          1.0E-09 Ry

     iteration #  7     ecut=    50.00 Ry     beta= 0.70
     CG style diagonalization
     c_bands:  1 eigenvalues not converged
     ethr =  2.33E-12,  avg # of iterations =  6.9

     negative rho (up, down):  3.734E-02 0.000E+00

     total cpu time spent up to now is    12291.8 secs

     End of self-consistent calculation

     Number of k-points >= 100: set verbosity='high' to print the bands.

     highest occupied level (ev):    69.4198

!    total energy              =    -367.38050932 Ry
     estimated scf accuracy    <          2.7E-11 Ry

     The total energy is the sum of the following terms:
     one-electron contribution =     175.25155312 Ry
     hartree contribution      =      18.89952672 Ry
     xc contribution           =    -114.30167354 Ry
     ewald contribution        =    -447.22991562 Ry

     convergence has been achieved in   7 iterations

     negative rho (up, down):  3.734E-02 0.000E+00

     Forces acting on atoms (cartesian axes, Ry/au):

     atom    1 type  1   force =    -0.00138601    0.00138601   -0.00529583
     atom    2 type  2   force =    -0.00037559    0.00037559   -0.00686632
     atom    3 type  3   force =     0.00384745   -0.00384745    0.00569761
     atom    4 type  3   force =     0.00246874    0.00455459    0.00323227
     atom    5 type  3   force =    -0.00455459   -0.00246874    0.00323227

     Total force =     0.014696     Total SCF correction =     0.000016


     Computing stress (Cartesian axis) and pressure


     negative rho (up, down):  3.734E-02 0.000E+00
          total   stress  (Ry/bohr**3)                   (kbar)     P=    41510.69
   0.27109379   0.02973517   0.00001899        39879.27     4374.20        2.79
   0.02973517   0.27109379  -0.00001899         4374.20    39879.27       -2.79
   0.00001899  -0.00001899   0.30436428            2.79       -2.79    44773.53

     Energy error            =      1.9E-06 Ry
     Gradient error          =      6.9E-03 Ry/Bohr

     number of scf cycles    =  17
     number of bfgs steps    =  10

     energy             old  =    -367.3805074304 Ry
     energy             new  =    -367.3805093178 Ry

     CASE: energy            _new < energy            _old

     new trust radius        =       0.0018745977 bohr
     new conv_thr            =            1.0E-10 Ry


ATOMIC_POSITIONS (crystal)
Pb            0.0045219361        0.0045219361        0.9688681906
Ti            0.5785551020        0.5785551020        0.3950433037
O             0.2933861088        0.2933861088        0.1800884642
O             0.6211932650        0.0023435882        0.6616421647
O             0.0023435882        0.6211932650        0.6616421647



     Writing config-only to output data dir ./PTO.save/
     NEW-OLD atomic charge density approx. for the potential

     negative rho (up, down):  3.733E-02 0.000E+00

     total cpu time spent up to now is    12298.5 secs

     Self-consistent Calculation

     iteration #  1     ecut=    50.00 Ry     beta= 0.70
     CG style diagonalization
     ethr =  1.00E-06,  avg # of iterations =  3.0

     Threshold (ethr) on eigenvalues was too large:
     Diagonalizing with lowered threshold

     CG style diagonalization
     c_bands:  2 eigenvalues not converged
     c_bands:  1 eigenvalues not converged
     c_bands:  1 eigenvalues not converged
     c_bands:  1 eigenvalues not converged
     c_bands:  1 eigenvalues not converged
     c_bands:  1 eigenvalues not converged
     c_bands:  1 eigenvalues not converged
     c_bands:  1 eigenvalues not converged
     c_bands:  1 eigenvalues not converged
     c_bands:  1 eigenvalues not converged
     ethr =  2.46E-08,  avg # of iterations =  7.6

     negative rho (up, down):  3.733E-02 0.000E+00

     total cpu time spent up to now is    12344.0 secs

     total energy              =    -367.38052345 Ry
     estimated scf accuracy    <       0.00000502 Ry

     iteration #  2     ecut=    50.00 Ry     beta= 0.70
     CG style diagonalization
     ethr =  1.14E-08,  avg # of iterations =  4.0

     negative rho (up, down):  3.733E-02 0.000E+00

     total cpu time spent up to now is    12360.5 secs

     total energy              =    -367.38052485 Ry
     estimated scf accuracy    <       0.00000028 Ry

     iteration #  3     ecut=    50.00 Ry     beta= 0.70
     CG style diagonalization
     c_bands:  1 eigenvalues not converged
     ethr =  6.42E-10,  avg # of iterations =  4.7

     negative rho (up, down):  3.733E-02 0.000E+00

     total cpu time spent up to now is    12379.0 secs

     total energy              =    -367.38052510 Ry
     estimated scf accuracy    <       0.00000002 Ry

     iteration #  4     ecut=    50.00 Ry     beta= 0.70
     CG style diagonalization
     c_bands:  1 eigenvalues not converged
     ethr =  5.45E-11,  avg # of iterations =  5.5

     negative rho (up, down):  3.733E-02 0.000E+00

     total cpu time spent up to now is    12400.3 secs

     total energy              =    -367.38052513 Ry
     estimated scf accuracy    <          3.7E-09 Ry

     iteration #  5     ecut=    50.00 Ry     beta= 0.70
     CG style diagonalization
     c_bands:  1 eigenvalues not converged
     ethr =  8.47E-12,  avg # of iterations =  5.4

     negative rho (up, down):  3.733E-02 0.000E+00

     total cpu time spent up to now is    12421.4 secs

     total energy              =    -367.38052513 Ry
     estimated scf accuracy    <          9.5E-10 Ry

     iteration #  6     ecut=    50.00 Ry     beta= 0.70
     CG style diagonalization
     c_bands:  1 eigenvalues not converged
     ethr =  2.16E-12,  avg # of iterations =  5.0

     negative rho (up, down):  3.733E-02 0.000E+00

     total cpu time spent up to now is    12440.9 secs

     total energy              =    -367.38052518 Ry
     estimated scf accuracy    <          1.3E-10 Ry

     iteration #  7     ecut=    50.00 Ry     beta= 0.70
     CG style diagonalization
     c_bands:  1 eigenvalues not converged
     ethr =  2.93E-13,  avg # of iterations =  6.4

     negative rho (up, down):  3.733E-02 0.000E+00

     total cpu time spent up to now is    12466.6 secs

     End of self-consistent calculation

     Number of k-points >= 100: set verbosity='high' to print the bands.

     highest occupied level (ev):    69.4250

!    total energy              =    -367.38052518 Ry
     estimated scf accuracy    <          2.1E-11 Ry

     The total energy is the sum of the following terms:
     one-electron contribution =     175.25092154 Ry
     hartree contribution      =      18.90001014 Ry
     xc contribution           =    -114.30162005 Ry
     ewald contribution        =    -447.22983682 Ry

     convergence has been achieved in   7 iterations

     negative rho (up, down):  3.733E-02 0.000E+00

     Forces acting on atoms (cartesian axes, Ry/au):

     atom    1 type  1   force =    -0.00059091    0.00059091   -0.00039902
     atom    2 type  2   force =     0.00057749   -0.00057749   -0.00038682
     atom    3 type  3   force =     0.00045218   -0.00045218    0.00041937
     atom    4 type  3   force =    -0.00035919    0.00007957    0.00018323
     atom    5 type  3   force =    -0.00007957    0.00035919    0.00018323

     Total force =     0.001611     Total SCF correction =     0.000007


     Computing stress (Cartesian axis) and pressure


     negative rho (up, down):  3.733E-02 0.000E+00
          total   stress  (Ry/bohr**3)                   (kbar)     P=    41509.76
   0.27107433   0.02974998   0.00000064        39876.41     4376.37        0.09
   0.02974998   0.27107433  -0.00000064         4376.37    39876.41       -0.09
   0.00000064  -0.00000064   0.30438419            0.09       -0.09    44776.46

     Energy error            =      1.6E-05 Ry
     Gradient error          =      5.9E-04 Ry/Bohr

     bfgs converged in  18 scf cycles and  11 bfgs steps
     (criteria: energy <  1.0E-04 Ry, force <  1.0E-03 Ry/Bohr)

     End of BFGS Geometry Optimization

     Final energy             =    -367.3805251758 Ry

     File ./PTO.bfgs deleted, as requested
Begin final coordinates

ATOMIC_POSITIONS (crystal)
Pb            0.0045219361        0.0045219361        0.9688681906
Ti            0.5785551020        0.5785551020        0.3950433037
O             0.2933861088        0.2933861088        0.1800884642
O             0.6211932650        0.0023435882        0.6616421647
O             0.0023435882        0.6211932650        0.6616421647
End final coordinates



     Writing all to output data dir ./PTO.save/
 
     init_run     :      7.09s CPU      7.27s WALL (       1 calls)
     electrons    :  11177.13s CPU  12238.71s WALL (      33 calls)
     update_pot   :      4.84s CPU      5.02s WALL (      32 calls)
     forces       :     32.93s CPU     35.19s WALL (      33 calls)
     stress       :    169.21s CPU    171.22s WALL (      33 calls)

     Called by init_run:
     wfcinit      :      3.49s CPU      3.61s WALL (       1 calls)
     potinit      :      0.04s CPU      0.05s WALL (       1 calls)
     hinit0       :      3.32s CPU      3.34s WALL (       1 calls)

     Called by electrons:
     c_bands      :  10445.50s CPU  11469.47s WALL (     513 calls)
     sum_band     :    623.62s CPU    645.63s WALL (     513 calls)
     v_of_rho     :      8.02s CPU      8.28s WALL (     543 calls)
     newd         :    102.48s CPU    115.61s WALL (     543 calls)
     mix_rho      :      2.29s CPU      2.54s WALL (     513 calls)

     Called by c_bands:
     init_us_2    :    140.32s CPU    153.87s WALL (  133346 calls)
     init_us_2:cp :    136.59s CPU    151.41s WALL (  133346 calls)
     ccgdiagg     :   9380.70s CPU  10294.62s WALL (   65670 calls)
     wfcrot       :    977.87s CPU   1012.35s WALL (   61400 calls)

     Called by *cgdiagg:
     h_psi        :   7085.92s CPU   7707.30s WALL ( 6988970 calls)
     s_psi        :   1289.56s CPU   1443.42s WALL (13916540 calls)

     Called by h_psi:
     h_psi:calbec :    944.66s CPU   1017.15s WALL ( 6988970 calls)
     vloc_psi     :   5009.82s CPU   5465.84s WALL ( 6988970 calls)
     add_vuspsi   :    761.33s CPU    839.05s WALL ( 6988970 calls)
     hs_1psi      :   7277.31s CPU   7949.00s WALL ( 6927570 calls)
     s_1psi       :   1491.21s CPU   1636.33s WALL ( 6927570 calls)

     General routines
     calbec       :   1429.64s CPU   1602.84s WALL (13999256 calls)
     fft          :      4.37s CPU      4.52s WALL (    3491 calls)
     ffts         :      0.32s CPU      0.34s WALL (    1056 calls)
     fftw         :   4569.53s CPU   4972.28s WALL (17935828 calls)
     interpolate  :      1.03s CPU      1.08s WALL (     543 calls)
 
     Parallel routines
 
     PWSCF        :      3h10m CPU      3h27m WALL

 
   This run was terminated on:  20: 2:54   6Apr2022            

=------------------------------------------------------------------------------=
   JOB DONE.
=------------------------------------------------------------------------------=
