
     Program PHONON v.7.0 starts on  9Apr2022 at 13:21:43 

     This program is part of the open-source Quantum ESPRESSO suite
     for quantum simulation of materials; please cite
         "P. Giannozzi et al., J. Phys.:Condens. Matter 21 395502 (2009);
         "P. Giannozzi et al., J. Phys.:Condens. Matter 29 465901 (2017);
         "P. Giannozzi et al., J. Chem. Phys. 152 154105 (2020);
          URL http://www.quantum-espresso.org", 
     in publications or presentations arising from this work. More details at
     http://www.quantum-espresso.org/quote

     Parallel version (MPI), running on     1 processors

     MPI processes distributed on     1 nodes
     91014 MiB available memory on the printing compute node when the environment starts
 
     Waiting for input...
     Reading input from standard input

     Reading xml data from directory:

     ./Si.save/

     IMPORTANT: XC functional enforced from input :
     Exchange-correlation= PZ
                           (   1   1   0   0   0   0   0)
     Any further DFT definition will be discarded
     Please, verify this is what you really want

 
     G-vector sticks info
     --------------------
     sticks:   dense  smooth     PW     G-vecs:    dense   smooth      PW
     Sum        1843     745    223                52345    13323    2133
 
     Using Slab Decomposition
 
     Reading collected, re-writing distributed wavefunctions


     Dynamical matrices for ( 4, 4, 4)  uniform grid of q-points
     (   8 q-points):
       N         xq(1)         xq(2)         xq(3) 
       1   0.000000000   0.000000000   0.000000000
       2  -0.250000000   0.250000000  -0.250000000
       3   0.500000000  -0.500000000   0.500000000
       4   0.000000000   0.500000000   0.000000000
       5   0.750000000  -0.250000000   0.750000000
       6   0.500000000   0.000000000   0.500000000
       7   0.000000000  -1.000000000   0.000000000
       8  -0.500000000  -1.000000000   0.000000000

     Calculation of q =    0.0000000   0.0000000   0.0000000

     Phonons of Si                                                              

     bravais-lattice index     =            2
     lattice parameter (alat)  =      10.3614  a.u.
     unit-cell volume          =     278.0964 (a.u.)^3
     number of atoms/cell      =            2
     number of atomic types    =            1
     kinetic-energy cut-off    =      50.0000  Ry
     charge density cut-off    =     500.0000  Ry
     convergence threshold     =      1.0E-16
     beta                      =       0.7000
     number of iterations used =            4
     Exchange-correlation= PZ
                           (   1   1   0   0   0   0   0)


     celldm(1)=   10.36140  celldm(2)=    0.00000  celldm(3)=    0.00000
     celldm(4)=    0.00000  celldm(5)=    0.00000  celldm(6)=    0.00000

     crystal axes: (cart. coord. in units of alat)
               a(1) = ( -0.5000  0.0000  0.5000 )  
               a(2) = (  0.0000  0.5000  0.5000 )  
               a(3) = ( -0.5000  0.5000  0.0000 )  

     reciprocal axes: (cart. coord. in units 2 pi/alat)
               b(1) = ( -1.0000 -1.0000  1.0000 )  
               b(2) = (  1.0000  1.0000  1.0000 )  
               b(3) = ( -1.0000  1.0000 -1.0000 )  


     Atoms inside the unit cell: 

     Cartesian axes

     site n.  atom      mass           positions (alat units)
        1     Si  28.0855   tau(    1) = (    0.00000    0.00000    0.00000  )
        2     Si  28.0855   tau(    2) = (   -0.25000    0.25000    0.25000  )

     Computing dynamical matrix for 
                    q = (   0.0000000   0.0000000   0.0000000 )
 
     49 Sym.Ops. (with q -> -q+G )


     G cutoff = 1359.7127  (  52345 G-vectors)     FFT grid: ( 60, 60, 60)
     G cutoff =  543.8851  (  13323 G-vectors)  smooth grid: ( 36, 36, 36)
     number of k points=     8

     PseudoPot. # 1 for Si read from file:
     ./Si_LDA.UPF
     MD5 check sum: b5ade7b37ee992b02096e360e546dc2d
     Pseudo is Ultrasoft + core correction, Zval =  4.0
     Generated by new atomic code, or converted to UPF format
     Using radial grid of  899 points,  6 beta functions with: 
                l(1) =   0
                l(2) =   0
                l(3) =   1
                l(4) =   1
                l(5) =   2
                l(6) =   2
     Q(r) pseudized with  8 coefficients,  rinner =    0.900   0.900   0.900
                                                       0.900   0.900

     Mode symmetry, O_h (m-3m)  point group:


     Electric field:
     Dielectric constant
     Born effective charges in two ways 


     Atomic displacements:
     There are    2 irreducible representations

     Representation     1      3 modes -  To be done

     Representation     2      3 modes -  To be done



     Alpha used in Ewald sum =   2.8000
     PHONON       :     14.21s CPU     16.95s WALL


     Electric Fields Calculation

      iter #   1 total cpu time :    30.1 secs   av.it.:   6.1
      thresh= 1.000E-02 alpha_mix =  0.700 |ddv_scf|^2 =  3.404E-08

      iter #   2 total cpu time :    38.8 secs   av.it.:  11.5
      thresh= 1.845E-05 alpha_mix =  0.700 |ddv_scf|^2 =  1.580E-09

      iter #   3 total cpu time :    47.5 secs   av.it.:  11.5
      thresh= 3.975E-06 alpha_mix =  0.700 |ddv_scf|^2 =  4.352E-11

      iter #   4 total cpu time :    56.4 secs   av.it.:  11.9
      thresh= 6.597E-07 alpha_mix =  0.700 |ddv_scf|^2 =  2.681E-13

      iter #   5 total cpu time :    65.0 secs   av.it.:  11.1
      thresh= 5.178E-08 alpha_mix =  0.700 |ddv_scf|^2 =  2.991E-17

     End of electric fields calculation

          Dielectric constant in cartesian axis 

          (      25.900553927      -0.000000000      -0.000000000 )
          (      -0.000000000      25.900553927       0.000000000 )
          (      -0.000000000      -0.000000000      25.900553927 )

          Effective charges (d Force / dE) in cartesian axis without acoustic sum rule applied (asr)

           atom      1   Si Mean Z*:       -1.23554
      Ex  (       -1.23554       -0.00000       -0.00000 )
      Ey  (       -0.00000       -1.23554        0.00000 )
      Ez  (       -0.00000        0.00000       -1.23554 )
           atom      2   Si Mean Z*:       -1.23554
      Ex  (       -1.23554       -0.00000       -0.00000 )
      Ey  (       -0.00000       -1.23554        0.00000 )
      Ez  (       -0.00000        0.00000       -1.23554 )

          Effective charges Sum: Mean:       -2.47108
             -2.47108       -0.00000       -0.00000
             -0.00000       -2.47108        0.00000
             -0.00000        0.00000       -2.47108

          Effective charges (d Force / dE) in cartesian axis with asr applied: 
           atom      1   Si Mean Z*:       -0.00000
      E*x (        0.00000       -0.00000       -0.00000 )
      E*y (       -0.00000       -0.00000       -0.00000 )
      E*z (        0.00000       -0.00000       -0.00000 )
           atom      2   Si Mean Z*:        0.00000
      E*x (        0.00000        0.00000        0.00000 )
      E*y (        0.00000        0.00000        0.00000 )
      E*z (       -0.00000        0.00000        0.00000 )


     Representation #   1 modes #   1   2   3

     Self-consistent Calculation

      iter #   1 total cpu time :    79.3 secs   av.it.:   5.1
      thresh= 1.000E-02 alpha_mix =  0.700 |ddv_scf|^2 =  4.618E-09

      iter #   2 total cpu time :    89.5 secs   av.it.:  11.8
      thresh= 6.796E-06 alpha_mix =  0.700 |ddv_scf|^2 =  1.471E-10

      iter #   3 total cpu time :    99.8 secs   av.it.:  11.3
      thresh= 1.213E-06 alpha_mix =  0.700 |ddv_scf|^2 =  9.071E-12

      iter #   4 total cpu time :   110.0 secs   av.it.:  11.2
      thresh= 3.012E-07 alpha_mix =  0.700 |ddv_scf|^2 =  1.603E-14

      iter #   5 total cpu time :   120.2 secs   av.it.:  11.6
      thresh= 1.266E-08 alpha_mix =  0.700 |ddv_scf|^2 =  9.541E-17

     End of self-consistent calculation

     Convergence has been achieved 


     Representation #   2 modes #   4   5   6

     Self-consistent Calculation

      iter #   1 total cpu time :   130.2 secs   av.it.:   5.3
      thresh= 1.000E-02 alpha_mix =  0.700 |ddv_scf|^2 =  3.921E-09

      iter #   2 total cpu time :   140.6 secs   av.it.:  12.0
      thresh= 6.262E-06 alpha_mix =  0.700 |ddv_scf|^2 =  1.921E-10

      iter #   3 total cpu time :   151.0 secs   av.it.:  11.8
      thresh= 1.386E-06 alpha_mix =  0.700 |ddv_scf|^2 =  1.119E-11

      iter #   4 total cpu time :   161.5 secs   av.it.:  12.0
      thresh= 3.345E-07 alpha_mix =  0.700 |ddv_scf|^2 =  2.240E-14

      iter #   5 total cpu time :   171.9 secs   av.it.:  12.3
      thresh= 1.497E-08 alpha_mix =  0.700 |ddv_scf|^2 =  8.423E-17

     End of self-consistent calculation

     Convergence has been achieved 
 
     Number of q in the star =    1
     List of q in the star:
          1   0.000000000   0.000000000   0.000000000

          Dielectric constant in cartesian axis 

          (      25.900553927      -0.000000000      -0.000000000 )
          (      -0.000000000      25.900553927       0.000000000 )
          (      -0.000000000      -0.000000000      25.900553927 )

          Effective charges (d Force / dE) in cartesian axis without acoustic sum rule applied (asr)

           atom      1   Si Mean Z*:       -1.23554
      Ex  (       -1.23554       -0.00000       -0.00000 )
      Ey  (       -0.00000       -1.23554        0.00000 )
      Ez  (       -0.00000        0.00000       -1.23554 )
           atom      2   Si Mean Z*:       -1.23554
      Ex  (       -1.23554       -0.00000       -0.00000 )
      Ey  (       -0.00000       -1.23554        0.00000 )
      Ez  (       -0.00000        0.00000       -1.23554 )

          Effective charges Sum: Mean:       -2.47108
             -2.47108       -0.00000       -0.00000
             -0.00000       -2.47108        0.00000
             -0.00000        0.00000       -2.47108

          Effective charges (d Force / dE) in cartesian axis with asr applied: 
           atom      1   Si Mean Z*:       -0.00000
      E*x (        0.00000       -0.00000       -0.00000 )
      E*y (       -0.00000       -0.00000       -0.00000 )
      E*z (        0.00000       -0.00000       -0.00000 )
           atom      2   Si Mean Z*:        0.00000
      E*x (        0.00000        0.00000        0.00000 )
      E*y (        0.00000        0.00000        0.00000 )
      E*z (       -0.00000        0.00000        0.00000 )

          Effective charges (d P / du) in cartesian axis 

           atom      1   Si 
      Px  (       -1.23540       -0.00000        0.00000 )
      Py  (       -0.00000       -1.23540        0.00000 )
      Pz  (       -0.00000       -0.00000       -1.23540 )
           atom      2   Si 
      Px  (       -1.23540        0.00000       -0.00000 )
      Py  (        0.00000       -1.23540       -0.00000 )
      Pz  (       -0.00000       -0.00000       -1.23540 )

     Diagonalizing the dynamical matrix

     q = (    0.000000000   0.000000000   0.000000000 ) 

 **************************************************************************
     freq (    1) =      -0.183750 [THz] =      -6.129251 [cm-1]
     freq (    2) =      -0.183750 [THz] =      -6.129251 [cm-1]
     freq (    3) =      -0.183750 [THz] =      -6.129251 [cm-1]
     freq (    4) =      14.995797 [THz] =     500.205938 [cm-1]
     freq (    5) =      14.995797 [THz] =     500.205938 [cm-1]
     freq (    6) =      14.995797 [THz] =     500.205938 [cm-1]
 **************************************************************************

     Mode symmetry, O_h (m-3m)  point group:

     freq (   1-   3) =         -6.1  [cm-1]   --> T_1u G_15  G_4- I  
     freq (   4-   6) =        500.2  [cm-1]   --> T_2g G_25' G_5+ R  

     Calculation of q =   -0.2500000   0.2500000  -0.2500000

     Subspace diagonalization in iterative solution of the eigenvalue problem:
     a serial algorithm will be used

 
     G-vector sticks info
     --------------------
     sticks:   dense  smooth     PW     G-vecs:    dense   smooth      PW
     Sum        1843     745    241                52345    13323    2421
 
     Using Slab Decomposition
 

     Title: 
     Phonons of Si                                                              


     bravais-lattice index     =            2
     lattice parameter (alat)  =      10.3614  a.u.
     unit-cell volume          =     278.0964 (a.u.)^3
     number of atoms/cell      =            2
     number of atomic types    =            1
     number of electrons       =         8.00
     number of Kohn-Sham states=            4
     kinetic-energy cutoff     =      50.0000  Ry
     charge density cutoff     =     500.0000  Ry
     Exchange-correlation= PZ
                           (   1   1   0   0   0   0   0)

     celldm(1)=  10.361400  celldm(2)=   0.000000  celldm(3)=   0.000000
     celldm(4)=   0.000000  celldm(5)=   0.000000  celldm(6)=   0.000000

     crystal axes: (cart. coord. in units of alat)
               a(1) = (  -0.500000   0.000000   0.500000 )  
               a(2) = (   0.000000   0.500000   0.500000 )  
               a(3) = (  -0.500000   0.500000   0.000000 )  

     reciprocal axes: (cart. coord. in units 2 pi/alat)
               b(1) = ( -1.000000 -1.000000  1.000000 )  
               b(2) = (  1.000000  1.000000  1.000000 )  
               b(3) = ( -1.000000  1.000000 -1.000000 )  


     PseudoPot. # 1 for Si read from file:
     ./Si_LDA.UPF
     MD5 check sum: b5ade7b37ee992b02096e360e546dc2d
     Pseudo is Ultrasoft + core correction, Zval =  4.0
     Generated by new atomic code, or converted to UPF format
     Using radial grid of  899 points,  6 beta functions with: 
                l(1) =   0
                l(2) =   0
                l(3) =   1
                l(4) =   1
                l(5) =   2
                l(6) =   2
     Q(r) pseudized with  8 coefficients,  rinner =    0.900   0.900   0.900
                                                       0.900   0.900

     atomic species   valence    mass     pseudopotential
        Si             4.00    28.08550     Si( 1.00)

     48 Sym. Ops., with inversion, found



   Cartesian axes

     site n.     atom                  positions (alat units)
         1           Si  tau(   1) = (   0.0000000   0.0000000   0.0000000  )
         2           Si  tau(   2) = (  -0.2500000   0.2500000   0.2500000  )

     number of k points=    40
                       cart. coord. in units 2pi/alat
        k(    1) = (   0.0000000   0.0000000   0.0000000), wk =   0.0312500
        k(    2) = (  -0.2500000   0.2500000  -0.2500000), wk =   0.0000000
        k(    3) = (  -0.2500000   0.2500000  -0.2500000), wk =   0.0312500
        k(    4) = (  -0.5000000   0.5000000  -0.5000000), wk =   0.0000000
        k(    5) = (   0.5000000  -0.5000000   0.5000000), wk =   0.0312500
        k(    6) = (   0.2500000  -0.2500000   0.2500000), wk =   0.0000000
        k(    7) = (   0.0000000   0.5000000   0.0000000), wk =   0.0937500
        k(    8) = (  -0.2500000   0.7500000  -0.2500000), wk =   0.0000000
        k(    9) = (   0.7500000  -0.2500000   0.7500000), wk =   0.0937500
        k(   10) = (   0.5000000   0.0000000   0.5000000), wk =   0.0000000
        k(   11) = (   0.5000000   0.0000000   0.5000000), wk =   0.0937500
        k(   12) = (   0.2500000   0.2500000   0.2500000), wk =   0.0000000
        k(   13) = (   0.0000000  -1.0000000   0.0000000), wk =   0.0937500
        k(   14) = (  -0.2500000  -0.7500000  -0.2500000), wk =   0.0000000
        k(   15) = (  -0.5000000  -1.0000000   0.0000000), wk =   0.1875000
        k(   16) = (  -0.7500000  -0.7500000  -0.2500000), wk =   0.0000000
        k(   17) = (   0.2500000  -0.2500000  -0.2500000), wk =   0.0937500
        k(   18) = (   0.0000000   0.0000000  -0.5000000), wk =   0.0000000
        k(   19) = (   0.2500000  -0.2500000   0.2500000), wk =   0.0312500
        k(   20) = (   0.0000000   0.0000000   0.0000000), wk =   0.0000000
        k(   21) = (  -0.2500000  -0.2500000  -0.2500000), wk =   0.0937500
        k(   22) = (  -0.5000000   0.0000000  -0.5000000), wk =   0.0000000
        k(   23) = (  -0.5000000   0.5000000   0.5000000), wk =   0.0937500
        k(   24) = (  -0.7500000   0.7500000   0.2500000), wk =   0.0000000
        k(   25) = (   0.0000000   0.0000000   0.5000000), wk =   0.0937500
        k(   26) = (  -0.2500000   0.2500000   0.2500000), wk =   0.0000000
        k(   27) = (  -0.7500000   0.7500000   0.2500000), wk =   0.0937500
        k(   28) = (  -1.0000000   1.0000000   0.0000000), wk =   0.0000000
        k(   29) = (  -0.7500000   0.7500000  -0.2500000), wk =   0.0937500
        k(   30) = (  -1.0000000   1.0000000  -0.5000000), wk =   0.0000000
        k(   31) = (  -0.7500000   0.2500000   0.7500000), wk =   0.1875000
        k(   32) = (  -1.0000000   0.5000000   0.5000000), wk =   0.0000000
        k(   33) = (   0.7500000   0.2500000   0.7500000), wk =   0.0937500
        k(   34) = (   0.5000000   0.5000000   0.5000000), wk =   0.0000000
        k(   35) = (   0.7500000  -0.2500000  -0.7500000), wk =   0.1875000
        k(   36) = (   0.5000000   0.0000000  -1.0000000), wk =   0.0000000
        k(   37) = (  -0.5000000   0.5000000   0.0000000), wk =   0.0937500
        k(   38) = (  -0.7500000   0.7500000  -0.2500000), wk =   0.0000000
        k(   39) = (  -0.5000000   0.0000000   0.5000000), wk =   0.1875000
        k(   40) = (  -0.7500000   0.2500000   0.2500000), wk =   0.0000000

     Dense  grid:    52345 G-vectors     FFT dimensions: (  60,  60,  60)

     Smooth grid:    13323 G-vectors     FFT dimensions: (  36,  36,  36)

     Estimated max dynamical RAM per process >     174.06 MB

     The potential is recalculated from file :
     ./_ph0/Si.save/charge-density

     Starting wfcs are    8 atomic wfcs

     Band Structure Calculation
     Davidson diagonalization with overlap

     ethr =  1.25E-10,  avg # of iterations = 12.8

     total cpu time spent up to now is        8.9 secs

     End of band structure calculation

          k = 0.0000 0.0000 0.0000 (  1639 PWs)   bands (ev):

    -6.0251   5.7565   5.7565   5.7565

          k =-0.2500 0.2500-0.2500 (  1654 PWs)   bands (ev):

    -5.2445   1.8507   5.0114   5.0114

          k =-0.2500 0.2500-0.2500 (  1654 PWs)   bands (ev):

    -5.2445   1.8507   5.0114   5.0114

          k =-0.5000 0.5000-0.5000 (  1676 PWs)   bands (ev):

    -3.7554  -1.1209   4.5808   4.5808

          k = 0.5000-0.5000 0.5000 (  1676 PWs)   bands (ev):

    -3.7554  -1.1209   4.5808   4.5808

          k = 0.2500-0.2500 0.2500 (  1654 PWs)   bands (ev):

    -5.2445   1.8507   5.0114   5.0114

          k = 0.0000 0.5000 0.0000 (  1636 PWs)   bands (ev):

    -4.9687   2.2135   3.9078   3.9078

          k =-0.2500 0.7500-0.2500 (  1661 PWs)   bands (ev):

    -3.3750  -0.5713   2.2755   3.5989

          k = 0.7500-0.2500 0.7500 (  1661 PWs)   bands (ev):

    -3.3750  -0.5713   2.2755   3.5989

          k = 0.5000 0.0000 0.5000 (  1658 PWs)   bands (ev):

    -4.0315   0.3081   2.0679   4.4558

          k = 0.5000 0.0000 0.5000 (  1658 PWs)   bands (ev):

    -4.0315   0.3081   2.0679   4.4558

          k = 0.2500 0.2500 0.2500 (  1654 PWs)   bands (ev):

    -5.2445   1.8507   5.0114   5.0114

          k = 0.0000-1.0000 0.0000 (  1660 PWs)   bands (ev):

    -1.9816  -1.9816   2.9659   2.9659

          k =-0.2500-0.7500-0.2500 (  1661 PWs)   bands (ev):

    -3.3750  -0.5713   2.2755   3.5989

          k =-0.5000-1.0000 0.0000 (  1648 PWs)   bands (ev):

    -1.8259  -1.8259   1.9791   1.9791

          k =-0.7500-0.7500-0.2500 (  1661 PWs)   bands (ev):

    -3.3750  -0.5713   2.2755   3.5989

          k = 0.2500-0.2500-0.2500 (  1654 PWs)   bands (ev):

    -5.2445   1.8507   5.0114   5.0114

          k = 0.0000 0.0000-0.5000 (  1636 PWs)   bands (ev):

    -4.9687   2.2135   3.9078   3.9078

          k = 0.2500-0.2500 0.2500 (  1654 PWs)   bands (ev):

    -5.2445   1.8507   5.0114   5.0114

          k = 0.0000 0.0000 0.0000 (  1639 PWs)   bands (ev):

    -6.0251   5.7565   5.7565   5.7565

          k =-0.2500-0.2500-0.2500 (  1654 PWs)   bands (ev):

    -5.2445   1.8507   5.0114   5.0114

          k =-0.5000 0.0000-0.5000 (  1658 PWs)   bands (ev):

    -4.0315   0.3081   2.0679   4.4558

          k =-0.5000 0.5000 0.5000 (  1676 PWs)   bands (ev):

    -3.7554  -1.1209   4.5808   4.5808

          k =-0.7500 0.7500 0.2500 (  1661 PWs)   bands (ev):

    -3.3750  -0.5713   2.2755   3.5989

          k = 0.0000 0.0000 0.5000 (  1636 PWs)   bands (ev):

    -4.9687   2.2135   3.9078   3.9078

          k =-0.2500 0.2500 0.2500 (  1654 PWs)   bands (ev):

    -5.2445   1.8507   5.0114   5.0114

          k =-0.7500 0.7500 0.2500 (  1661 PWs)   bands (ev):

    -3.3750  -0.5713   2.2755   3.5989

          k =-1.0000 1.0000 0.0000 (  1660 PWs)   bands (ev):

    -1.9816  -1.9816   2.9659   2.9659

          k =-0.7500 0.7500-0.2500 (  1661 PWs)   bands (ev):

    -3.3750  -0.5713   2.2755   3.5989

          k =-1.0000 1.0000-0.5000 (  1636 PWs)   bands (ev):

    -4.9687   2.2135   3.9078   3.9078

          k =-0.7500 0.2500 0.7500 (  1661 PWs)   bands (ev):

    -3.3750  -0.5713   2.2755   3.5989

          k =-1.0000 0.5000 0.5000 (  1658 PWs)   bands (ev):

    -4.0315   0.3081   2.0679   4.4558

          k = 0.7500 0.2500 0.7500 (  1661 PWs)   bands (ev):

    -3.3750  -0.5713   2.2755   3.5989

          k = 0.5000 0.5000 0.5000 (  1676 PWs)   bands (ev):

    -3.7554  -1.1209   4.5808   4.5808

          k = 0.7500-0.2500-0.7500 (  1661 PWs)   bands (ev):

    -3.3750  -0.5713   2.2755   3.5989

          k = 0.5000 0.0000-1.0000 (  1648 PWs)   bands (ev):

    -1.8259  -1.8259   1.9791   1.9791

          k =-0.5000 0.5000 0.0000 (  1658 PWs)   bands (ev):

    -4.0315   0.3081   2.0679   4.4558

          k =-0.7500 0.7500-0.2500 (  1661 PWs)   bands (ev):

    -3.3750  -0.5713   2.2755   3.5989

          k =-0.5000 0.0000 0.5000 (  1658 PWs)   bands (ev):

    -4.0315   0.3081   2.0679   4.4558

          k =-0.7500 0.2500 0.2500 (  1661 PWs)   bands (ev):

    -3.3750  -0.5713   2.2755   3.5989

     highest occupied level (ev):     5.7565

     Writing config to output data dir ./_ph0/Si.save/

     Phonons of Si                                                              

     bravais-lattice index     =            2
     lattice parameter (alat)  =      10.3614  a.u.
     unit-cell volume          =     278.0964 (a.u.)^3
     number of atoms/cell      =            2
     number of atomic types    =            1
     kinetic-energy cut-off    =      50.0000  Ry
     charge density cut-off    =     500.0000  Ry
     convergence threshold     =      1.0E-16
     beta                      =       0.7000
     number of iterations used =            4
     Exchange-correlation= PZ
                           (   1   1   0   0   0   0   0)


     celldm(1)=   10.36140  celldm(2)=    0.00000  celldm(3)=    0.00000
     celldm(4)=    0.00000  celldm(5)=    0.00000  celldm(6)=    0.00000

     crystal axes: (cart. coord. in units of alat)
               a(1) = ( -0.5000  0.0000  0.5000 )  
               a(2) = (  0.0000  0.5000  0.5000 )  
               a(3) = ( -0.5000  0.5000  0.0000 )  

     reciprocal axes: (cart. coord. in units 2 pi/alat)
               b(1) = ( -1.0000 -1.0000  1.0000 )  
               b(2) = (  1.0000  1.0000  1.0000 )  
               b(3) = ( -1.0000  1.0000 -1.0000 )  


     Atoms inside the unit cell: 

     Cartesian axes

     site n.  atom      mass           positions (alat units)
        1     Si  28.0855   tau(    1) = (    0.00000    0.00000    0.00000  )
        2     Si  28.0855   tau(    2) = (   -0.25000    0.25000    0.25000  )

     Computing dynamical matrix for 
                    q = (  -0.2500000   0.2500000  -0.2500000 )
 
      6 Sym.Ops. (no q -> -q+G )


     G cutoff = 1359.7127  (  52345 G-vectors)     FFT grid: ( 60, 60, 60)
     G cutoff =  543.8851  (  13323 G-vectors)  smooth grid: ( 36, 36, 36)
     number of k points=    40

     PseudoPot. # 1 for Si read from file:
     ./Si_LDA.UPF
     MD5 check sum: b5ade7b37ee992b02096e360e546dc2d
     Pseudo is Ultrasoft + core correction, Zval =  4.0
     Generated by new atomic code, or converted to UPF format
     Using radial grid of  899 points,  6 beta functions with: 
                l(1) =   0
                l(2) =   0
                l(3) =   1
                l(4) =   1
                l(5) =   2
                l(6) =   2
     Q(r) pseudized with  8 coefficients,  rinner =    0.900   0.900   0.900
                                                       0.900   0.900

     Mode symmetry, C_3v (3m)   point group:


     Atomic displacements:
     There are    4 irreducible representations

     Representation     1      1 modes -  To be done

     Representation     2      1 modes -  To be done

     Representation     3      2 modes -  To be done

     Representation     4      2 modes -  To be done



     Alpha used in Ewald sum =   2.8000
     PHONON       :   3m 7.80s CPU   3m18.16s WALL



     Representation #   1 mode #   1

     Self-consistent Calculation

      iter #   1 total cpu time :   202.5 secs   av.it.:   6.2
      thresh= 1.000E-02 alpha_mix =  0.700 |ddv_scf|^2 =  8.936E-05

      iter #   2 total cpu time :   207.7 secs   av.it.:  10.2
      thresh= 9.453E-04 alpha_mix =  0.700 |ddv_scf|^2 =  1.315E-03

      iter #   3 total cpu time :   212.4 secs   av.it.:   8.2
      thresh= 3.626E-03 alpha_mix =  0.700 |ddv_scf|^2 =  5.657E-08

      iter #   4 total cpu time :   217.7 secs   av.it.:  10.5
      thresh= 2.378E-05 alpha_mix =  0.700 |ddv_scf|^2 =  3.448E-09

      iter #   5 total cpu time :   223.0 secs   av.it.:  10.7
      thresh= 5.872E-06 alpha_mix =  0.700 |ddv_scf|^2 =  7.957E-11

      iter #   6 total cpu time :   228.2 secs   av.it.:  10.6
      thresh= 8.920E-07 alpha_mix =  0.700 |ddv_scf|^2 =  1.331E-11

      iter #   7 total cpu time :   233.4 secs   av.it.:  10.2
      thresh= 3.649E-07 alpha_mix =  0.700 |ddv_scf|^2 =  5.429E-13

      iter #   8 total cpu time :   238.4 secs   av.it.:   9.4
      thresh= 7.368E-08 alpha_mix =  0.700 |ddv_scf|^2 =  2.122E-13

      iter #   9 total cpu time :   243.4 secs   av.it.:   9.3
      thresh= 4.606E-08 alpha_mix =  0.700 |ddv_scf|^2 =  1.520E-15

      iter #  10 total cpu time :   248.6 secs   av.it.:  10.4
      thresh= 3.898E-09 alpha_mix =  0.700 |ddv_scf|^2 =  3.194E-16

      iter #  11 total cpu time :   253.7 secs   av.it.:  10.0
      thresh= 1.787E-09 alpha_mix =  0.700 |ddv_scf|^2 =  3.128E-17

     End of self-consistent calculation

     Convergence has been achieved 


     Representation #   2 mode #   2

     Self-consistent Calculation

      iter #   1 total cpu time :   258.3 secs   av.it.:   6.2
      thresh= 1.000E-02 alpha_mix =  0.700 |ddv_scf|^2 =  8.937E-05

      iter #   2 total cpu time :   263.4 secs   av.it.:  10.2
      thresh= 9.454E-04 alpha_mix =  0.700 |ddv_scf|^2 =  1.315E-03

      iter #   3 total cpu time :   268.2 secs   av.it.:   8.2
      thresh= 3.626E-03 alpha_mix =  0.700 |ddv_scf|^2 =  5.673E-08

      iter #   4 total cpu time :   273.9 secs   av.it.:  10.5
      thresh= 2.382E-05 alpha_mix =  0.700 |ddv_scf|^2 =  3.432E-09

      iter #   5 total cpu time :   279.2 secs   av.it.:  10.7
      thresh= 5.858E-06 alpha_mix =  0.700 |ddv_scf|^2 =  7.967E-11

      iter #   6 total cpu time :   284.4 secs   av.it.:  10.6
      thresh= 8.926E-07 alpha_mix =  0.700 |ddv_scf|^2 =  2.269E-11

      iter #   7 total cpu time :   289.6 secs   av.it.:  10.2
      thresh= 4.764E-07 alpha_mix =  0.700 |ddv_scf|^2 =  4.399E-11

      iter #   8 total cpu time :   294.5 secs   av.it.:   8.9
      thresh= 6.632E-07 alpha_mix =  0.700 |ddv_scf|^2 =  1.052E-13

      iter #   9 total cpu time :   299.6 secs   av.it.:   9.8
      thresh= 3.243E-08 alpha_mix =  0.700 |ddv_scf|^2 =  3.616E-15

      iter #  10 total cpu time :   304.8 secs   av.it.:  10.3
      thresh= 6.013E-09 alpha_mix =  0.700 |ddv_scf|^2 =  4.947E-16

      iter #  11 total cpu time :   310.0 secs   av.it.:  10.1
      thresh= 2.224E-09 alpha_mix =  0.700 |ddv_scf|^2 =  4.374E-17

     End of self-consistent calculation

     Convergence has been achieved 


     Representation #   3 modes #   3   4

     Self-consistent Calculation

      iter #   1 total cpu time :   317.3 secs   av.it.:   5.5
      thresh= 1.000E-02 alpha_mix =  0.700 |ddv_scf|^2 =  1.406E-08

      iter #   2 total cpu time :   327.3 secs   av.it.:  11.9
      thresh= 1.186E-05 alpha_mix =  0.700 |ddv_scf|^2 =  8.758E-10

      iter #   3 total cpu time :   337.1 secs   av.it.:  11.9
      thresh= 2.959E-06 alpha_mix =  0.700 |ddv_scf|^2 =  3.270E-11

      iter #   4 total cpu time :   347.1 secs   av.it.:  11.9
      thresh= 5.718E-07 alpha_mix =  0.700 |ddv_scf|^2 =  1.646E-13

      iter #   5 total cpu time :   357.0 secs   av.it.:  12.1
      thresh= 4.057E-08 alpha_mix =  0.700 |ddv_scf|^2 =  4.981E-15

      iter #   6 total cpu time :   367.0 secs   av.it.:  12.3
      thresh= 7.058E-09 alpha_mix =  0.700 |ddv_scf|^2 =  2.764E-17

     End of self-consistent calculation

     Convergence has been achieved 


     Representation #   4 modes #   5   6

     Self-consistent Calculation

      iter #   1 total cpu time :   374.5 secs   av.it.:   5.5
      thresh= 1.000E-02 alpha_mix =  0.700 |ddv_scf|^2 =  1.406E-08

      iter #   2 total cpu time :   384.3 secs   av.it.:  11.6
      thresh= 1.186E-05 alpha_mix =  0.700 |ddv_scf|^2 =  8.752E-10

      iter #   3 total cpu time :   393.9 secs   av.it.:  11.4
      thresh= 2.958E-06 alpha_mix =  0.700 |ddv_scf|^2 =  3.270E-11

      iter #   4 total cpu time :   403.7 secs   av.it.:  11.6
      thresh= 5.719E-07 alpha_mix =  0.700 |ddv_scf|^2 =  1.638E-13

      iter #   5 total cpu time :   413.6 secs   av.it.:  11.8
      thresh= 4.047E-08 alpha_mix =  0.700 |ddv_scf|^2 =  4.967E-15

      iter #   6 total cpu time :   423.4 secs   av.it.:  11.9
      thresh= 7.048E-09 alpha_mix =  0.700 |ddv_scf|^2 =  2.754E-17

     End of self-consistent calculation

     Convergence has been achieved 
 
     Number of q in the star =    8
     List of q in the star:
          1  -0.250000000   0.250000000  -0.250000000
          2   0.250000000  -0.250000000  -0.250000000
          3   0.250000000  -0.250000000   0.250000000
          4   0.250000000   0.250000000   0.250000000
          5  -0.250000000  -0.250000000  -0.250000000
          6  -0.250000000  -0.250000000   0.250000000
          7  -0.250000000   0.250000000   0.250000000
          8   0.250000000   0.250000000  -0.250000000

     Diagonalizing the dynamical matrix

     q = (   -0.250000000   0.250000000  -0.250000000 ) 

 **************************************************************************
     freq (    1) =       2.824785 [THz] =      94.224674 [cm-1]
     freq (    2) =       2.824785 [THz] =      94.224674 [cm-1]
     freq (    3) =       6.565797 [THz] =     219.011406 [cm-1]
     freq (    4) =      14.144631 [THz] =     471.814119 [cm-1]
     freq (    5) =      14.293269 [THz] =     476.772123 [cm-1]
     freq (    6) =      14.293269 [THz] =     476.772123 [cm-1]
 **************************************************************************

     Mode symmetry, C_3v (3m)   point group:

     freq (   1-   2) =         94.2  [cm-1]   --> E    L_3           
     freq (   3-   3) =        219.0  [cm-1]   --> A_1  L_1           
     freq (   4-   4) =        471.8  [cm-1]   --> A_1  L_1           
     freq (   5-   6) =        476.8  [cm-1]   --> E    L_3           

     Calculation of q =    0.5000000  -0.5000000   0.5000000
 
     G-vector sticks info
     --------------------
     sticks:   dense  smooth     PW     G-vecs:    dense   smooth      PW
     Sum        1843     745    253                52345    13323    2685
 
     Using Slab Decomposition
 

     Title: 
     Phonons of Si                                                              


     bravais-lattice index     =            2
     lattice parameter (alat)  =      10.3614  a.u.
     unit-cell volume          =     278.0964 (a.u.)^3
     number of atoms/cell      =            2
     number of atomic types    =            1
     number of electrons       =         8.00
     number of Kohn-Sham states=            4
     kinetic-energy cutoff     =      50.0000  Ry
     charge density cutoff     =     500.0000  Ry
     Exchange-correlation= PZ
                           (   1   1   0   0   0   0   0)

     celldm(1)=  10.361400  celldm(2)=   0.000000  celldm(3)=   0.000000
     celldm(4)=   0.000000  celldm(5)=   0.000000  celldm(6)=   0.000000

     crystal axes: (cart. coord. in units of alat)
               a(1) = (  -0.500000   0.000000   0.500000 )  
               a(2) = (   0.000000   0.500000   0.500000 )  
               a(3) = (  -0.500000   0.500000   0.000000 )  

     reciprocal axes: (cart. coord. in units 2 pi/alat)
               b(1) = ( -1.000000 -1.000000  1.000000 )  
               b(2) = (  1.000000  1.000000  1.000000 )  
               b(3) = ( -1.000000  1.000000 -1.000000 )  


     PseudoPot. # 1 for Si read from file:
     ./Si_LDA.UPF
     MD5 check sum: b5ade7b37ee992b02096e360e546dc2d
     Pseudo is Ultrasoft + core correction, Zval =  4.0
     Generated by new atomic code, or converted to UPF format
     Using radial grid of  899 points,  6 beta functions with: 
                l(1) =   0
                l(2) =   0
                l(3) =   1
                l(4) =   1
                l(5) =   2
                l(6) =   2
     Q(r) pseudized with  8 coefficients,  rinner =    0.900   0.900   0.900
                                                       0.900   0.900

     atomic species   valence    mass     pseudopotential
        Si             4.00    28.08550     Si( 1.00)

     48 Sym. Ops., with inversion, found



   Cartesian axes

     site n.     atom                  positions (alat units)
         1           Si  tau(   1) = (   0.0000000   0.0000000   0.0000000  )
         2           Si  tau(   2) = (  -0.2500000   0.2500000   0.2500000  )

     number of k points=    26
                       cart. coord. in units 2pi/alat
        k(    1) = (   0.0000000   0.0000000   0.0000000), wk =   0.0312500
        k(    2) = (   0.5000000  -0.5000000   0.5000000), wk =   0.0000000
        k(    3) = (  -0.2500000   0.2500000  -0.2500000), wk =   0.0625000
        k(    4) = (   0.2500000  -0.2500000   0.2500000), wk =   0.0000000
        k(    5) = (   0.5000000  -0.5000000   0.5000000), wk =   0.0312500
        k(    6) = (   1.0000000  -1.0000000   1.0000000), wk =   0.0000000
        k(    7) = (   0.0000000   0.5000000   0.0000000), wk =   0.1875000
        k(    8) = (   0.5000000   0.0000000   0.5000000), wk =   0.0000000
        k(    9) = (   0.7500000  -0.2500000   0.7500000), wk =   0.1875000
        k(   10) = (   1.2500000  -0.7500000   1.2500000), wk =   0.0000000
        k(   11) = (   0.5000000   0.0000000   0.5000000), wk =   0.1875000
        k(   12) = (   1.0000000  -0.5000000   1.0000000), wk =   0.0000000
        k(   13) = (   0.0000000  -1.0000000   0.0000000), wk =   0.0937500
        k(   14) = (   0.5000000  -1.5000000   0.5000000), wk =   0.0000000
        k(   15) = (  -0.5000000  -1.0000000   0.0000000), wk =   0.1875000
        k(   16) = (   0.0000000  -1.5000000   0.5000000), wk =   0.0000000
        k(   17) = (  -0.2500000  -0.2500000  -0.2500000), wk =   0.1875000
        k(   18) = (   0.2500000  -0.7500000   0.2500000), wk =   0.0000000
        k(   19) = (   0.5000000   0.5000000   0.5000000), wk =   0.0937500
        k(   20) = (   1.0000000   0.0000000   1.0000000), wk =   0.0000000
        k(   21) = (   0.7500000   0.2500000   0.7500000), wk =   0.1875000
        k(   22) = (   1.2500000  -0.2500000   1.2500000), wk =   0.0000000
        k(   23) = (  -0.7500000   0.2500000   0.7500000), wk =   0.3750000
        k(   24) = (  -0.2500000  -0.2500000   1.2500000), wk =   0.0000000
        k(   25) = (  -0.5000000   0.0000000   0.5000000), wk =   0.1875000
        k(   26) = (   0.0000000  -0.5000000   1.0000000), wk =   0.0000000

     Dense  grid:    52345 G-vectors     FFT dimensions: (  60,  60,  60)

     Smooth grid:    13323 G-vectors     FFT dimensions: (  36,  36,  36)

     Estimated max dynamical RAM per process >     174.09 MB

     The potential is recalculated from file :
     ./_ph0/Si.save/charge-density

     Starting wfcs are    8 atomic wfcs

     Band Structure Calculation
     Davidson diagonalization with overlap

     ethr =  1.25E-10,  avg # of iterations = 12.7

     total cpu time spent up to now is       14.9 secs

     End of band structure calculation

          k = 0.0000 0.0000 0.0000 (  1639 PWs)   bands (ev):

    -6.0251   5.7565   5.7565   5.7565

          k = 0.5000-0.5000 0.5000 (  1676 PWs)   bands (ev):

    -3.7554  -1.1209   4.5808   4.5808

          k =-0.2500 0.2500-0.2500 (  1654 PWs)   bands (ev):

    -5.2445   1.8507   5.0114   5.0114

          k = 0.2500-0.2500 0.2500 (  1654 PWs)   bands (ev):

    -5.2445   1.8507   5.0114   5.0114

          k = 0.5000-0.5000 0.5000 (  1676 PWs)   bands (ev):

    -3.7554  -1.1209   4.5808   4.5808

          k = 1.0000-1.0000 1.0000 (  1639 PWs)   bands (ev):

    -6.0251   5.7565   5.7565   5.7565

          k = 0.0000 0.5000 0.0000 (  1636 PWs)   bands (ev):

    -4.9687   2.2135   3.9078   3.9078

          k = 0.5000 0.0000 0.5000 (  1658 PWs)   bands (ev):

    -4.0315   0.3081   2.0679   4.4558

          k = 0.7500-0.2500 0.7500 (  1661 PWs)   bands (ev):

    -3.3750  -0.5713   2.2755   3.5989

          k = 1.2500-0.7500 1.2500 (  1654 PWs)   bands (ev):

    -5.2445   1.8507   5.0114   5.0114

          k = 0.5000 0.0000 0.5000 (  1658 PWs)   bands (ev):

    -4.0315   0.3081   2.0679   4.4558

          k = 1.0000-0.5000 1.0000 (  1636 PWs)   bands (ev):

    -4.9687   2.2135   3.9078   3.9078

          k = 0.0000-1.0000 0.0000 (  1660 PWs)   bands (ev):

    -1.9816  -1.9816   2.9659   2.9659

          k = 0.5000-1.5000 0.5000 (  1676 PWs)   bands (ev):

    -3.7554  -1.1209   4.5808   4.5808

          k =-0.5000-1.0000 0.0000 (  1648 PWs)   bands (ev):

    -1.8259  -1.8259   1.9791   1.9791

          k = 0.0000-1.5000 0.5000 (  1658 PWs)   bands (ev):

    -4.0315   0.3081   2.0679   4.4558

          k =-0.2500-0.2500-0.2500 (  1654 PWs)   bands (ev):

    -5.2445   1.8507   5.0114   5.0114

          k = 0.2500-0.7500 0.2500 (  1661 PWs)   bands (ev):

    -3.3750  -0.5713   2.2755   3.5989

          k = 0.5000 0.5000 0.5000 (  1676 PWs)   bands (ev):

    -3.7554  -1.1209   4.5808   4.5808

          k = 1.0000 0.0000 1.0000 (  1660 PWs)   bands (ev):

    -1.9816  -1.9816   2.9659   2.9659

          k = 0.7500 0.2500 0.7500 (  1661 PWs)   bands (ev):

    -3.3750  -0.5713   2.2755   3.5989

          k = 1.2500-0.2500 1.2500 (  1661 PWs)   bands (ev):

    -3.3750  -0.5713   2.2755   3.5989

          k =-0.7500 0.2500 0.7500 (  1661 PWs)   bands (ev):

    -3.3750  -0.5713   2.2755   3.5989

          k =-0.2500-0.2500 1.2500 (  1661 PWs)   bands (ev):

    -3.3750  -0.5713   2.2755   3.5989

          k =-0.5000 0.0000 0.5000 (  1658 PWs)   bands (ev):

    -4.0315   0.3081   2.0679   4.4558

          k = 0.0000-0.5000 1.0000 (  1648 PWs)   bands (ev):

    -1.8259  -1.8259   1.9791   1.9791

     highest occupied level (ev):     5.7565

     Writing config to output data dir ./_ph0/Si.save/

     Phonons of Si                                                              

     bravais-lattice index     =            2
     lattice parameter (alat)  =      10.3614  a.u.
     unit-cell volume          =     278.0964 (a.u.)^3
     number of atoms/cell      =            2
     number of atomic types    =            1
     kinetic-energy cut-off    =      50.0000  Ry
     charge density cut-off    =     500.0000  Ry
     convergence threshold     =      1.0E-16
     beta                      =       0.7000
     number of iterations used =            4
     Exchange-correlation= PZ
                           (   1   1   0   0   0   0   0)


     celldm(1)=   10.36140  celldm(2)=    0.00000  celldm(3)=    0.00000
     celldm(4)=    0.00000  celldm(5)=    0.00000  celldm(6)=    0.00000

     crystal axes: (cart. coord. in units of alat)
               a(1) = ( -0.5000  0.0000  0.5000 )  
               a(2) = (  0.0000  0.5000  0.5000 )  
               a(3) = ( -0.5000  0.5000  0.0000 )  

     reciprocal axes: (cart. coord. in units 2 pi/alat)
               b(1) = ( -1.0000 -1.0000  1.0000 )  
               b(2) = (  1.0000  1.0000  1.0000 )  
               b(3) = ( -1.0000  1.0000 -1.0000 )  


     Atoms inside the unit cell: 

     Cartesian axes

     site n.  atom      mass           positions (alat units)
        1     Si  28.0855   tau(    1) = (    0.00000    0.00000    0.00000  )
        2     Si  28.0855   tau(    2) = (   -0.25000    0.25000    0.25000  )

     Computing dynamical matrix for 
                    q = (   0.5000000  -0.5000000   0.5000000 )
 
     13 Sym.Ops. (with q -> -q+G )


     G cutoff = 1359.7127  (  52345 G-vectors)     FFT grid: ( 60, 60, 60)
     G cutoff =  543.8851  (  13323 G-vectors)  smooth grid: ( 36, 36, 36)
     number of k points=    26

     PseudoPot. # 1 for Si read from file:
     ./Si_LDA.UPF
     MD5 check sum: b5ade7b37ee992b02096e360e546dc2d
     Pseudo is Ultrasoft + core correction, Zval =  4.0
     Generated by new atomic code, or converted to UPF format
     Using radial grid of  899 points,  6 beta functions with: 
                l(1) =   0
                l(2) =   0
                l(3) =   1
                l(4) =   1
                l(5) =   2
                l(6) =   2
     Q(r) pseudized with  8 coefficients,  rinner =    0.900   0.900   0.900
                                                       0.900   0.900


     Atomic displacements:
     There are    4 irreducible representations

     Representation     1      1 modes -  To be done

     Representation     2      1 modes -  To be done

     Representation     3      2 modes -  To be done

     Representation     4      2 modes -  To be done



     Alpha used in Ewald sum =   2.8000
     PHONON       :   7m 4.78s CPU   7m25.41s WALL



     Representation #   1 mode #   1

     Self-consistent Calculation

      iter #   1 total cpu time :   449.1 secs   av.it.:   5.2
      thresh= 1.000E-02 alpha_mix =  0.700 |ddv_scf|^2 =  9.016E-07

      iter #   2 total cpu time :   453.6 secs   av.it.:  10.5
      thresh= 9.495E-05 alpha_mix =  0.700 |ddv_scf|^2 =  8.712E-07

      iter #   3 total cpu time :   458.0 secs   av.it.:   9.7
      thresh= 9.334E-05 alpha_mix =  0.700 |ddv_scf|^2 =  3.339E-10

      iter #   4 total cpu time :   462.6 secs   av.it.:  10.1
      thresh= 1.827E-06 alpha_mix =  0.700 |ddv_scf|^2 =  4.705E-12

      iter #   5 total cpu time :   467.0 secs   av.it.:   9.8
      thresh= 2.169E-07 alpha_mix =  0.700 |ddv_scf|^2 =  2.662E-14

      iter #   6 total cpu time :   471.4 secs   av.it.:  10.3
      thresh= 1.632E-08 alpha_mix =  0.700 |ddv_scf|^2 =  4.691E-16

      iter #   7 total cpu time :   475.8 secs   av.it.:  10.0
      thresh= 2.166E-09 alpha_mix =  0.700 |ddv_scf|^2 =  3.196E-18

     End of self-consistent calculation

     Convergence has been achieved 


     Representation #   2 mode #   2

     Self-consistent Calculation

      iter #   1 total cpu time :   479.9 secs   av.it.:   6.2
      thresh= 1.000E-02 alpha_mix =  0.700 |ddv_scf|^2 =  1.369E-05

      iter #   2 total cpu time :   484.4 secs   av.it.:  10.5
      thresh= 3.700E-04 alpha_mix =  0.700 |ddv_scf|^2 =  4.626E-05

      iter #   3 total cpu time :   488.7 secs   av.it.:   9.4
      thresh= 6.802E-04 alpha_mix =  0.700 |ddv_scf|^2 =  4.009E-09

      iter #   4 total cpu time :   493.2 secs   av.it.:  10.4
      thresh= 6.331E-06 alpha_mix =  0.700 |ddv_scf|^2 =  1.581E-10

      iter #   5 total cpu time :   497.7 secs   av.it.:  10.5
      thresh= 1.258E-06 alpha_mix =  0.700 |ddv_scf|^2 =  3.211E-12

      iter #   6 total cpu time :   502.2 secs   av.it.:  10.3
      thresh= 1.792E-07 alpha_mix =  0.700 |ddv_scf|^2 =  1.636E-13

      iter #   7 total cpu time :   506.6 secs   av.it.:  10.2
      thresh= 4.044E-08 alpha_mix =  0.700 |ddv_scf|^2 =  2.297E-17

     End of self-consistent calculation

     Convergence has been achieved 


     Representation #   3 modes #   3   4

     Self-consistent Calculation

      iter #   1 total cpu time :   513.0 secs   av.it.:   5.2
      thresh= 1.000E-02 alpha_mix =  0.700 |ddv_scf|^2 =  3.082E-08

      iter #   2 total cpu time :   520.7 secs   av.it.:  11.3
      thresh= 1.755E-05 alpha_mix =  0.700 |ddv_scf|^2 =  2.645E-09

      iter #   3 total cpu time :   528.4 secs   av.it.:  11.1
      thresh= 5.143E-06 alpha_mix =  0.700 |ddv_scf|^2 =  4.149E-11

      iter #   4 total cpu time :   536.1 secs   av.it.:  11.0
      thresh= 6.441E-07 alpha_mix =  0.700 |ddv_scf|^2 =  3.418E-14

      iter #   5 total cpu time :   543.9 secs   av.it.:  11.3
      thresh= 1.849E-08 alpha_mix =  0.700 |ddv_scf|^2 =  5.028E-16

      iter #   6 total cpu time :   551.9 secs   av.it.:  11.3
      thresh= 2.242E-09 alpha_mix =  0.700 |ddv_scf|^2 =  6.307E-18

     End of self-consistent calculation

     Convergence has been achieved 


     Representation #   4 modes #   5   6

     Self-consistent Calculation

      iter #   1 total cpu time :   558.4 secs   av.it.:   5.3
      thresh= 1.000E-02 alpha_mix =  0.700 |ddv_scf|^2 =  5.084E-09

      iter #   2 total cpu time :   566.3 secs   av.it.:  11.8
      thresh= 7.131E-06 alpha_mix =  0.700 |ddv_scf|^2 =  2.203E-10

      iter #   3 total cpu time :   574.3 secs   av.it.:  11.8
      thresh= 1.484E-06 alpha_mix =  0.700 |ddv_scf|^2 =  1.058E-11

      iter #   4 total cpu time :   582.2 secs   av.it.:  11.7
      thresh= 3.252E-07 alpha_mix =  0.700 |ddv_scf|^2 =  4.973E-14

      iter #   5 total cpu time :   590.2 secs   av.it.:  11.9
      thresh= 2.230E-08 alpha_mix =  0.700 |ddv_scf|^2 =  6.298E-16

      iter #   6 total cpu time :   598.2 secs   av.it.:  11.9
      thresh= 2.509E-09 alpha_mix =  0.700 |ddv_scf|^2 =  2.792E-18

     End of self-consistent calculation

     Convergence has been achieved 
 
     Number of q in the star =    4
     List of q in the star:
          1   0.500000000  -0.500000000   0.500000000
          2   0.500000000   0.500000000   0.500000000
          3  -0.500000000   0.500000000   0.500000000
          4   0.500000000   0.500000000  -0.500000000

     Diagonalizing the dynamical matrix

     q = (    0.500000000  -0.500000000   0.500000000 ) 

 **************************************************************************
     freq (    1) =       3.257947 [THz] =     108.673427 [cm-1]
     freq (    2) =       3.257947 [THz] =     108.673427 [cm-1]
     freq (    3) =      11.250406 [THz] =     375.273150 [cm-1]
     freq (    4) =      11.308847 [THz] =     377.222535 [cm-1]
     freq (    5) =      13.923814 [THz] =     464.448427 [cm-1]
     freq (    6) =      13.923814 [THz] =     464.448427 [cm-1]
 **************************************************************************

     Calculation of q =    0.0000000   0.5000000   0.0000000
 
     G-vector sticks info
     --------------------
     sticks:   dense  smooth     PW     G-vecs:    dense   smooth      PW
     Sum        1843     745    241                52345    13323    2421
 
     Using Slab Decomposition
 

     Title: 
     Phonons of Si                                                              


     bravais-lattice index     =            2
     lattice parameter (alat)  =      10.3614  a.u.
     unit-cell volume          =     278.0964 (a.u.)^3
     number of atoms/cell      =            2
     number of atomic types    =            1
     number of electrons       =         8.00
     number of Kohn-Sham states=            4
     kinetic-energy cutoff     =      50.0000  Ry
     charge density cutoff     =     500.0000  Ry
     Exchange-correlation= PZ
                           (   1   1   0   0   0   0   0)

     celldm(1)=  10.361400  celldm(2)=   0.000000  celldm(3)=   0.000000
     celldm(4)=   0.000000  celldm(5)=   0.000000  celldm(6)=   0.000000

     crystal axes: (cart. coord. in units of alat)
               a(1) = (  -0.500000   0.000000   0.500000 )  
               a(2) = (   0.000000   0.500000   0.500000 )  
               a(3) = (  -0.500000   0.500000   0.000000 )  

     reciprocal axes: (cart. coord. in units 2 pi/alat)
               b(1) = ( -1.000000 -1.000000  1.000000 )  
               b(2) = (  1.000000  1.000000  1.000000 )  
               b(3) = ( -1.000000  1.000000 -1.000000 )  


     PseudoPot. # 1 for Si read from file:
     ./Si_LDA.UPF
     MD5 check sum: b5ade7b37ee992b02096e360e546dc2d
     Pseudo is Ultrasoft + core correction, Zval =  4.0
     Generated by new atomic code, or converted to UPF format
     Using radial grid of  899 points,  6 beta functions with: 
                l(1) =   0
                l(2) =   0
                l(3) =   1
                l(4) =   1
                l(5) =   2
                l(6) =   2
     Q(r) pseudized with  8 coefficients,  rinner =    0.900   0.900   0.900
                                                       0.900   0.900

     atomic species   valence    mass     pseudopotential
        Si             4.00    28.08550     Si( 1.00)

     48 Sym. Ops., with inversion, found



   Cartesian axes

     site n.     atom                  positions (alat units)
         1           Si  tau(   1) = (   0.0000000   0.0000000   0.0000000  )
         2           Si  tau(   2) = (  -0.2500000   0.2500000   0.2500000  )

     number of k points=    36
                       cart. coord. in units 2pi/alat
        k(    1) = (   0.0000000   0.0000000   0.0000000), wk =   0.0312500
        k(    2) = (   0.0000000   0.5000000   0.0000000), wk =   0.0000000
        k(    3) = (  -0.2500000   0.2500000  -0.2500000), wk =   0.1250000
        k(    4) = (  -0.2500000   0.7500000  -0.2500000), wk =   0.0000000
        k(    5) = (   0.5000000  -0.5000000   0.5000000), wk =   0.1250000
        k(    6) = (   0.5000000   0.0000000   0.5000000), wk =   0.0000000
        k(    7) = (   0.0000000   0.5000000   0.0000000), wk =   0.0312500
        k(    8) = (   0.0000000   1.0000000   0.0000000), wk =   0.0000000
        k(    9) = (   0.7500000  -0.2500000   0.7500000), wk =   0.1250000
        k(   10) = (   0.7500000   0.2500000   0.7500000), wk =   0.0000000
        k(   11) = (   0.5000000   0.0000000   0.5000000), wk =   0.1250000
        k(   12) = (   0.5000000   0.5000000   0.5000000), wk =   0.0000000
        k(   13) = (   0.0000000  -1.0000000   0.0000000), wk =   0.0312500
        k(   14) = (   0.0000000  -0.5000000   0.0000000), wk =   0.0000000
        k(   15) = (  -0.5000000  -1.0000000   0.0000000), wk =   0.1250000
        k(   16) = (  -0.5000000  -0.5000000   0.0000000), wk =   0.0000000
        k(   17) = (   0.2500000  -0.2500000   0.2500000), wk =   0.1250000
        k(   18) = (   0.2500000   0.2500000   0.2500000), wk =   0.0000000
        k(   19) = (   0.0000000  -0.5000000   0.0000000), wk =   0.0312500
        k(   20) = (   0.0000000   0.0000000   0.0000000), wk =   0.0000000
        k(   21) = (   0.5000000   0.0000000   0.0000000), wk =   0.1250000
        k(   22) = (   0.5000000   0.5000000   0.0000000), wk =   0.0000000
        k(   23) = (  -0.7500000   0.2500000  -0.7500000), wk =   0.1250000
        k(   24) = (  -0.7500000   0.7500000  -0.7500000), wk =   0.0000000
        k(   25) = (  -0.2500000   0.7500000  -0.7500000), wk =   0.2500000
        k(   26) = (  -0.2500000   1.2500000  -0.7500000), wk =   0.0000000
        k(   27) = (  -0.2500000  -0.7500000  -0.7500000), wk =   0.2500000
        k(   28) = (  -0.2500000  -0.2500000  -0.7500000), wk =   0.0000000
        k(   29) = (   0.0000000   0.5000000  -0.5000000), wk =   0.1250000
        k(   30) = (   0.0000000   1.0000000  -0.5000000), wk =   0.0000000
        k(   31) = (   0.0000000  -0.5000000  -0.5000000), wk =   0.1250000
        k(   32) = (   0.0000000   0.0000000  -0.5000000), wk =   0.0000000
        k(   33) = (  -1.0000000   0.0000000   0.0000000), wk =   0.0625000
        k(   34) = (  -1.0000000   0.5000000   0.0000000), wk =   0.0000000
        k(   35) = (  -1.0000000  -0.5000000   0.0000000), wk =   0.0625000
        k(   36) = (  -1.0000000   0.0000000   0.0000000), wk =   0.0000000

     Dense  grid:    52345 G-vectors     FFT dimensions: (  60,  60,  60)

     Smooth grid:    13323 G-vectors     FFT dimensions: (  36,  36,  36)

     Estimated max dynamical RAM per process >     174.07 MB

     The potential is recalculated from file :
     ./_ph0/Si.save/charge-density

     Starting wfcs are    8 atomic wfcs

     Band Structure Calculation
     Davidson diagonalization with overlap

     ethr =  1.25E-10,  avg # of iterations = 12.8

     total cpu time spent up to now is       22.6 secs

     End of band structure calculation

          k = 0.0000 0.0000 0.0000 (  1639 PWs)   bands (ev):

    -6.0251   5.7565   5.7565   5.7565

          k = 0.0000 0.5000 0.0000 (  1636 PWs)   bands (ev):

    -4.9687   2.2135   3.9078   3.9078

          k =-0.2500 0.2500-0.2500 (  1654 PWs)   bands (ev):

    -5.2445   1.8507   5.0114   5.0114

          k =-0.2500 0.7500-0.2500 (  1661 PWs)   bands (ev):

    -3.3750  -0.5713   2.2755   3.5989

          k = 0.5000-0.5000 0.5000 (  1676 PWs)   bands (ev):

    -3.7554  -1.1209   4.5808   4.5808

          k = 0.5000 0.0000 0.5000 (  1658 PWs)   bands (ev):

    -4.0315   0.3081   2.0679   4.4558

          k = 0.0000 0.5000 0.0000 (  1636 PWs)   bands (ev):

    -4.9687   2.2135   3.9078   3.9078

          k = 0.0000 1.0000 0.0000 (  1660 PWs)   bands (ev):

    -1.9816  -1.9816   2.9659   2.9659

          k = 0.7500-0.2500 0.7500 (  1661 PWs)   bands (ev):

    -3.3750  -0.5713   2.2755   3.5989

          k = 0.7500 0.2500 0.7500 (  1661 PWs)   bands (ev):

    -3.3750  -0.5713   2.2755   3.5989

          k = 0.5000 0.0000 0.5000 (  1658 PWs)   bands (ev):

    -4.0315   0.3081   2.0679   4.4558

          k = 0.5000 0.5000 0.5000 (  1676 PWs)   bands (ev):

    -3.7554  -1.1209   4.5808   4.5808

          k = 0.0000-1.0000 0.0000 (  1660 PWs)   bands (ev):

    -1.9816  -1.9816   2.9659   2.9659

          k = 0.0000-0.5000 0.0000 (  1636 PWs)   bands (ev):

    -4.9687   2.2135   3.9078   3.9078

          k =-0.5000-1.0000 0.0000 (  1648 PWs)   bands (ev):

    -1.8259  -1.8259   1.9791   1.9791

          k =-0.5000-0.5000 0.0000 (  1658 PWs)   bands (ev):

    -4.0315   0.3081   2.0679   4.4558

          k = 0.2500-0.2500 0.2500 (  1654 PWs)   bands (ev):

    -5.2445   1.8507   5.0114   5.0114

          k = 0.2500 0.2500 0.2500 (  1654 PWs)   bands (ev):

    -5.2445   1.8507   5.0114   5.0114

          k = 0.0000-0.5000 0.0000 (  1636 PWs)   bands (ev):

    -4.9687   2.2135   3.9078   3.9078

          k = 0.0000 0.0000 0.0000 (  1639 PWs)   bands (ev):

    -6.0251   5.7565   5.7565   5.7565

          k = 0.5000 0.0000 0.0000 (  1636 PWs)   bands (ev):

    -4.9687   2.2135   3.9078   3.9078

          k = 0.5000 0.5000 0.0000 (  1658 PWs)   bands (ev):

    -4.0315   0.3081   2.0679   4.4558

          k =-0.7500 0.2500-0.7500 (  1661 PWs)   bands (ev):

    -3.3750  -0.5713   2.2755   3.5989

          k =-0.7500 0.7500-0.7500 (  1654 PWs)   bands (ev):

    -5.2445   1.8507   5.0114   5.0114

          k =-0.2500 0.7500-0.7500 (  1661 PWs)   bands (ev):

    -3.3750  -0.5713   2.2755   3.5989

          k =-0.2500 1.2500-0.7500 (  1661 PWs)   bands (ev):

    -3.3750  -0.5713   2.2755   3.5989

          k =-0.2500-0.7500-0.7500 (  1661 PWs)   bands (ev):

    -3.3750  -0.5713   2.2755   3.5989

          k =-0.2500-0.2500-0.7500 (  1661 PWs)   bands (ev):

    -3.3750  -0.5713   2.2755   3.5989

          k = 0.0000 0.5000-0.5000 (  1658 PWs)   bands (ev):

    -4.0315   0.3081   2.0679   4.4558

          k = 0.0000 1.0000-0.5000 (  1648 PWs)   bands (ev):

    -1.8259  -1.8259   1.9791   1.9791

          k = 0.0000-0.5000-0.5000 (  1658 PWs)   bands (ev):

    -4.0315   0.3081   2.0679   4.4558

          k = 0.0000 0.0000-0.5000 (  1636 PWs)   bands (ev):

    -4.9687   2.2135   3.9078   3.9078

          k =-1.0000 0.0000 0.0000 (  1660 PWs)   bands (ev):

    -1.9816  -1.9816   2.9659   2.9659

          k =-1.0000 0.5000 0.0000 (  1648 PWs)   bands (ev):

    -1.8259  -1.8259   1.9791   1.9791

          k =-1.0000-0.5000 0.0000 (  1648 PWs)   bands (ev):

    -1.8259  -1.8259   1.9791   1.9791

          k =-1.0000 0.0000 0.0000 (  1660 PWs)   bands (ev):

    -1.9816  -1.9816   2.9659   2.9659

     highest occupied level (ev):     5.7565

     Writing config to output data dir ./_ph0/Si.save/

     Phonons of Si                                                              

     bravais-lattice index     =            2
     lattice parameter (alat)  =      10.3614  a.u.
     unit-cell volume          =     278.0964 (a.u.)^3
     number of atoms/cell      =            2
     number of atomic types    =            1
     kinetic-energy cut-off    =      50.0000  Ry
     charge density cut-off    =     500.0000  Ry
     convergence threshold     =      1.0E-16
     beta                      =       0.7000
     number of iterations used =            4
     Exchange-correlation= PZ
                           (   1   1   0   0   0   0   0)


     celldm(1)=   10.36140  celldm(2)=    0.00000  celldm(3)=    0.00000
     celldm(4)=    0.00000  celldm(5)=    0.00000  celldm(6)=    0.00000

     crystal axes: (cart. coord. in units of alat)
               a(1) = ( -0.5000  0.0000  0.5000 )  
               a(2) = (  0.0000  0.5000  0.5000 )  
               a(3) = ( -0.5000  0.5000  0.0000 )  

     reciprocal axes: (cart. coord. in units 2 pi/alat)
               b(1) = ( -1.0000 -1.0000  1.0000 )  
               b(2) = (  1.0000  1.0000  1.0000 )  
               b(3) = ( -1.0000  1.0000 -1.0000 )  


     Atoms inside the unit cell: 

     Cartesian axes

     site n.  atom      mass           positions (alat units)
        1     Si  28.0855   tau(    1) = (    0.00000    0.00000    0.00000  )
        2     Si  28.0855   tau(    2) = (   -0.25000    0.25000    0.25000  )

     Computing dynamical matrix for 
                    q = (   0.0000000   0.5000000   0.0000000 )
 
      8 Sym.Ops. (no q -> -q+G )


     G cutoff = 1359.7127  (  52345 G-vectors)     FFT grid: ( 60, 60, 60)
     G cutoff =  543.8851  (  13323 G-vectors)  smooth grid: ( 36, 36, 36)
     number of k points=    36

     PseudoPot. # 1 for Si read from file:
     ./Si_LDA.UPF
     MD5 check sum: b5ade7b37ee992b02096e360e546dc2d
     Pseudo is Ultrasoft + core correction, Zval =  4.0
     Generated by new atomic code, or converted to UPF format
     Using radial grid of  899 points,  6 beta functions with: 
                l(1) =   0
                l(2) =   0
                l(3) =   1
                l(4) =   1
                l(5) =   2
                l(6) =   2
     Q(r) pseudized with  8 coefficients,  rinner =    0.900   0.900   0.900
                                                       0.900   0.900

     Mode symmetry, C_4v (4mm)  point group:


     Atomic displacements:
     There are    4 irreducible representations

     Representation     1      1 modes -  To be done

     Representation     2      1 modes -  To be done

     Representation     3      2 modes -  To be done

     Representation     4      2 modes -  To be done



     Alpha used in Ewald sum =   2.8000
     PHONON       :   9m54.95s CPU  10m22.36s WALL



     Representation #   1 mode #   1

     Self-consistent Calculation

      iter #   1 total cpu time :   626.6 secs   av.it.:   6.2
      thresh= 1.000E-02 alpha_mix =  0.700 |ddv_scf|^2 =  1.062E-04

      iter #   2 total cpu time :   631.6 secs   av.it.:  10.1
      thresh= 1.031E-03 alpha_mix =  0.700 |ddv_scf|^2 =  1.337E-03

      iter #   3 total cpu time :   636.2 secs   av.it.:   8.3
      thresh= 3.657E-03 alpha_mix =  0.700 |ddv_scf|^2 =  2.516E-09

      iter #   4 total cpu time :   641.3 secs   av.it.:  10.3
      thresh= 5.016E-06 alpha_mix =  0.700 |ddv_scf|^2 =  4.162E-10

      iter #   5 total cpu time :   646.3 secs   av.it.:  10.1
      thresh= 2.040E-06 alpha_mix =  0.700 |ddv_scf|^2 =  4.956E-11

      iter #   6 total cpu time :   651.2 secs   av.it.:   9.7
      thresh= 7.040E-07 alpha_mix =  0.700 |ddv_scf|^2 =  3.584E-14

      iter #   7 total cpu time :   656.2 secs   av.it.:  10.3
      thresh= 1.893E-08 alpha_mix =  0.700 |ddv_scf|^2 =  5.141E-15

      iter #   8 total cpu time :   660.9 secs   av.it.:   9.1
      thresh= 7.170E-09 alpha_mix =  0.700 |ddv_scf|^2 =  7.188E-18

     End of self-consistent calculation

     Convergence has been achieved 


     Representation #   2 mode #   2

     Self-consistent Calculation

      iter #   1 total cpu time :   665.3 secs   av.it.:   5.5
      thresh= 1.000E-02 alpha_mix =  0.700 |ddv_scf|^2 =  1.771E-07

      iter #   2 total cpu time :   670.5 secs   av.it.:  10.8
      thresh= 4.208E-05 alpha_mix =  0.700 |ddv_scf|^2 =  5.605E-08

      iter #   3 total cpu time :   675.6 secs   av.it.:  10.7
      thresh= 2.367E-05 alpha_mix =  0.700 |ddv_scf|^2 =  4.671E-10

      iter #   4 total cpu time :   680.7 secs   av.it.:  10.7
      thresh= 2.161E-06 alpha_mix =  0.700 |ddv_scf|^2 =  2.482E-11

      iter #   5 total cpu time :   685.9 secs   av.it.:  10.8
      thresh= 4.982E-07 alpha_mix =  0.700 |ddv_scf|^2 =  3.786E-14

      iter #   6 total cpu time :   691.1 secs   av.it.:  10.9
      thresh= 1.946E-08 alpha_mix =  0.700 |ddv_scf|^2 =  1.280E-15

      iter #   7 total cpu time :   696.2 secs   av.it.:  10.4
      thresh= 3.578E-09 alpha_mix =  0.700 |ddv_scf|^2 =  1.768E-17

     End of self-consistent calculation

     Convergence has been achieved 


     Representation #   3 modes #   3   4

     Self-consistent Calculation

      iter #   1 total cpu time :   703.5 secs   av.it.:   5.6
      thresh= 1.000E-02 alpha_mix =  0.700 |ddv_scf|^2 =  2.504E-08

      iter #   2 total cpu time :   712.8 secs   av.it.:  11.9
      thresh= 1.582E-05 alpha_mix =  0.700 |ddv_scf|^2 =  3.765E-09

      iter #   3 total cpu time :   722.1 secs   av.it.:  11.6
      thresh= 6.136E-06 alpha_mix =  0.700 |ddv_scf|^2 =  4.675E-11

      iter #   4 total cpu time :   731.4 secs   av.it.:  11.7
      thresh= 6.838E-07 alpha_mix =  0.700 |ddv_scf|^2 =  1.181E-13

      iter #   5 total cpu time :   740.8 secs   av.it.:  11.9
      thresh= 3.437E-08 alpha_mix =  0.700 |ddv_scf|^2 =  2.541E-15

      iter #   6 total cpu time :   750.2 secs   av.it.:  12.0
      thresh= 5.041E-09 alpha_mix =  0.700 |ddv_scf|^2 =  2.442E-17

     End of self-consistent calculation

     Convergence has been achieved 


     Representation #   4 modes #   5   6

     Self-consistent Calculation

      iter #   1 total cpu time :   757.7 secs   av.it.:   5.6
      thresh= 1.000E-02 alpha_mix =  0.700 |ddv_scf|^2 =  3.664E-08

      iter #   2 total cpu time :   767.2 secs   av.it.:  11.8
      thresh= 1.914E-05 alpha_mix =  0.700 |ddv_scf|^2 =  5.613E-09

      iter #   3 total cpu time :   776.4 secs   av.it.:  11.5
      thresh= 7.492E-06 alpha_mix =  0.700 |ddv_scf|^2 =  4.925E-11

      iter #   4 total cpu time :   785.7 secs   av.it.:  11.6
      thresh= 7.018E-07 alpha_mix =  0.700 |ddv_scf|^2 =  1.089E-13

      iter #   5 total cpu time :   795.2 secs   av.it.:  11.9
      thresh= 3.300E-08 alpha_mix =  0.700 |ddv_scf|^2 =  2.581E-15

      iter #   6 total cpu time :   804.6 secs   av.it.:  12.0
      thresh= 5.081E-09 alpha_mix =  0.700 |ddv_scf|^2 =  2.226E-17

     End of self-consistent calculation

     Convergence has been achieved 
 
     Number of q in the star =    6
     List of q in the star:
          1   0.000000000   0.500000000   0.000000000
          2   0.000000000  -0.500000000   0.000000000
          3   0.500000000   0.000000000   0.000000000
          4   0.000000000   0.000000000   0.500000000
          5   0.000000000   0.000000000  -0.500000000
          6  -0.500000000   0.000000000   0.000000000

     Diagonalizing the dynamical matrix

     q = (    0.000000000   0.500000000   0.000000000 ) 

 **************************************************************************
     freq (    1) =       3.811324 [THz] =     127.132071 [cm-1]
     freq (    2) =       3.811324 [THz] =     127.132071 [cm-1]
     freq (    3) =       6.875629 [THz] =     229.346290 [cm-1]
     freq (    4) =      13.566430 [THz] =     452.527402 [cm-1]
     freq (    5) =      13.566430 [THz] =     452.527402 [cm-1]
     freq (    6) =      14.373495 [THz] =     479.448180 [cm-1]
 **************************************************************************

     Mode symmetry, C_4v (4mm)  point group:

     freq (   1-   2) =        127.1  [cm-1]   --> E    G_5 D_5       
     freq (   3-   3) =        229.3  [cm-1]   --> A_1  G_1 D_1       
     freq (   4-   5) =        452.5  [cm-1]   --> E    G_5 D_5       
     freq (   6-   6) =        479.4  [cm-1]   --> B_2  G_4 D_2'      

     Calculation of q =    0.7500000  -0.2500000   0.7500000
 
     G-vector sticks info
     --------------------
     sticks:   dense  smooth     PW     G-vecs:    dense   smooth      PW
     Sum        1843     745    253                52345    13323    2733
 
     Using Slab Decomposition
 

     Title: 
     Phonons of Si                                                              


     bravais-lattice index     =            2
     lattice parameter (alat)  =      10.3614  a.u.
     unit-cell volume          =     278.0964 (a.u.)^3
     number of atoms/cell      =            2
     number of atomic types    =            1
     number of electrons       =         8.00
     number of Kohn-Sham states=            4
     kinetic-energy cutoff     =      50.0000  Ry
     charge density cutoff     =     500.0000  Ry
     Exchange-correlation= PZ
                           (   1   1   0   0   0   0   0)

     celldm(1)=  10.361400  celldm(2)=   0.000000  celldm(3)=   0.000000
     celldm(4)=   0.000000  celldm(5)=   0.000000  celldm(6)=   0.000000

     crystal axes: (cart. coord. in units of alat)
               a(1) = (  -0.500000   0.000000   0.500000 )  
               a(2) = (   0.000000   0.500000   0.500000 )  
               a(3) = (  -0.500000   0.500000   0.000000 )  

     reciprocal axes: (cart. coord. in units 2 pi/alat)
               b(1) = ( -1.000000 -1.000000  1.000000 )  
               b(2) = (  1.000000  1.000000  1.000000 )  
               b(3) = ( -1.000000  1.000000 -1.000000 )  


     PseudoPot. # 1 for Si read from file:
     ./Si_LDA.UPF
     MD5 check sum: b5ade7b37ee992b02096e360e546dc2d
     Pseudo is Ultrasoft + core correction, Zval =  4.0
     Generated by new atomic code, or converted to UPF format
     Using radial grid of  899 points,  6 beta functions with: 
                l(1) =   0
                l(2) =   0
                l(3) =   1
                l(4) =   1
                l(5) =   2
                l(6) =   2
     Q(r) pseudized with  8 coefficients,  rinner =    0.900   0.900   0.900
                                                       0.900   0.900

     atomic species   valence    mass     pseudopotential
        Si             4.00    28.08550     Si( 1.00)

     48 Sym. Ops., with inversion, found



   Cartesian axes

     site n.     atom                  positions (alat units)
         1           Si  tau(   1) = (   0.0000000   0.0000000   0.0000000  )
         2           Si  tau(   2) = (  -0.2500000   0.2500000   0.2500000  )

     number of k points=    80
                       cart. coord. in units 2pi/alat
        k(    1) = (   0.0000000   0.0000000   0.0000000), wk =   0.0312500
        k(    2) = (   0.7500000  -0.2500000   0.7500000), wk =   0.0000000
        k(    3) = (  -0.2500000   0.2500000  -0.2500000), wk =   0.0312500
        k(    4) = (   0.5000000   0.0000000   0.5000000), wk =   0.0000000
        k(    5) = (   0.5000000  -0.5000000   0.5000000), wk =   0.0312500
        k(    6) = (   1.2500000  -0.7500000   1.2500000), wk =   0.0000000
        k(    7) = (   0.0000000   0.5000000   0.0000000), wk =   0.0312500
        k(    8) = (   0.7500000   0.2500000   0.7500000), wk =   0.0000000
        k(    9) = (   0.7500000  -0.2500000   0.7500000), wk =   0.0312500
        k(   10) = (   1.5000000  -0.5000000   1.5000000), wk =   0.0000000
        k(   11) = (   0.5000000   0.0000000   0.5000000), wk =   0.0312500
        k(   12) = (   1.2500000  -0.2500000   1.2500000), wk =   0.0000000
        k(   13) = (   0.0000000  -1.0000000   0.0000000), wk =   0.0312500
        k(   14) = (   0.7500000  -1.2500000   0.7500000), wk =   0.0000000
        k(   15) = (  -0.5000000  -1.0000000   0.0000000), wk =   0.0625000
        k(   16) = (   0.2500000  -1.2500000   0.7500000), wk =   0.0000000
        k(   17) = (  -0.2500000   0.2500000   0.2500000), wk =   0.0625000
        k(   18) = (   0.5000000   0.0000000   1.0000000), wk =   0.0000000
        k(   19) = (   0.2500000   0.2500000   0.2500000), wk =   0.0312500
        k(   20) = (   1.0000000   0.0000000   1.0000000), wk =   0.0000000
        k(   21) = (   0.2500000  -0.2500000   0.2500000), wk =   0.0312500
        k(   22) = (   1.0000000  -0.5000000   1.0000000), wk =   0.0000000
        k(   23) = (  -0.2500000  -0.2500000  -0.2500000), wk =   0.0312500
        k(   24) = (   0.5000000  -0.5000000   0.5000000), wk =   0.0000000
        k(   25) = (   0.2500000  -0.2500000  -0.2500000), wk =   0.0625000
        k(   26) = (   1.0000000  -0.5000000   0.5000000), wk =   0.0000000
        k(   27) = (   0.5000000  -0.5000000  -0.5000000), wk =   0.0625000
        k(   28) = (   1.2500000  -0.7500000   0.2500000), wk =   0.0000000
        k(   29) = (  -0.5000000  -0.5000000  -0.5000000), wk =   0.0312500
        k(   30) = (   0.2500000  -0.7500000   0.2500000), wk =   0.0000000
        k(   31) = (   0.0000000  -0.5000000   0.0000000), wk =   0.0312500
        k(   32) = (   0.7500000  -0.7500000   0.7500000), wk =   0.0000000
        k(   33) = (   0.5000000   0.0000000   0.0000000), wk =   0.0625000
        k(   34) = (   1.2500000  -0.2500000   0.7500000), wk =   0.0000000
        k(   35) = (   0.0000000   0.0000000  -0.5000000), wk =   0.0625000
        k(   36) = (   0.7500000  -0.2500000   0.2500000), wk =   0.0000000
        k(   37) = (   0.7500000  -0.2500000  -0.7500000), wk =   0.0625000
        k(   38) = (   1.5000000  -0.5000000   0.0000000), wk =   0.0000000
        k(   39) = (  -0.7500000  -0.2500000  -0.7500000), wk =   0.0312500
        k(   40) = (   0.0000000  -0.5000000   0.0000000), wk =   0.0000000
        k(   41) = (  -0.7500000   0.2500000  -0.7500000), wk =   0.0312500
        k(   42) = (   0.0000000   0.0000000   0.0000000), wk =   0.0000000
        k(   43) = (  -0.2500000   0.7500000  -0.7500000), wk =   0.0625000
        k(   44) = (   0.5000000   0.5000000   0.0000000), wk =   0.0000000
        k(   45) = (   0.7500000   0.2500000   0.7500000), wk =   0.0312500
        k(   46) = (   1.5000000   0.0000000   1.5000000), wk =   0.0000000
        k(   47) = (  -0.7500000   0.2500000   0.7500000), wk =   0.0625000
        k(   48) = (   0.0000000   0.0000000   1.5000000), wk =   0.0000000
        k(   49) = (  -0.7500000   0.7500000   0.2500000), wk =   0.0625000
        k(   50) = (   0.0000000   0.5000000   1.0000000), wk =   0.0000000
        k(   51) = (  -0.2500000   0.7500000   0.7500000), wk =   0.0625000
        k(   52) = (   0.5000000   0.5000000   1.5000000), wk =   0.0000000
        k(   53) = (  -0.2500000  -0.7500000  -0.7500000), wk =   0.0625000
        k(   54) = (   0.5000000  -1.0000000   0.0000000), wk =   0.0000000
        k(   55) = (   0.7500000  -0.7500000   0.2500000), wk =   0.0625000
        k(   56) = (   1.5000000  -1.0000000   1.0000000), wk =   0.0000000
        k(   57) = (  -0.7500000  -0.7500000   0.2500000), wk =   0.0625000
        k(   58) = (   0.0000000  -1.0000000   1.0000000), wk =   0.0000000
        k(   59) = (   0.2500000   0.7500000   0.7500000), wk =   0.0625000
        k(   60) = (   1.0000000   0.5000000   1.5000000), wk =   0.0000000
        k(   61) = (  -0.2500000  -0.7500000   0.7500000), wk =   0.0625000
        k(   62) = (   0.5000000  -1.0000000   1.5000000), wk =   0.0000000
        k(   63) = (   0.5000000   0.0000000  -0.5000000), wk =   0.0625000
        k(   64) = (   1.2500000  -0.2500000   0.2500000), wk =   0.0000000
        k(   65) = (  -0.5000000   0.0000000  -0.5000000), wk =   0.0312500
        k(   66) = (   0.2500000  -0.2500000   0.2500000), wk =   0.0000000
        k(   67) = (   0.0000000   0.5000000  -0.5000000), wk =   0.0625000
        k(   68) = (   0.7500000   0.2500000   0.2500000), wk =   0.0000000
        k(   69) = (   0.0000000   0.5000000   0.5000000), wk =   0.0625000
        k(   70) = (   0.7500000   0.2500000   1.2500000), wk =   0.0000000
        k(   71) = (   0.0000000  -0.5000000  -0.5000000), wk =   0.0625000
        k(   72) = (   0.7500000  -0.7500000   0.2500000), wk =   0.0000000
        k(   73) = (   0.5000000  -0.5000000   0.0000000), wk =   0.0625000
        k(   74) = (   1.2500000  -0.7500000   0.7500000), wk =   0.0000000
        k(   75) = (  -1.0000000   0.0000000   0.0000000), wk =   0.0625000
        k(   76) = (  -0.2500000  -0.2500000   0.7500000), wk =   0.0000000
        k(   77) = (   0.5000000  -1.0000000   0.0000000), wk =   0.0625000
        k(   78) = (   1.2500000  -1.2500000   0.7500000), wk =   0.0000000
        k(   79) = (  -1.0000000  -0.5000000   0.0000000), wk =   0.0625000
        k(   80) = (  -0.2500000  -0.7500000   0.7500000), wk =   0.0000000

     Dense  grid:    52345 G-vectors     FFT dimensions: (  60,  60,  60)

     Smooth grid:    13323 G-vectors     FFT dimensions: (  36,  36,  36)

     Estimated max dynamical RAM per process >     174.10 MB

     The potential is recalculated from file :
     ./_ph0/Si.save/charge-density

     Starting wfcs are    8 atomic wfcs

     Band Structure Calculation
     Davidson diagonalization with overlap

     ethr =  1.25E-10,  avg # of iterations = 12.9

     total cpu time spent up to now is       38.1 secs

     End of band structure calculation

          k = 0.0000 0.0000 0.0000 (  1639 PWs)   bands (ev):

    -6.0251   5.7565   5.7565   5.7565

          k = 0.7500-0.2500 0.7500 (  1661 PWs)   bands (ev):

    -3.3750  -0.5713   2.2755   3.5989

          k =-0.2500 0.2500-0.2500 (  1654 PWs)   bands (ev):

    -5.2445   1.8507   5.0114   5.0114

          k = 0.5000 0.0000 0.5000 (  1658 PWs)   bands (ev):

    -4.0315   0.3081   2.0679   4.4558

          k = 0.5000-0.5000 0.5000 (  1676 PWs)   bands (ev):

    -3.7554  -1.1209   4.5808   4.5808

          k = 1.2500-0.7500 1.2500 (  1654 PWs)   bands (ev):

    -5.2445   1.8507   5.0114   5.0114

          k = 0.0000 0.5000 0.0000 (  1636 PWs)   bands (ev):

    -4.9687   2.2135   3.9078   3.9078

          k = 0.7500 0.2500 0.7500 (  1661 PWs)   bands (ev):

    -3.3750  -0.5713   2.2755   3.5989

          k = 0.7500-0.2500 0.7500 (  1661 PWs)   bands (ev):

    -3.3750  -0.5713   2.2755   3.5989

          k = 1.5000-0.5000 1.5000 (  1676 PWs)   bands (ev):

    -3.7554  -1.1209   4.5808   4.5808

          k = 0.5000 0.0000 0.5000 (  1658 PWs)   bands (ev):

    -4.0315   0.3081   2.0679   4.4558

          k = 1.2500-0.2500 1.2500 (  1661 PWs)   bands (ev):

    -3.3750  -0.5713   2.2755   3.5989

          k = 0.0000-1.0000 0.0000 (  1660 PWs)   bands (ev):

    -1.9816  -1.9816   2.9659   2.9659

          k = 0.7500-1.2500 0.7500 (  1654 PWs)   bands (ev):

    -5.2445   1.8507   5.0114   5.0114

          k =-0.5000-1.0000 0.0000 (  1648 PWs)   bands (ev):

    -1.8259  -1.8259   1.9791   1.9791

          k = 0.2500-1.2500 0.7500 (  1661 PWs)   bands (ev):

    -3.3750  -0.5713   2.2755   3.5989

          k =-0.2500 0.2500 0.2500 (  1654 PWs)   bands (ev):

    -5.2445   1.8507   5.0114   5.0114

          k = 0.5000 0.0000 1.0000 (  1648 PWs)   bands (ev):

    -1.8259  -1.8259   1.9791   1.9791

          k = 0.2500 0.2500 0.2500 (  1654 PWs)   bands (ev):

    -5.2445   1.8507   5.0114   5.0114

          k = 1.0000 0.0000 1.0000 (  1660 PWs)   bands (ev):

    -1.9816  -1.9816   2.9659   2.9659

          k = 0.2500-0.2500 0.2500 (  1654 PWs)   bands (ev):

    -5.2445   1.8507   5.0114   5.0114

          k = 1.0000-0.5000 1.0000 (  1636 PWs)   bands (ev):

    -4.9687   2.2135   3.9078   3.9078

          k =-0.2500-0.2500-0.2500 (  1654 PWs)   bands (ev):

    -5.2445   1.8507   5.0114   5.0114

          k = 0.5000-0.5000 0.5000 (  1676 PWs)   bands (ev):

    -3.7554  -1.1209   4.5808   4.5808

          k = 0.2500-0.2500-0.2500 (  1654 PWs)   bands (ev):

    -5.2445   1.8507   5.0114   5.0114

          k = 1.0000-0.5000 0.5000 (  1658 PWs)   bands (ev):

    -4.0315   0.3081   2.0679   4.4558

          k = 0.5000-0.5000-0.5000 (  1676 PWs)   bands (ev):

    -3.7554  -1.1209   4.5808   4.5808

          k = 1.2500-0.7500 0.2500 (  1661 PWs)   bands (ev):

    -3.3750  -0.5713   2.2755   3.5989

          k =-0.5000-0.5000-0.5000 (  1676 PWs)   bands (ev):

    -3.7554  -1.1209   4.5808   4.5808

          k = 0.2500-0.7500 0.2500 (  1661 PWs)   bands (ev):

    -3.3750  -0.5713   2.2755   3.5989

          k = 0.0000-0.5000 0.0000 (  1636 PWs)   bands (ev):

    -4.9687   2.2135   3.9078   3.9078

          k = 0.7500-0.7500 0.7500 (  1654 PWs)   bands (ev):

    -5.2445   1.8507   5.0114   5.0114

          k = 0.5000 0.0000 0.0000 (  1636 PWs)   bands (ev):

    -4.9687   2.2135   3.9078   3.9078

          k = 1.2500-0.2500 0.7500 (  1661 PWs)   bands (ev):

    -3.3750  -0.5713   2.2755   3.5989

          k = 0.0000 0.0000-0.5000 (  1636 PWs)   bands (ev):

    -4.9687   2.2135   3.9078   3.9078

          k = 0.7500-0.2500 0.2500 (  1661 PWs)   bands (ev):

    -3.3750  -0.5713   2.2755   3.5989

          k = 0.7500-0.2500-0.7500 (  1661 PWs)   bands (ev):

    -3.3750  -0.5713   2.2755   3.5989

          k = 1.5000-0.5000 0.0000 (  1658 PWs)   bands (ev):

    -4.0315   0.3081   2.0679   4.4558

          k =-0.7500-0.2500-0.7500 (  1661 PWs)   bands (ev):

    -3.3750  -0.5713   2.2755   3.5989

          k = 0.0000-0.5000 0.0000 (  1636 PWs)   bands (ev):

    -4.9687   2.2135   3.9078   3.9078

          k =-0.7500 0.2500-0.7500 (  1661 PWs)   bands (ev):

    -3.3750  -0.5713   2.2755   3.5989

          k = 0.0000 0.0000 0.0000 (  1639 PWs)   bands (ev):

    -6.0251   5.7565   5.7565   5.7565

          k =-0.2500 0.7500-0.7500 (  1661 PWs)   bands (ev):

    -3.3750  -0.5713   2.2755   3.5989

          k = 0.5000 0.5000 0.0000 (  1658 PWs)   bands (ev):

    -4.0315   0.3081   2.0679   4.4558

          k = 0.7500 0.2500 0.7500 (  1661 PWs)   bands (ev):

    -3.3750  -0.5713   2.2755   3.5989

          k = 1.5000 0.0000 1.5000 (  1658 PWs)   bands (ev):

    -4.0315   0.3081   2.0679   4.4558

          k =-0.7500 0.2500 0.7500 (  1661 PWs)   bands (ev):

    -3.3750  -0.5713   2.2755   3.5989

          k = 0.0000 0.0000 1.5000 (  1636 PWs)   bands (ev):

    -4.9687   2.2135   3.9078   3.9078

          k =-0.7500 0.7500 0.2500 (  1661 PWs)   bands (ev):

    -3.3750  -0.5713   2.2755   3.5989

[...]
     Q(r) pseudized with  8 coefficients,  rinner =    0.900   0.900   0.900
                                                       0.900   0.900

     atomic species   valence    mass     pseudopotential
        Si             4.00    28.08550     Si( 1.00)

     48 Sym. Ops., with inversion, found



   Cartesian axes

     site n.     atom                  positions (alat units)
         1           Si  tau(   1) = (   0.0000000   0.0000000   0.0000000  )
         2           Si  tau(   2) = (  -0.2500000   0.2500000   0.2500000  )

     number of k points=    32
                       cart. coord. in units 2pi/alat
        k(    1) = (   0.0000000   0.0000000   0.0000000), wk =   0.0312500
        k(    2) = (  -0.5000000  -1.0000000   0.0000000), wk =   0.0000000
        k(    3) = (  -0.2500000   0.2500000  -0.2500000), wk =   0.2500000
        k(    4) = (  -0.7500000  -0.7500000  -0.2500000), wk =   0.0000000
        k(    5) = (   0.5000000  -0.5000000   0.5000000), wk =   0.1250000
        k(    6) = (   0.0000000  -1.5000000   0.5000000), wk =   0.0000000
        k(    7) = (   0.0000000   0.5000000   0.0000000), wk =   0.1250000
        k(    8) = (  -0.5000000  -0.5000000   0.0000000), wk =   0.0000000
        k(    9) = (   0.7500000  -0.2500000   0.7500000), wk =   0.2500000
        k(   10) = (   0.2500000  -1.2500000   0.7500000), wk =   0.0000000
        k(   11) = (   0.5000000   0.0000000   0.5000000), wk =   0.1250000
        k(   12) = (   0.0000000  -1.0000000   0.5000000), wk =   0.0000000
        k(   13) = (   0.0000000  -1.0000000   0.0000000), wk =   0.0625000
        k(   14) = (  -0.5000000  -2.0000000   0.0000000), wk =   0.0000000
        k(   15) = (  -0.5000000  -1.0000000   0.0000000), wk =   0.0312500
        k(   16) = (  -1.0000000  -2.0000000   0.0000000), wk =   0.0000000
        k(   17) = (   0.5000000   0.0000000   0.0000000), wk =   0.0625000
        k(   18) = (   0.0000000  -1.0000000   0.0000000), wk =   0.0000000
        k(   19) = (  -0.7500000   0.2500000  -0.7500000), wk =   0.2500000
        k(   20) = (  -1.2500000  -0.7500000  -0.7500000), wk =   0.0000000
        k(   21) = (  -0.2500000   0.7500000   0.7500000), wk =   0.2500000
        k(   22) = (  -0.7500000  -0.2500000   0.7500000), wk =   0.0000000
        k(   23) = (  -0.5000000   0.0000000  -0.5000000), wk =   0.1250000
        k(   24) = (  -1.0000000  -1.0000000  -0.5000000), wk =   0.0000000
        k(   25) = (   0.0000000   0.5000000   0.5000000), wk =   0.1250000
        k(   26) = (  -0.5000000  -0.5000000   0.5000000), wk =   0.0000000
        k(   27) = (  -1.0000000   0.0000000   0.0000000), wk =   0.0312500
        k(   28) = (  -1.5000000  -1.0000000   0.0000000), wk =   0.0000000
        k(   29) = (   0.0000000   1.0000000   0.5000000), wk =   0.1250000
        k(   30) = (  -0.5000000   0.0000000   0.5000000), wk =   0.0000000
        k(   31) = (   0.5000000   1.0000000   0.0000000), wk =   0.0312500
        k(   32) = (   0.0000000   0.0000000   0.0000000), wk =   0.0000000

     Dense  grid:    52345 G-vectors     FFT dimensions: (  60,  60,  60)

     Smooth grid:    13323 G-vectors     FFT dimensions: (  36,  36,  36)

     Estimated max dynamical RAM per process >     174.10 MB

     The potential is recalculated from file :
     ./_ph0/Si.save/charge-density

     Starting wfcs are    8 atomic wfcs

     Band Structure Calculation
     Davidson diagonalization with overlap

     ethr =  1.25E-10,  avg # of iterations = 12.6

     total cpu time spent up to now is       61.5 secs

     End of band structure calculation

          k = 0.0000 0.0000 0.0000 (  1639 PWs)   bands (ev):

    -6.0251   5.7565   5.7565   5.7565

          k =-0.5000-1.0000 0.0000 (  1648 PWs)   bands (ev):

    -1.8259  -1.8259   1.9791   1.9791

          k =-0.2500 0.2500-0.2500 (  1654 PWs)   bands (ev):

    -5.2445   1.8507   5.0114   5.0114

          k =-0.7500-0.7500-0.2500 (  1661 PWs)   bands (ev):

    -3.3750  -0.5713   2.2755   3.5989

          k = 0.5000-0.5000 0.5000 (  1676 PWs)   bands (ev):

    -3.7554  -1.1209   4.5808   4.5808

          k = 0.0000-1.5000 0.5000 (  1658 PWs)   bands (ev):

    -4.0315   0.3081   2.0679   4.4558

          k = 0.0000 0.5000 0.0000 (  1636 PWs)   bands (ev):

    -4.9687   2.2135   3.9078   3.9078

          k =-0.5000-0.5000 0.0000 (  1658 PWs)   bands (ev):

    -4.0315   0.3081   2.0679   4.4558

          k = 0.7500-0.2500 0.7500 (  1661 PWs)   bands (ev):

    -3.3750  -0.5713   2.2755   3.5989

          k = 0.2500-1.2500 0.7500 (  1661 PWs)   bands (ev):

    -3.3750  -0.5713   2.2755   3.5989

          k = 0.5000 0.0000 0.5000 (  1658 PWs)   bands (ev):

    -4.0315   0.3081   2.0679   4.4558

          k = 0.0000-1.0000 0.5000 (  1648 PWs)   bands (ev):

    -1.8259  -1.8259   1.9791   1.9791

          k = 0.0000-1.0000 0.0000 (  1660 PWs)   bands (ev):

    -1.9816  -1.9816   2.9659   2.9659

          k =-0.5000-2.0000 0.0000 (  1636 PWs)   bands (ev):

    -4.9687   2.2135   3.9078   3.9078

          k =-0.5000-1.0000 0.0000 (  1648 PWs)   bands (ev):

    -1.8259  -1.8259   1.9791   1.9791

          k =-1.0000-2.0000 0.0000 (  1660 PWs)   bands (ev):

    -1.9816  -1.9816   2.9659   2.9659

          k = 0.5000 0.0000 0.0000 (  1636 PWs)   bands (ev):

    -4.9687   2.2135   3.9078   3.9078

          k = 0.0000-1.0000 0.0000 (  1660 PWs)   bands (ev):

    -1.9816  -1.9816   2.9659   2.9659

          k =-0.7500 0.2500-0.7500 (  1661 PWs)   bands (ev):

    -3.3750  -0.5713   2.2755   3.5989

          k =-1.2500-0.7500-0.7500 (  1654 PWs)   bands (ev):

    -5.2445   1.8507   5.0114   5.0114

          k =-0.2500 0.7500 0.7500 (  1661 PWs)   bands (ev):

    -3.3750  -0.5713   2.2755   3.5989

          k =-0.7500-0.2500 0.7500 (  1661 PWs)   bands (ev):

    -3.3750  -0.5713   2.2755   3.5989

          k =-0.5000 0.0000-0.5000 (  1658 PWs)   bands (ev):

    -4.0315   0.3081   2.0679   4.4558

          k =-1.0000-1.0000-0.5000 (  1636 PWs)   bands (ev):

    -4.9687   2.2135   3.9078   3.9078

          k = 0.0000 0.5000 0.5000 (  1658 PWs)   bands (ev):

    -4.0315   0.3081   2.0679   4.4558

          k =-0.5000-0.5000 0.5000 (  1676 PWs)   bands (ev):

    -3.7554  -1.1209   4.5808   4.5808

          k =-1.0000 0.0000 0.0000 (  1660 PWs)   bands (ev):

    -1.9816  -1.9816   2.9659   2.9659

          k =-1.5000-1.0000 0.0000 (  1648 PWs)   bands (ev):

    -1.8259  -1.8259   1.9791   1.9791

          k = 0.0000 1.0000 0.5000 (  1648 PWs)   bands (ev):

    -1.8259  -1.8259   1.9791   1.9791

          k =-0.5000 0.0000 0.5000 (  1658 PWs)   bands (ev):

    -4.0315   0.3081   2.0679   4.4558

          k = 0.5000 1.0000 0.0000 (  1648 PWs)   bands (ev):

    -1.8259  -1.8259   1.9791   1.9791

          k = 0.0000 0.0000 0.0000 (  1639 PWs)   bands (ev):

    -6.0251   5.7565   5.7565   5.7565

     highest occupied level (ev):     5.7565

     Writing config to output data dir ./_ph0/Si.save/

     Phonons of Si                                                              

     bravais-lattice index     =            2
     lattice parameter (alat)  =      10.3614  a.u.
     unit-cell volume          =     278.0964 (a.u.)^3
     number of atoms/cell      =            2
     number of atomic types    =            1
     kinetic-energy cut-off    =      50.0000  Ry
     charge density cut-off    =     500.0000  Ry
     convergence threshold     =      1.0E-16
     beta                      =       0.7000
     number of iterations used =            4
     Exchange-correlation= PZ
                           (   1   1   0   0   0   0   0)


     celldm(1)=   10.36140  celldm(2)=    0.00000  celldm(3)=    0.00000
     celldm(4)=    0.00000  celldm(5)=    0.00000  celldm(6)=    0.00000

     crystal axes: (cart. coord. in units of alat)
               a(1) = ( -0.5000  0.0000  0.5000 )  
               a(2) = (  0.0000  0.5000  0.5000 )  
               a(3) = ( -0.5000  0.5000  0.0000 )  

     reciprocal axes: (cart. coord. in units 2 pi/alat)
               b(1) = ( -1.0000 -1.0000  1.0000 )  
               b(2) = (  1.0000  1.0000  1.0000 )  
               b(3) = ( -1.0000  1.0000 -1.0000 )  


     Atoms inside the unit cell: 

     Cartesian axes

     site n.  atom      mass           positions (alat units)
        1     Si  28.0855   tau(    1) = (    0.00000    0.00000    0.00000  )
        2     Si  28.0855   tau(    2) = (   -0.25000    0.25000    0.25000  )

     Computing dynamical matrix for 
                    q = (  -0.5000000  -1.0000000   0.0000000 )
 
      8 Sym.Ops. (no q -> -q+G )


     G cutoff = 1359.7127  (  52345 G-vectors)     FFT grid: ( 60, 60, 60)
     G cutoff =  543.8851  (  13323 G-vectors)  smooth grid: ( 36, 36, 36)
     number of k points=    32

     PseudoPot. # 1 for Si read from file:
     ./Si_LDA.UPF
     MD5 check sum: b5ade7b37ee992b02096e360e546dc2d
     Pseudo is Ultrasoft + core correction, Zval =  4.0
     Generated by new atomic code, or converted to UPF format
     Using radial grid of  899 points,  6 beta functions with: 
                l(1) =   0
                l(2) =   0
                l(3) =   1
                l(4) =   1
                l(5) =   2
                l(6) =   2
     Q(r) pseudized with  8 coefficients,  rinner =    0.900   0.900   0.900
                                                       0.900   0.900


     Atomic displacements:
     There are    3 irreducible representations

     Representation     1      2 modes -  To be done

     Representation     2      2 modes -  To be done

     Representation     3      2 modes -  To be done



     Alpha used in Ewald sum =   2.8000
     PHONON       :  28m35.46s CPU  29m51.29s WALL



     Representation #   1 modes #   1   2

     Self-consistent Calculation

      iter #   1 total cpu time :  1797.9 secs   av.it.:   5.3
      thresh= 1.000E-02 alpha_mix =  0.700 |ddv_scf|^2 =  7.645E-08

      iter #   2 total cpu time :  1806.7 secs   av.it.:  11.8
      thresh= 2.765E-05 alpha_mix =  0.700 |ddv_scf|^2 =  4.571E-08

      iter #   3 total cpu time :  1815.4 secs   av.it.:  11.5
      thresh= 2.138E-05 alpha_mix =  0.700 |ddv_scf|^2 =  9.374E-11

      iter #   4 total cpu time :  1824.1 secs   av.it.:  11.8
      thresh= 9.682E-07 alpha_mix =  0.700 |ddv_scf|^2 =  4.557E-13

      iter #   5 total cpu time :  1832.8 secs   av.it.:  11.7
      thresh= 6.750E-08 alpha_mix =  0.700 |ddv_scf|^2 =  4.885E-15

      iter #   6 total cpu time :  1841.5 secs   av.it.:  11.8
      thresh= 6.989E-09 alpha_mix =  0.700 |ddv_scf|^2 =  4.972E-17

     End of self-consistent calculation

     Convergence has been achieved 


     Representation #   2 modes #   3   4

     Self-consistent Calculation

      iter #   1 total cpu time :  1848.6 secs   av.it.:   5.8
      thresh= 1.000E-02 alpha_mix =  0.700 |ddv_scf|^2 =  3.664E-07

      iter #   2 total cpu time :  1857.4 secs   av.it.:  12.0
      thresh= 6.053E-05 alpha_mix =  0.700 |ddv_scf|^2 =  5.152E-07

      iter #   3 total cpu time :  1866.0 secs   av.it.:  11.2
      thresh= 7.178E-05 alpha_mix =  0.700 |ddv_scf|^2 =  1.027E-10

      iter #   4 total cpu time :  1874.9 secs   av.it.:  11.7
      thresh= 1.013E-06 alpha_mix =  0.700 |ddv_scf|^2 =  3.332E-12

      iter #   5 total cpu time :  1883.6 secs   av.it.:  11.6
      thresh= 1.825E-07 alpha_mix =  0.700 |ddv_scf|^2 =  1.939E-14

      iter #   6 total cpu time :  1892.3 secs   av.it.:  11.7
      thresh= 1.393E-08 alpha_mix =  0.700 |ddv_scf|^2 =  8.238E-16

      iter #   7 total cpu time :  1901.0 secs   av.it.:  11.7
      thresh= 2.870E-09 alpha_mix =  0.700 |ddv_scf|^2 =  2.477E-18

     End of self-consistent calculation

     Convergence has been achieved 


     Representation #   3 modes #   5   6

     Self-consistent Calculation

      iter #   1 total cpu time :  1908.2 secs   av.it.:   5.9
      thresh= 1.000E-02 alpha_mix =  0.700 |ddv_scf|^2 =  2.790E-07

      iter #   2 total cpu time :  1917.1 secs   av.it.:  11.8
      thresh= 5.282E-05 alpha_mix =  0.700 |ddv_scf|^2 =  1.836E-07

      iter #   3 total cpu time :  1925.8 secs   av.it.:  11.5
      thresh= 4.285E-05 alpha_mix =  0.700 |ddv_scf|^2 =  8.361E-11

      iter #   4 total cpu time :  1934.6 secs   av.it.:  11.6
      thresh= 9.144E-07 alpha_mix =  0.700 |ddv_scf|^2 =  1.090E-12

      iter #   5 total cpu time :  1943.3 secs   av.it.:  11.6
      thresh= 1.044E-07 alpha_mix =  0.700 |ddv_scf|^2 =  7.432E-15

      iter #   6 total cpu time :  1952.1 secs   av.it.:  11.6
      thresh= 8.621E-09 alpha_mix =  0.700 |ddv_scf|^2 =  2.780E-16

      iter #   7 total cpu time :  1960.8 secs   av.it.:  11.5
      thresh= 1.667E-09 alpha_mix =  0.700 |ddv_scf|^2 =  1.771E-18

     End of self-consistent calculation

     Convergence has been achieved 
 
     Number of q in the star =    6
     List of q in the star:
          1  -0.500000000  -1.000000000   0.000000000
          2   0.000000000   1.000000000   0.500000000
          3   0.000000000  -1.000000000  -0.500000000
          4   0.500000000   1.000000000   0.000000000
          5  -1.000000000  -0.500000000   0.000000000
          6   0.000000000  -0.500000000  -1.000000000

     Diagonalizing the dynamical matrix

     q = (   -0.500000000  -1.000000000   0.000000000 ) 

 **************************************************************************
     freq (    1) =       6.365609 [THz] =     212.333873 [cm-1]
     freq (    2) =       6.365609 [THz] =     212.333873 [cm-1]
     freq (    3) =      10.079396 [THz] =     336.212455 [cm-1]
     freq (    4) =      10.079396 [THz] =     336.212455 [cm-1]
     freq (    5) =      12.935659 [THz] =     431.487130 [cm-1]
     freq (    6) =      12.935659 [THz] =     431.487130 [cm-1]
 **************************************************************************
 
     init_run     :     10.06s CPU     10.50s WALL (       7 calls)
     electrons    :     47.43s CPU     50.36s WALL (       7 calls)

     Called by init_run:
     wfcinit      :      0.00s CPU      0.02s WALL (       7 calls)
     potinit      :      0.46s CPU      0.53s WALL (       7 calls)
     hinit0       :      7.03s CPU      7.05s WALL (       7 calls)

     Called by electrons:
     c_bands      :     47.43s CPU     50.30s WALL (       7 calls)
     v_of_rho     :      0.41s CPU      0.47s WALL (       8 calls)
     newd         :      1.98s CPU      2.28s WALL (       8 calls)

     Called by c_bands:
     init_us_2    :     13.04s CPU     14.24s WALL (    8054 calls)
     init_us_2:cp :     12.82s CPU     14.09s WALL (    8054 calls)
     cegterg      :     39.29s CPU     40.91s WALL (     292 calls)

     Called by *egterg:
     cdiaghg      :      1.51s CPU      1.63s WALL (    4026 calls)
     h_psi        :    749.83s CPU    775.44s WALL (   86416 calls)
     s_psi        :     65.60s CPU     74.15s WALL (  175636 calls)
     g_psi        :      0.18s CPU      0.19s WALL (    3734 calls)

     Called by h_psi:
     h_psi:calbec :     27.99s CPU     29.07s WALL (   86416 calls)
     vloc_psi     :    682.62s CPU    704.34s WALL (   86416 calls)
     add_vuspsi   :     32.03s CPU     35.54s WALL (   86416 calls)

     General routines
     calbec       :     50.79s CPU     56.34s WALL (  191806 calls)
     fft          :     14.29s CPU     14.49s WALL (    3305 calls)
     ffts         :      1.88s CPU      1.95s WALL (    1972 calls)
     fftw         :    690.77s CPU    716.36s WALL (  760038 calls)
     interpolate  :      4.80s CPU      4.91s WALL (     760 calls)
     davcio       :      4.74s CPU     19.86s WALL (   38797 calls)
 
     Parallel routines
 
     PHONON       :  31m18.27s CPU  32m41.32s WALL

     INITIALIZATION: 
     phq_setup    :      0.40s CPU      0.68s WALL (       8 calls)
     phq_init     :    123.71s CPU    125.02s WALL (       8 calls)
 
     phq_init     :    123.71s CPU    125.02s WALL (       8 calls)
     set_drhoc    :     26.39s CPU     26.39s WALL (      24 calls)
     init_vloc    :      0.02s CPU      0.04s WALL (       8 calls)
     init_us_1    :      7.24s CPU      7.26s WALL (       8 calls)
     init_us_2    :     13.04s CPU     14.24s WALL (    8054 calls)
     newd         :      1.98s CPU      2.28s WALL (       8 calls)
     dvanqq       :     50.26s CPU     50.30s WALL (       8 calls)
     drho         :     42.28s CPU     43.19s WALL (       8 calls)
 
     DYNAMICAL MATRIX:
     dynmat0      :     19.71s CPU     19.96s WALL (       8 calls)
     phqscf       :   1642.70s CPU   1714.83s WALL (       8 calls)
     dynmatrix    :      0.03s CPU      0.27s WALL (       8 calls)
 
     phqscf       :   1642.70s CPU   1714.83s WALL (       8 calls)
     solve_linter :   1637.73s CPU   1707.62s WALL (      32 calls)
     drhodv       :      3.35s CPU      3.57s WALL (      32 calls)
 
     dynmat0      :     19.71s CPU     19.96s WALL (       8 calls)
     dynmat_us    :      1.25s CPU      1.31s WALL (       8 calls)
     d2ionq       :      0.35s CPU      0.36s WALL (       8 calls)
     dynmatcc     :     18.09s CPU     18.14s WALL (       8 calls)
 
     dynmat_us    :      1.25s CPU      1.31s WALL (       8 calls)
     addusdynmat  :      0.00s CPU      0.00s WALL (       8 calls)
 
     phqscf       :   1642.70s CPU   1714.83s WALL (       8 calls)
     solve_linter :   1637.73s CPU   1707.62s WALL (      32 calls)
 
     solve_linter :   1637.73s CPU   1707.62s WALL (      32 calls)
     dvqpsi_us    :     12.50s CPU     12.95s WALL (     972 calls)
     sth_kernel   :    976.24s CPU   1022.49s WALL (     243 calls)
     apply_dpot_b :     53.70s CPU     56.10s WALL (    6126 calls)
     ortho        :      6.60s CPU      7.16s WALL (    7098 calls)
     cgsolve      :    837.81s CPU    874.42s WALL (    7098 calls)
     incdrhoscf   :     66.80s CPU     70.41s WALL (    7098 calls)
     addusddens   :    264.82s CPU    265.31s WALL (     270 calls)
     dv_of_drho   :      6.81s CPU      6.86s WALL (     350 calls)
     mix_pot      :      3.50s CPU     16.36s WALL (     243 calls)
     psymdvscf    :    114.35s CPU    114.47s WALL (     238 calls)
     newdq        :    307.42s CPU    307.48s WALL (     243 calls)
     adddvscf     :      2.82s CPU      2.98s WALL (    6126 calls)
     drhodvus     :      0.21s CPU      0.45s WALL (      32 calls)
 
     dvqpsi_us    :     12.50s CPU     12.95s WALL (     972 calls)
     dvqpsi_us_on :      2.27s CPU      2.30s WALL (     972 calls)
 
     cgsolve      :    837.81s CPU    874.42s WALL (    7098 calls)
     ch_psi       :    825.33s CPU    860.13s WALL (   82098 calls)
 
     ch_psi       :    825.33s CPU    860.13s WALL (   82098 calls)
     h_psi        :    749.83s CPU    775.44s WALL (   86416 calls)
     last         :     73.04s CPU     80.01s WALL (   82098 calls)
 
     h_psi        :    749.83s CPU    775.44s WALL (   86416 calls)
     add_vuspsi   :     32.03s CPU     35.54s WALL (   86416 calls)
 
     incdrhoscf   :     66.80s CPU     70.41s WALL (    7098 calls)
     addusdbec    :      2.98s CPU      3.03s WALL (    8022 calls)
 
     drhodvus     :      0.21s CPU      0.45s WALL (      32 calls)
 
      General routines
     calbec       :     50.79s CPU     56.34s WALL (  191806 calls)
     fft          :     14.29s CPU     14.49s WALL (    3305 calls)
     ffts         :      1.88s CPU      1.95s WALL (    1972 calls)
     fftw         :    690.77s CPU    716.36s WALL (  760038 calls)
     davcio       :      4.74s CPU     19.86s WALL (   38797 calls)
     write_rec    :      0.66s CPU     12.55s WALL (     275 calls)
 
 
     PHONON       :  31m18.27s CPU  32m41.33s WALL

 
   This run was terminated on:  13:54:25   9Apr2022            

=------------------------------------------------------------------------------=
   JOB DONE.
=------------------------------------------------------------------------------=
