TACC:  Starting up job 9581717 
TACC:  Starting parallel tasks... 

     Program PWSCF v.6.4.1 starts on  4May2022 at 13:57:49 

     This program is part of the open-source Quantum ESPRESSO suite
     for quantum simulation of materials; please cite
         "P. Giannozzi et al., J. Phys.:Condens. Matter 21 395502 (2009);
         "P. Giannozzi et al., J. Phys.:Condens. Matter 29 465901 (2017);
          URL http://www.quantum-espresso.org", 
     in publications or presentations arising from this work. More details at
     http://www.quantum-espresso.org/quote

     Parallel version (MPI & OpenMP), running on     120 processor cores
     Number of MPI processes:               120
     Threads/MPI process:                     1

     MPI processes distributed on     2 nodes
     R & G space division:  proc/nbgrp/npool/nimage =     120
     Waiting for input...
     Reading input from standard input
Warning: card &CELL ignored
Warning: card  CELL_DYNAMICS = 'BFGS', ignored
Warning: card  PRESS=0.1D0, ignored
Warning: card / ignored

     Current dimensions of program PWSCF are:
     Max number of different atomic species (ntypx) = 10
     Max number of k-points (npk) =  40000
     Max angular momentum in pseudopotentials (lmaxx) =  3

     Subspace diagonalization in iterative solution of the eigenvalue problem:
     one sub-group per band group will be used
     scalapack distributed-memory algorithm (size of sub-group:  7*  7 procs)

 
     Parallelization info
     --------------------
     sticks:   dense  smooth     PW     G-vecs:    dense   smooth      PW
     Min          19      19      5                  560      560      84
     Max          20      20      6                  564      564      89
     Sum        2303    2303    665                67453    67453   10331
 


     bravais-lattice index     =            5
     lattice parameter (alat)  =      11.6303  a.u.
     unit-cell volume          =     852.5484 (a.u.)^3
     number of atoms/cell      =           10
     number of atomic types    =            3
     number of electrons       =        64.00
     number of Kohn-Sham states=           32
     kinetic-energy cutoff     =      70.0000  Ry
     charge density cutoff     =     280.0000  Ry
     convergence threshold     =      1.0E-08
     mixing beta               =       0.7000
     number of iterations used =            8  plain     mixing
     Exchange-correlation      = SLA  PW   PBE  PBE ( 1  4  3  4 0 0)
     nstep                     =           50


     celldm(1)=  11.630300  celldm(2)=   0.000000  celldm(3)=   0.000000
     celldm(4)=   0.641300  celldm(5)=   0.000000  celldm(6)=   0.000000

     crystal axes: (cart. coord. in units of alat)
               a(1) = (   0.423497  -0.244506   0.872277 )  
               a(2) = (   0.000000   0.489013   0.872277 )  
               a(3) = (  -0.423497  -0.244506   0.872277 )  

     reciprocal axes: (cart. coord. in units 2 pi/alat)
               b(1) = (  1.180645 -0.681646  0.382142 )  
               b(2) = ( -0.000000  1.363291  0.382142 )  
               b(3) = ( -1.180645 -0.681646  0.382142 )  


     PseudoPot. # 1 for Ca read from file:
     ./Ca_PBE.UPF
     MD5 check sum: 403a4c14b9e4d4dfdc3024c9a3812218
     Pseudo is Ultrasoft + core correction, Zval = 10.0
     Generated by new atomic code, or converted to UPF format
     Using radial grid of  845 points,  6 beta functions with: 
                l(1) =   0
                l(2) =   0
                l(3) =   1
                l(4) =   1
                l(5) =   2
                l(6) =   2
     Q(r) pseudized with  8 coefficients,  rinner =    1.500   1.500   1.500
                                                       1.500   1.500

     PseudoPot. # 2 for C  read from file:
     ./C_PBE.UPF
     MD5 check sum: d1aef80898a10debaa0f26306b886e00
     Pseudo is Ultrasoft + core correction, Zval =  4.0
     Generated by new atomic code, or converted to UPF format
     Using radial grid of  721 points,  4 beta functions with: 
                l(1) =   0
                l(2) =   0
                l(3) =   1
                l(4) =   1
     Q(r) pseudized with  8 coefficients,  rinner =    1.100   1.100   1.100


     PseudoPot. # 3 for O  read from file:
     ./O_PBE.UPF
     MD5 check sum: 734c27235a0248c51dbae37a1fbe46ec
     Pseudo is Ultrasoft + core correction, Zval =  6.0
     Generated by new atomic code, or converted to UPF format
     Using radial grid of  737 points,  5 beta functions with: 
                l(1) =   0
                l(2) =   0
                l(3) =   1
                l(4) =   1
                l(5) =   2
     Q(r) pseudized with  8 coefficients,  rinner =    0.900   0.900   0.900
                                                       0.900   0.900

     atomic species   valence    mass     pseudopotential
        Ca            10.00    40.07800     Ca( 1.00)
        C              4.00    12.01070     C ( 1.00)
        O              6.00    16.00000     O ( 1.00)

     12 Sym. Ops., with inversion, found ( 6 have fractional translation)



   Cartesian axes

     site n.     atom                  positions (alat units)
         1           Ca  tau(   1) = (   0.0000000  -0.0000000   1.3084151  )
         2           Ca  tau(   2) = (   0.0000000   0.0000000   0.0000000  )
         3           C   tau(   3) = (   0.0000000  -0.0000000   0.6542075  )
         4           C   tau(   4) = (  -0.0000000  -0.0000000   1.9626226  )
         5           O   tau(   5) = (   0.1088460   0.3004858   1.5264843  )
         6           O   tau(   6) = (   0.2058053  -0.2445063   1.5264843  )
         7           O   tau(   7) = (  -0.3146513  -0.0559795   1.5264843  )
         8           O   tau(   8) = (  -0.2058053   0.2445063   1.0903459  )
         9           O   tau(   9) = (   0.3146513   0.0559795   1.0903459  )
        10           O   tau(  10) = (  -0.1088460  -0.3004858   1.0903459  )

     number of k points=    19
                       cart. coord. in units 2pi/alat
        k(    1) = (   0.0000000   0.0000000   0.0000000), wk =   0.0160000
        k(    2) = (  -0.2361290  -0.1363291   0.0764283), wk =   0.0960000
        k(    3) = (  -0.4722580  -0.2726583   0.1528567), wk =   0.0960000
        k(    4) = (  -0.2361290   0.1363291   0.1528567), wk =   0.0960000
        k(    5) = (  -0.4722580  -0.0000000   0.2292850), wk =   0.1920000
        k(    6) = (   0.4722580   0.5453165  -0.0764283), wk =   0.1920000
        k(    7) = (   0.2361290   0.4089874   0.0000000), wk =   0.0960000
        k(    8) = (  -0.4722580   0.2726583   0.3057134), wk =   0.0960000
        k(    9) = (   0.4722580   0.8179748   0.0000000), wk =   0.0960000
        k(   10) = (   0.0000000  -0.0000000   0.2292850), wk =   0.0320000
        k(   11) = (  -0.2361290  -0.1363291   0.3057134), wk =   0.0960000
        k(   12) = (   0.7083870   0.4089874   0.0000000), wk =   0.0960000
        k(   13) = (   0.4722580   0.2726583   0.0764283), wk =   0.0960000
        k(   14) = (  -0.2361290   0.1363291   0.3821417), wk =   0.0960000
        k(   15) = (   0.7083870   0.6816457   0.0764283), wk =   0.1920000
        k(   16) = (   0.4722580   0.5453165   0.1528567), wk =   0.1920000
        k(   17) = (   0.7083870  -0.4089874  -0.2292850), wk =   0.0960000
        k(   18) = (   0.0000000  -0.0000000   0.4585701), wk =   0.0320000
        k(   19) = (   0.9445160   0.5453165   0.1528567), wk =   0.0960000

     Dense  grid:    67453 G-vectors     FFT dimensions: (  64,  64,  64)

     Estimated max dynamical RAM per process >      10.70 MB

     Estimated total dynamical RAM >       1.25 GB
     Message from routine sym_rho_init:
     some processors have no G-vectors for symmetrization

     Check: negative core charge=   -0.000003

     Initial potential from superposition of free atoms

     starting charge   63.98899, renormalised to   64.00000
     Starting wfcs are   52 randomized atomic wfcs

     total cpu time spent up to now is        5.0 secs

     Self-consistent Calculation

     iteration #  1     ecut=    70.00 Ry     beta= 0.70
     CG style diagonalization
     ethr =  1.00E-02,  avg # of iterations =  2.6

     total cpu time spent up to now is       10.3 secs

     total energy              =    -366.59575230 Ry
     Harris-Foulkes estimate   =    -367.83622930 Ry
     estimated scf accuracy    <       1.76954756 Ry

     iteration #  2     ecut=    70.00 Ry     beta= 0.70
     CG style diagonalization
     ethr =  2.76E-03,  avg # of iterations =  4.4

     total cpu time spent up to now is       18.7 secs

     total energy              =    -367.01314208 Ry
     Harris-Foulkes estimate   =    -367.97314785 Ry
     estimated scf accuracy    <       2.04752011 Ry

     iteration #  3     ecut=    70.00 Ry     beta= 0.70
     CG style diagonalization
     ethr =  2.76E-03,  avg # of iterations =  3.8

     total cpu time spent up to now is       26.0 secs

     total energy              =    -367.38926745 Ry
     Harris-Foulkes estimate   =    -367.39249734 Ry
     estimated scf accuracy    <       0.01211785 Ry

     iteration #  4     ecut=    70.00 Ry     beta= 0.70
     CG style diagonalization
     ethr =  1.89E-05,  avg # of iterations =  4.5

     total cpu time spent up to now is       34.6 secs

     total energy              =    -367.40100806 Ry
     Harris-Foulkes estimate   =    -367.40269060 Ry
     estimated scf accuracy    <       0.00412400 Ry

     iteration #  5     ecut=    70.00 Ry     beta= 0.70
     CG style diagonalization
     ethr =  6.44E-06,  avg # of iterations =  3.6

     total cpu time spent up to now is       41.4 secs

     total energy              =    -367.40160148 Ry
     Harris-Foulkes estimate   =    -367.40163362 Ry
     estimated scf accuracy    <       0.00018237 Ry

     iteration #  6     ecut=    70.00 Ry     beta= 0.70
     CG style diagonalization
     ethr =  2.85E-07,  avg # of iterations =  4.2

     total cpu time spent up to now is       49.3 secs

     total energy              =    -367.40166168 Ry
     Harris-Foulkes estimate   =    -367.40167426 Ry
     estimated scf accuracy    <       0.00002238 Ry

     iteration #  7     ecut=    70.00 Ry     beta= 0.70
     CG style diagonalization
     ethr =  3.50E-08,  avg # of iterations =  4.1

     total cpu time spent up to now is       57.2 secs

     total energy              =    -367.40167215 Ry
     Harris-Foulkes estimate   =    -367.40167380 Ry
     estimated scf accuracy    <       0.00000338 Ry

     iteration #  8     ecut=    70.00 Ry     beta= 0.70
     CG style diagonalization
     ethr =  5.29E-09,  avg # of iterations =  4.1

     total cpu time spent up to now is       64.9 secs

     total energy              =    -367.40167316 Ry
     Harris-Foulkes estimate   =    -367.40167320 Ry
     estimated scf accuracy    <       0.00000007 Ry

     iteration #  9     ecut=    70.00 Ry     beta= 0.70
     CG style diagonalization
     ethr =  1.11E-10,  avg # of iterations =  4.7

     total cpu time spent up to now is       73.7 secs

     total energy              =    -367.40167324 Ry
     Harris-Foulkes estimate   =    -367.40167324 Ry
     estimated scf accuracy    <       0.00000001 Ry

     iteration # 10     ecut=    70.00 Ry     beta= 0.70
     CG style diagonalization
     ethr =  2.19E-11,  avg # of iterations =  3.7

     total cpu time spent up to now is       80.8 secs

     End of self-consistent calculation

          k = 0.0000 0.0000 0.0000 (  8493 PWs)   bands (ev):

   -33.6471 -33.6327 -16.4519 -16.4261 -15.0471 -15.0471 -14.6987 -14.6987
   -14.6494 -14.4981 -13.5794 -13.5794 -13.0196 -13.0196  -3.3233  -3.1272
    -1.3382  -1.3382  -1.3237  -1.1154  -1.1154   0.1891   2.4556   2.4556
     2.7052   2.7052   2.9792   2.9792   3.7269   3.7698   3.7698   4.1993

          k =-0.2361-0.1363 0.0764 (  8442 PWs)   bands (ev):

   -33.6456 -33.6339 -16.4934 -16.3893 -15.0412 -14.9467 -14.8111 -14.7074
   -14.6351 -14.5932 -13.5112 -13.3830 -13.1589 -13.0576  -3.2062  -3.1555
    -1.3134  -1.2884  -1.1898  -1.1097  -1.0774   0.0088   2.4937   2.5491
     2.6420   2.6929   2.8072   2.8497   3.5679   3.6037   3.9968   4.1640

          k =-0.4723-0.2727 0.1529 (  8447 PWs)   bands (ev):

   -33.6418 -33.6374 -16.4910 -16.4003 -14.9882 -14.9292 -14.9143 -14.8236
   -14.5787 -14.5332 -13.3752 -13.2810 -13.2571 -13.1763  -3.1193  -3.0730
    -1.3592  -1.2675  -1.1038  -1.0725  -0.6816  -0.2901   2.2662   2.3550
     2.5397   2.5911   2.9039   2.9931   3.3387   3.3471   4.1556   4.1974

          k =-0.2361 0.1363 0.1529 (  8430 PWs)   bands (ev):

   -33.6453 -33.6342 -16.5042 -16.3813 -15.0045 -14.9924 -14.7264 -14.7032
   -14.6595 -14.6588 -13.4456 -13.4209 -13.1295 -13.1015  -3.1919  -3.1801
    -1.3024  -1.2678  -1.2255  -1.0789  -1.0500  -0.0270   2.4901   2.5176
     2.6156   2.6988   2.8096   2.9408   3.4614   3.6726   3.9932   4.1368

          k =-0.4723-0.0000 0.2293 (  8445 PWs)   bands (ev):

   -33.6427 -33.6365 -16.5191 -16.3737 -15.0458 -14.9531 -14.8103 -14.7516
   -14.6275 -14.5609 -13.4415 -13.3397 -13.1923 -13.1283  -3.1645  -3.0700
    -1.3349  -1.2427  -1.1729  -1.0454  -0.7548  -0.2330   2.2765   2.4446
     2.5497   2.6149   2.7952   3.0014   3.2616   3.5105   4.1254   4.1982

          k = 0.4723 0.5453-0.0764 (  8450 PWs)   bands (ev):

   -33.6400 -33.6391 -16.4777 -16.4254 -15.0096 -14.9527 -14.8780 -14.7572
   -14.5978 -14.5505 -13.4249 -13.3317 -13.2092 -13.1390  -3.0986  -3.0368
    -1.3760  -1.2483  -1.1231  -1.0350  -0.4836  -0.4069   2.1871   2.2531
     2.5000   2.5789   2.8409   2.9175   3.3485   3.3866   4.1927   4.2483

          k = 0.2361 0.4090 0.0000 (  8447 PWs)   bands (ev):

   -33.6435 -33.6357 -16.5313 -16.3503 -15.0502 -14.9722 -14.8556 -14.6801
   -14.6693 -14.5325 -13.4394 -13.3694 -13.1556 -13.1381  -3.1706  -3.0526
    -1.3820  -1.1842  -1.1451  -1.0761  -0.8539  -0.1806   2.2730   2.5286
     2.5403   2.5706   2.7270   3.0037   3.3697   3.4959   4.1288   4.2118

          k =-0.4723 0.2727 0.3057 (  8442 PWs)   bands (ev):

   -33.6424 -33.6367 -16.5805 -16.2980 -15.1057 -15.0658 -14.6948 -14.6725
   -14.6639 -14.5010 -13.5378 -13.4271 -13.1179 -13.0822  -3.2491  -2.9408
    -1.4334  -1.2041  -1.0841  -0.9872  -0.6876  -0.3297   2.1099   2.3758
     2.5669   2.7596   2.7783   2.9369   3.2216   3.5358   4.0089   4.3040

          k = 0.4723 0.8180 0.0000 (  8439 PWs)   bands (ev):

   -33.6410 -33.6381 -16.5372 -16.3668 -15.0665 -14.9881 -14.7438 -14.7082
   -14.6623 -14.5436 -13.5146 -13.3626 -13.1649 -13.0948  -3.1659  -2.9673
    -1.3678  -1.2819  -1.1171  -0.9826  -0.5211  -0.3657   2.0786   2.2680
     2.6327   2.6480   2.7693   2.7707   3.3270   3.4680   4.1084   4.3142

          k = 0.0000-0.0000 0.2293 (  8406 PWs)   bands (ev):

   -33.6457 -33.6340 -16.4520 -16.4309 -15.0227 -15.0227 -14.7461 -14.7461
   -14.6316 -14.5095 -13.5121 -13.5121 -13.0644 -13.0644  -3.3245  -3.1724
    -1.3139  -1.3139  -1.1586  -1.1341  -1.1341   0.0625   2.4805   2.4805
     2.6863   2.6863   3.0369   3.0369   3.6781   3.6781   3.7626   4.1367

          k =-0.2361-0.1363 0.3057 (  8432 PWs)   bands (ev):

   -33.6436 -33.6359 -16.4687 -16.4234 -15.0359 -14.9108 -14.8938 -14.6756
   -14.6529 -14.5570 -13.4816 -13.3184 -13.2288 -13.0805  -3.2360  -3.1689
    -1.2861  -1.2509  -1.1682  -1.1580  -0.8911  -0.1405   2.4679   2.5632
     2.6220   2.6910   2.7832   3.0690   3.4037   3.5263   3.9896   4.1203

          k = 0.7084 0.4090 0.0000 (  8410 PWs)   bands (ev):

   -33.6400 -33.6391 -16.4908 -16.4090 -15.0469 -14.9329 -14.8616 -14.7660
   -14.6042 -14.5255 -13.4030 -13.3596 -13.2207 -13.1275  -3.1723  -3.0287
    -1.3863  -1.2062  -1.1341  -1.0633  -0.5384  -0.4009   2.2276   2.3575
     2.5270   2.6515   2.8421   3.1531   3.1546   3.3504   4.1114   4.2228

          k = 0.4723 0.2727 0.0764 (  8455 PWs)   bands (ev):

   -33.6427 -33.6365 -16.5546 -16.3234 -15.0605 -15.0332 -14.7978 -14.7249
   -14.6369 -14.4941 -13.4897 -13.3334 -13.1870 -13.1120  -3.2025  -2.9829
    -1.4262  -1.1821  -1.0840  -1.0577  -0.7534  -0.2692   2.1591   2.4290
     2.4894   2.6963   2.7545   3.1483   3.1910   3.4778   4.0732   4.2672

          k =-0.2361 0.1363 0.3821 (  8423 PWs)   bands (ev):

   -33.6429 -33.6366 -16.4955 -16.4010 -15.0362 -14.9012 -14.8275 -14.7366
   -14.6266 -14.6123 -13.4152 -13.3297 -13.2006 -13.1447  -3.2261  -3.1947
    -1.3102  -1.2255  -1.1929  -1.0926  -0.8096  -0.2356   2.4615   2.4994
     2.6274   2.6723   2.9180   3.1264   3.2361   3.5745   4.0107   4.0613

          k = 0.7084 0.6816 0.0764 (  8424 PWs)   bands (ev):

   -33.6408 -33.6384 -16.4827 -16.4278 -15.0147 -14.9609 -14.7577 -14.7184
   -14.6637 -14.6180 -13.4084 -13.3472 -13.1942 -13.1501  -3.1441  -3.1085
    -1.2967  -1.2916  -1.1400  -1.0525  -0.5663  -0.3752   2.2872   2.3364
     2.6329   2.7084   2.8007   2.9158   3.2583   3.4229   4.1333   4.1650

          k = 0.4723 0.5453 0.1529 (  8443 PWs)   bands (ev):

   -33.6407 -33.6383 -16.5206 -16.3832 -15.0416 -14.9824 -14.8258 -14.6705
   -14.6569 -14.5479 -13.4936 -13.3274 -13.2042 -13.0995  -3.1475  -2.9865
    -1.3984  -1.2352  -1.0719  -1.0558  -0.5220  -0.3672   2.1107   2.2698
     2.5300   2.6534   2.7845   2.8735   3.3425   3.4143   4.1367   4.2953

          k = 0.7084-0.4090-0.2293 (  8423 PWs)   bands (ev):

   -33.6410 -33.6381 -16.5580 -16.3342 -15.1100 -15.0126 -14.7290 -14.6836
   -14.6588 -14.5030 -13.4828 -13.4569 -13.1216 -13.0968  -3.2391  -2.9605
    -1.4321  -1.1872  -1.0666  -1.0391  -0.5536  -0.4203   2.1345   2.3462
     2.6388   2.7528   2.7546   2.9187   3.2336   3.4500   4.0292   4.2835

          k = 0.0000-0.0000 0.4586 (  8394 PWs)   bands (ev):

   -33.6421 -33.6376 -16.4496 -16.4414 -14.9527 -14.9527 -14.8499 -14.8499
   -14.5887 -14.5422 -13.3558 -13.3558 -13.1876 -13.1876  -3.3107  -3.2561
    -1.2537  -1.2537  -1.1853  -1.1853  -0.7527  -0.2874   2.5465   2.5465
     2.6269   2.6269   3.2090   3.2090   3.4543   3.4543   3.8602   3.9982

          k = 0.9445 0.5453 0.1529 (  8393 PWs)   bands (ev):

   -33.6402 -33.6393 -16.4655 -16.4351 -15.0276 -14.9219 -14.8519 -14.7403
   -14.6221 -14.5658 -13.4022 -13.2843 -13.2650 -13.1452  -3.2501  -3.1904
    -1.2944  -1.1883  -1.1837  -1.1545  -0.5631  -0.4479   2.4544   2.5138
     2.6352   2.6545   2.9623   3.1545   3.3053   3.3884   4.0010   4.0562

     highest occupied level (ev):     4.3142

!    total energy              =    -367.40167324 Ry
     Harris-Foulkes estimate   =    -367.40167324 Ry
     estimated scf accuracy    <          8.6E-10 Ry

     The total energy is the sum of the following terms:

     one-electron contribution =    -139.44346621 Ry
     hartree contribution      =      99.26501991 Ry
     xc contribution           =     -74.93738134 Ry
     ewald contribution        =    -252.28584560 Ry

     convergence has been achieved in  10 iterations

     Forces acting on atoms (cartesian axes, Ry/au):

     atom    1 type  1   force =     0.00000000    0.00000000    0.00000000
     atom    2 type  1   force =     0.00000000    0.00000000    0.00000000
     atom    3 type  2   force =    -0.00000000   -0.00000000   -0.00000000
     atom    4 type  2   force =     0.00000000    0.00000000   -0.00000000
     atom    5 type  3   force =    -0.04534116    0.07853319    0.00000000
     atom    6 type  3   force =     0.09068232    0.00000000   -0.00000000
     atom    7 type  3   force =    -0.04534116   -0.07853319   -0.00000000
     atom    8 type  3   force =    -0.09068232   -0.00000000    0.00000000
     atom    9 type  3   force =     0.04534116    0.07853319    0.00000000
     atom   10 type  3   force =     0.04534116   -0.07853319   -0.00000000

     Total force =     0.222125     Total SCF correction =     0.000056


     Computing stress (Cartesian axis) and pressure

          total   stress  (Ry/bohr**3)                   (kbar)     P=  -76.07
  -0.00088369  -0.00000000  -0.00000000       -130.00     -0.00     -0.00
  -0.00000000  -0.00088369  -0.00000000         -0.00   -130.00     -0.00
  -0.00000000  -0.00000000   0.00021600         -0.00     -0.00     31.77


     BFGS Geometry Optimization

     number of scf cycles    =   1
     number of bfgs steps    =   0

     energy   new            =    -367.4016732385 Ry

     new trust radius        =       0.0906823195 bohr
     new conv_thr            =       0.0000000100 Ry


ATOMIC_POSITIONS (crystal)
Ca       0.500000000   0.500000000   0.500000000
Ca       0.000000000   0.000000000   0.000000000
C        0.250000000   0.250000000   0.250000000
C        0.750000000   0.750000000   0.750000000
O        0.497811378   1.002188622   0.250000000
O        1.002188622   0.250000000   0.497811378
O        0.250000000   0.497811378   1.002188622
O       -0.002188622   0.750000000   0.502188622
O        0.750000000   0.502188622  -0.002188622
O        0.502188622  -0.002188622   0.750000000



     Writing output data file CCOrand5.save/
     NEW-OLD atomic charge density approx. for the potential

     Check: negative core charge=   -0.000003

     total cpu time spent up to now is       82.0 secs

     Self-consistent Calculation

     iteration #  1     ecut=    70.00 Ry     beta= 0.70
     CG style diagonalization
     c_bands:  2 eigenvalues not converged
     c_bands:  1 eigenvalues not converged
     c_bands:  5 eigenvalues not converged
     c_bands:  4 eigenvalues not converged
     c_bands:  4 eigenvalues not converged
     c_bands:  2 eigenvalues not converged
     c_bands:  2 eigenvalues not converged
     c_bands:  2 eigenvalues not converged
     c_bands:  4 eigenvalues not converged
     c_bands:  4 eigenvalues not converged
     c_bands:  5 eigenvalues not converged
     c_bands:  2 eigenvalues not converged
     ethr =  1.00E-06,  avg # of iterations = 13.7

     total cpu time spent up to now is      107.1 secs

     total energy              =    -367.41112838 Ry
     Harris-Foulkes estimate   =    -367.43258964 Ry
     estimated scf accuracy    <       0.02925969 Ry

     iteration #  2     ecut=    70.00 Ry     beta= 0.70
     CG style diagonalization
     ethr =  4.57E-05,  avg # of iterations =  4.0

     total cpu time spent up to now is      114.8 secs

     total energy              =    -367.41899051 Ry
     Harris-Foulkes estimate   =    -367.42695575 Ry
     estimated scf accuracy    <       0.01446533 Ry

     iteration #  3     ecut=    70.00 Ry     beta= 0.70
     CG style diagonalization
     ethr =  2.26E-05,  avg # of iterations =  3.6

     total cpu time spent up to now is      121.6 secs

     total energy              =    -367.42249887 Ry
     Harris-Foulkes estimate   =    -367.42264970 Ry
     estimated scf accuracy    <       0.00032383 Ry

     iteration #  4     ecut=    70.00 Ry     beta= 0.70
     CG style diagonalization
     ethr =  5.06E-07,  avg # of iterations =  4.1

     total cpu time spent up to now is      129.5 secs

     total energy              =    -367.42272136 Ry
     Harris-Foulkes estimate   =    -367.42276392 Ry
     estimated scf accuracy    <       0.00011234 Ry

     iteration #  5     ecut=    70.00 Ry     beta= 0.70
     CG style diagonalization
     ethr =  1.76E-07,  avg # of iterations =  3.5

     total cpu time spent up to now is      136.2 secs

     total energy              =    -367.42273614 Ry
     Harris-Foulkes estimate   =    -367.42273867 Ry
     estimated scf accuracy    <       0.00000451 Ry

     iteration #  6     ecut=    70.00 Ry     beta= 0.70
     CG style diagonalization
     ethr =  7.04E-09,  avg # of iterations =  4.2

     total cpu time spent up to now is      144.2 secs

     total energy              =    -367.42273784 Ry
     Harris-Foulkes estimate   =    -367.42273821 Ry
     estimated scf accuracy    <       0.00000068 Ry

     iteration #  7     ecut=    70.00 Ry     beta= 0.70
     CG style diagonalization
     ethr =  1.06E-09,  avg # of iterations =  4.1

     total cpu time spent up to now is      152.0 secs

     total energy              =    -367.42273808 Ry
     Harris-Foulkes estimate   =    -367.42273811 Ry
     estimated scf accuracy    <       0.00000006 Ry

     iteration #  8     ecut=    70.00 Ry     beta= 0.70
     CG style diagonalization
     ethr =  9.34E-11,  avg # of iterations =  4.0

     total cpu time spent up to now is      159.5 secs

     End of self-consistent calculation

          k = 0.0000 0.0000 0.0000 (  8493 PWs)   bands (ev):

   -33.8006 -33.7871 -17.0325 -16.9569 -15.1544 -15.1544 -14.8352 -14.8352
   -14.7923 -14.7262 -13.8470 -13.8470 -13.3385 -13.3385  -3.1899  -2.9201
    -1.6109  -1.4341  -1.4341  -1.2262  -1.2262  -0.2347   2.4971   2.4971
     2.6955   2.6955   2.9707   2.9707   3.7826   3.7826   3.9698   4.4104

          k =-0.2361-0.1363 0.0764 (  8442 PWs)   bands (ev):

   -33.7992 -33.7883 -17.0533 -16.9381 -15.1510 -15.0666 -14.9536 -14.8462
   -14.7891 -14.7806 -13.7845 -13.6681 -13.4675 -13.3709  -3.0639  -2.9490
    -1.5218  -1.3937  -1.3296  -1.2440  -1.2266  -0.3833   2.5084   2.5557
     2.6577   2.6920   2.8148   2.8633   3.6094   3.6290   4.1916   4.3706

          k =-0.4723-0.2727 0.1529 (  8447 PWs)   bands (ev):

   -33.7957 -33.7915 -17.0383 -16.9611 -15.1049 -15.0516 -15.0350 -14.9501
   -14.7613 -14.7219 -13.6622 -13.5730 -13.5531 -13.4746  -2.9208  -2.9020
    -1.5069  -1.3973  -1.2352  -1.2047  -0.9675  -0.6300   2.2761   2.3583
     2.5472   2.5849   2.9443   3.0145   3.3747   3.3870   4.3562   4.3914

          k =-0.2361 0.1363 0.1529 (  8430 PWs)   bands (ev):

   -33.7989 -33.7886 -17.0589 -16.9337 -15.1205 -15.1066 -14.8837 -14.8655
   -14.8197 -14.8014 -13.7219 -13.7038 -13.4402 -13.4131  -3.0499  -2.9771
    -1.4632  -1.4021  -1.3774  -1.2261  -1.1941  -0.4147   2.5019   2.5364
     2.6325   2.6973   2.8172   2.9501   3.4921   3.6953   4.1987   4.3444

          k =-0.4723-0.0000 0.2293 (  8445 PWs)   bands (ev):

   -33.7965 -33.7907 -17.0598 -16.9394 -15.1577 -15.0792 -14.9525 -14.8852
   -14.7903 -14.7418 -13.7188 -13.6296 -13.4914 -13.4373  -2.9641  -2.9086
    -1.4676  -1.3722  -1.3337  -1.1677  -1.0168  -0.5856   2.2901   2.4659
     2.5472   2.6184   2.8200   3.0286   3.2918   3.5462   4.3281   4.3922

          k = 0.4723 0.5453-0.0764 (  8450 PWs)   bands (ev):

   -33.7940 -33.7931 -17.0220 -16.9840 -15.1280 -15.0744 -15.0029 -14.8964
   -14.7693 -14.7409 -13.7031 -13.6184 -13.5077 -13.4449  -2.9072  -2.8518
    -1.5171  -1.3889  -1.2673  -1.1672  -0.8018  -0.7196   2.1970   2.2674
     2.5096   2.5810   2.8755   2.9510   3.3832   3.4231   4.3864   4.4423

          k = 0.2361 0.4090 0.0000 (  8447 PWs)   bands (ev):

   -33.7972 -33.7900 -17.0712 -16.9220 -15.1644 -15.0881 -14.9823 -14.8459
   -14.8083 -14.7215 -13.7215 -13.6550 -13.4567 -13.4464  -2.9641  -2.8941
    -1.5307  -1.3156  -1.2718  -1.1977  -1.1253  -0.5384   2.2812   2.5290
     2.5562   2.5661   2.7682   3.0197   3.3990   3.5322   4.3309   4.4054

          k =-0.4723 0.2727 0.3057 (  8442 PWs)   bands (ev):

   -33.7962 -33.7909 -17.1004 -16.8940 -15.2152 -15.1787 -14.8333 -14.8096
   -14.8065 -14.7152 -13.8054 -13.7024 -13.4269 -13.3986  -3.0457  -2.7778
    -1.5360  -1.3513  -1.2795  -1.1071  -0.9585  -0.6697   2.1296   2.4221
     2.5765   2.7418   2.7975   2.9637   3.2496   3.5663   4.2170   4.5003

          k = 0.4723 0.8180 0.0000 (  8439 PWs)   bands (ev):

   -33.7949 -33.7921 -17.0651 -16.9414 -15.1746 -15.1226 -14.8767 -14.8705
   -14.8007 -14.7364 -13.7810 -13.6419 -13.4721 -13.4084  -2.9672  -2.7900
    -1.4760  -1.4349  -1.3050  -1.1076  -0.8152  -0.6965   2.0995   2.3010
     2.6325   2.6483   2.8027   2.8029   3.3613   3.5022   4.3075   4.5053

          k = 0.0000-0.0000 0.2293 (  8406 PWs)   bands (ev):

   -33.7993 -33.7884 -17.0270 -16.9658 -15.1323 -15.1323 -14.8791 -14.8791
   -14.7836 -14.7302 -13.7851 -13.7851 -13.3788 -13.3788  -3.1886  -2.9833
    -1.4439  -1.4116  -1.4116  -1.2438  -1.2438  -0.3402   2.5159   2.5159
     2.6769   2.6769   3.0357   3.0357   3.6916   3.6916   4.0018   4.3524

          k =-0.2361-0.1363 0.3057 (  8432 PWs)   bands (ev):

   -33.7974 -33.7901 -17.0297 -16.9686 -15.1507 -15.0363 -15.0115 -14.8186
   -14.8095 -14.7569 -13.7601 -13.6065 -13.5298 -13.3903  -3.0874  -2.9816
    -1.4178  -1.3897  -1.2793  -1.2771  -1.1380  -0.5106   2.4922   2.5655
     2.6233   2.6961   2.7977   3.0895   3.4293   3.5625   4.1902   4.3318

          k = 0.7084 0.4090 0.0000 (  8410 PWs)   bands (ev):

   -33.7940 -33.7931 -17.0271 -16.9775 -15.1616 -15.0527 -14.9893 -14.8994
   -14.7666 -14.7319 -13.6837 -13.6419 -13.5221 -13.4326  -2.9902  -2.8441
    -1.5105  -1.3583  -1.2727  -1.1986  -0.8280  -0.7332   2.2406   2.3785
     2.5307   2.6458   2.8656   3.1854   3.1871   3.3974   4.3049   4.4252

          k = 0.4723 0.2727 0.0764 (  8455 PWs)   bands (ev):

   -33.7965 -33.7907 -17.0842 -16.9088 -15.1707 -15.1469 -14.9298 -14.8626
   -14.7918 -14.6971 -13.7642 -13.6182 -13.4893 -13.4229  -2.9971  -2.8190
    -1.5552  -1.3245  -1.2128  -1.2074  -1.0309  -0.6113   2.1747   2.4359
     2.5138   2.6815   2.7870   3.1653   3.2196   3.5178   4.2762   4.4636

          k =-0.2361 0.1363 0.3821 (  8423 PWs)   bands (ev):

   -33.7967 -33.7908 -17.0438 -16.9566 -15.1487 -15.0271 -14.9717 -14.8727
   -14.7987 -14.7799 -13.6969 -13.6149 -13.5055 -13.4518  -3.0464  -3.0436
    -1.4213  -1.3384  -1.3331  -1.2099  -1.0842  -0.5929   2.4746   2.5311
     2.6209   2.6767   2.9389   3.1446   3.2566   3.5959   4.2234   4.2728

          k = 0.7084 0.6816 0.0764 (  8424 PWs)   bands (ev):

   -33.7947 -33.7925 -17.0273 -16.9814 -15.1299 -15.0891 -14.9031 -14.8897
   -14.8061 -14.7832 -13.6852 -13.6314 -13.4978 -13.4586  -2.9581  -2.9375
    -1.4221  -1.4147  -1.3018  -1.1832  -0.8579  -0.7065   2.3082   2.3615
     2.6354   2.6996   2.8292   2.9444   3.2974   3.4602   4.3342   4.3612

          k = 0.4723 0.5453 0.1529 (  8443 PWs)   bands (ev):

   -33.7946 -33.7924 -17.0531 -16.9532 -15.1589 -15.1030 -14.9642 -14.8183
   -14.8037 -14.7449 -13.7635 -13.6095 -13.5080 -13.4113  -2.9509  -2.8069
    -1.5292  -1.3847  -1.2156  -1.2009  -0.8283  -0.6870   2.1275   2.2977
     2.5394   2.6479   2.8144   2.9066   3.3738   3.4559   4.3326   4.4875

          k = 0.7084-0.4090-0.2293 (  8423 PWs)   bands (ev):

   -33.7949 -33.7922 -17.0797 -16.9219 -15.2198 -15.1316 -14.8670 -14.8226
   -14.7984 -14.7208 -13.7526 -13.7306 -13.4342 -13.4068  -3.0448  -2.7900
    -1.5435  -1.3363  -1.2307  -1.1704  -0.8591  -0.7366   2.1531   2.3889
     2.6473   2.7359   2.7722   2.9490   3.2775   3.4807   4.2307   4.4823

          k = 0.0000-0.0000 0.4586 (  8394 PWs)   bands (ev):

   -33.7959 -33.7918 -17.0109 -16.9875 -15.0687 -15.0687 -14.9747 -14.9747
   -14.7632 -14.7429 -13.6425 -13.6425 -13.4900 -13.4900  -3.1661  -3.0940
    -1.3557  -1.3557  -1.2918  -1.2918  -1.0574  -0.6399   2.5659   2.5659
     2.6277   2.6277   3.2176   3.2176   3.4676   3.4676   4.0915   4.2218

          k = 0.9445 0.5453 0.1529 (  8393 PWs)   bands (ev):

   -33.7942 -33.7933 -17.0099 -16.9939 -15.1437 -15.0486 -14.9759 -14.8749
   -14.7899 -14.7577 -13.6858 -13.5814 -13.5563 -13.4496  -3.0881  -3.0265
    -1.4019  -1.3082  -1.3043  -1.2776  -0.8718  -0.7771   2.4733   2.5281
     2.6404   2.6611   2.9768   3.1788   3.3274   3.4127   4.2118   4.2702

     highest occupied level (ev):     4.5053

!    total energy              =    -367.42273810 Ry
     Harris-Foulkes estimate   =    -367.42273810 Ry
     estimated scf accuracy    <          2.6E-09 Ry

     The total energy is the sum of the following terms:

     one-electron contribution =    -145.93279380 Ry
     hartree contribution      =     102.45400862 Ry
     xc contribution           =     -75.26841715 Ry
     ewald contribution        =    -248.67553576 Ry

     convergence has been achieved in   8 iterations

     Forces acting on atoms (cartesian axes, Ry/au):

     atom    1 type  1   force =    -0.00000000   -0.00000000    0.00000000
     atom    2 type  1   force =     0.00000000    0.00000000    0.00000000
     atom    3 type  2   force =    -0.00000000    0.00000000    0.00000000
     atom    4 type  2   force =     0.00000000   -0.00000000    0.00000000
     atom    5 type  3   force =     0.00950322   -0.01646007   -0.00000000
     atom    6 type  3   force =    -0.01900645   -0.00000000   -0.00000000
     atom    7 type  3   force =     0.00950322    0.01646007    0.00000000
     atom    8 type  3   force =     0.01900645    0.00000000    0.00000000
     atom    9 type  3   force =    -0.00950322   -0.01646007   -0.00000000
     atom   10 type  3   force =    -0.00950322    0.01646007    0.00000000

     Total force =     0.046556     Total SCF correction =     0.000119


     Computing stress (Cartesian axis) and pressure

          total   stress  (Ry/bohr**3)                   (kbar)     P=   -0.75
  -0.00006929  -0.00000000  -0.00000000        -10.19     -0.00     -0.00
   0.00000000  -0.00006929  -0.00000000          0.00    -10.19     -0.00
   0.00000000  -0.00000000   0.00012337          0.00     -0.00     18.15


     number of scf cycles    =   2
     number of bfgs steps    =   1

     energy   old            =    -367.4016732385 Ry
     energy   new            =    -367.4227380967 Ry

     CASE: energy  _new < energy  _old

     new trust radius        =       0.0157130843 bohr
     new conv_thr            =       0.0000000019 Ry


ATOMIC_POSITIONS (crystal)
Ca       0.500000000   0.500000000   0.500000000
Ca       0.000000000   0.000000000   0.000000000
C        0.250000000   0.250000000   0.250000000
C        0.750000000   0.750000000   0.750000000
O        0.499406485   1.000593515   0.250000000
O        1.000593515   0.250000000   0.499406485
O        0.250000000   0.499406485   1.000593515
O       -0.000593515   0.750000000   0.500593515
O        0.750000000   0.500593515  -0.000593515
O        0.500593515  -0.000593515   0.750000000



     Writing output data file CCOrand5.save/
     NEW-OLD atomic charge density approx. for the potential

     Check: negative core charge=   -0.000003

     total cpu time spent up to now is      160.4 secs

     Self-consistent Calculation

     iteration #  1     ecut=    70.00 Ry     beta= 0.70
     CG style diagonalization
     c_bands:  1 eigenvalues not converged
     ethr =  1.00E-06,  avg # of iterations =  6.1

     total cpu time spent up to now is      171.8 secs

     total energy              =    -367.42314655 Ry
     Harris-Foulkes estimate   =    -367.42380984 Ry
     estimated scf accuracy    <       0.00089815 Ry

     iteration #  2     ecut=    70.00 Ry     beta= 0.70
     CG style diagonalization
     ethr =  1.40E-06,  avg # of iterations =  4.0

     total cpu time spent up to now is      179.5 secs

     total energy              =    -367.42340295 Ry
     Harris-Foulkes estimate   =    -367.42362686 Ry
     estimated scf accuracy    <       0.00040033 Ry

     iteration #  3     ecut=    70.00 Ry     beta= 0.70
     CG style diagonalization
     ethr =  6.26E-07,  avg # of iterations =  3.6

     total cpu time spent up to now is      186.3 secs

     total energy              =    -367.42350048 Ry
     Harris-Foulkes estimate   =    -367.42350354 Ry
     estimated scf accuracy    <       0.00000699 Ry

     iteration #  4     ecut=    70.00 Ry     beta= 0.70
     CG style diagonalization
     ethr =  1.09E-08,  avg # of iterations =  4.3

     total cpu time spent up to now is      194.5 secs

     total energy              =    -367.42350614 Ry
     Harris-Foulkes estimate   =    -367.42350819 Ry
     estimated scf accuracy    <       0.00000522 Ry

     iteration #  5     ecut=    70.00 Ry     beta= 0.70
     CG style diagonalization
     ethr =  8.16E-09,  avg # of iterations =  3.5

     total cpu time spent up to now is      201.3 secs

     total energy              =    -367.42350670 Ry
     Harris-Foulkes estimate   =    -367.42350685 Ry
     estimated scf accuracy    <       0.00000027 Ry

     iteration #  6     ecut=    70.00 Ry     beta= 0.70
     CG style diagonalization
     ethr =  4.15E-10,  avg # of iterations =  4.0

     total cpu time spent up to now is      208.9 secs

     total energy              =    -367.42350678 Ry
     Harris-Foulkes estimate   =    -367.42350679 Ry
     estimated scf accuracy    <       0.00000002 Ry

     iteration #  7     ecut=    70.00 Ry     beta= 0.70
     CG style diagonalization
     ethr =  2.91E-11,  avg # of iterations =  4.1

     total cpu time spent up to now is      216.7 secs

     total energy              =    -367.42350679 Ry
     Harris-Foulkes estimate   =    -367.42350679 Ry
     estimated scf accuracy    <          5.5E-09 Ry

     iteration #  8     ecut=    70.00 Ry     beta= 0.70
     CG style diagonalization
     ethr =  8.55E-12,  avg # of iterations =  3.9

     total cpu time spent up to now is      224.1 secs

     End of self-consistent calculation

          k = 0.0000 0.0000 0.0000 (  8493 PWs)   bands (ev):

   -33.7740 -33.7604 -16.9281 -16.8587 -15.1351 -15.1351 -14.8115 -14.8115
   -14.7674 -14.6892 -13.7980 -13.7980 -13.2813 -13.2813  -3.2132  -2.9564
    -1.5581  -1.4175  -1.4175  -1.2073  -1.2073  -0.1582   2.4904   2.4904
     2.6960   2.6960   2.9718   2.9718   3.7804   3.7804   3.9259   4.3718

          k =-0.2361-0.1363 0.0764 (  8442 PWs)   bands (ev):

   -33.7726 -33.7616 -16.9518 -16.8373 -15.1312 -15.0454 -14.9285 -14.8218
   -14.7628 -14.7499 -13.7347 -13.6166 -13.4120 -13.3147  -3.0886  -2.9850
    -1.4778  -1.3753  -1.3058  -1.2201  -1.2067  -0.3123   2.5065   2.5547
     2.6542   2.6919   2.8124   2.8604   3.6035   3.6246   4.1544   4.3326

          k =-0.4723-0.2727 0.1529 (  8447 PWs)   bands (ev):

   -33.7690 -33.7648 -16.9384 -16.8588 -15.0839 -15.0298 -15.0135 -14.9276
   -14.7310 -14.6905 -13.6102 -13.5202 -13.4998 -13.4208  -2.9553  -2.9315
    -1.4791  -1.3738  -1.2128  -1.1820  -0.9175  -0.5691   2.2741   2.3574
     2.5457   2.5858   2.9370   3.0103   3.3687   3.3802   4.3192   4.3553

          k =-0.2361 0.1363 0.1529 (  8430 PWs)   bands (ev):

   -33.7723 -33.7618 -16.9581 -16.8324 -15.0999 -15.0862 -14.8568 -14.8363
   -14.7943 -14.7767 -13.6717 -13.6525 -13.3844 -13.3571  -3.0745  -3.0124
    -1.4184  -1.3812  -1.3583  -1.2005  -1.1745  -0.3444   2.5000   2.5343
     2.6279   2.6973   2.8156   2.9477   3.4873   3.6914   4.1604   4.3063

          k =-0.4723-0.0000 0.2293 (  8445 PWs)   bands (ev):

   -33.7699 -33.7640 -16.9609 -16.8363 -15.1376 -15.0570 -14.9276 -14.8618
   -14.7629 -14.7118 -13.6684 -13.5772 -13.4376 -13.3818  -2.9989  -2.9364
    -1.4421  -1.3493  -1.3047  -1.1468  -0.9727  -0.5222   2.2875   2.4623
     2.5474   2.6175   2.8153   3.0234   3.2865   3.5401   4.2907   4.3561

          k = 0.4723 0.5453-0.0764 (  8450 PWs)   bands (ev):

   -33.7673 -33.7664 -16.9223 -16.8822 -15.1068 -15.0527 -14.9807 -14.8720
   -14.7407 -14.7095 -13.6525 -13.5665 -13.4539 -13.3899  -2.9404  -2.8838
    -1.4914  -1.3629  -1.2423  -1.1445  -0.7453  -0.6645   2.1951   2.2647
     2.5076   2.5804   2.8692   2.9449   3.3772   3.4168   4.3504   4.4064

          k = 0.2361 0.4090 0.0000 (  8447 PWs)   bands (ev):

   -33.7706 -33.7633 -16.9725 -16.8180 -15.1439 -15.0674 -14.9598 -14.8181
   -14.7841 -14.6901 -13.6703 -13.6033 -13.4024 -13.3911  -3.0001  -2.9215
    -1.5021  -1.2916  -1.2503  -1.1770  -1.0788  -0.4739   2.2795   2.5287
     2.5576   2.5624   2.7607   3.0163   3.3941   3.5259   4.2936   4.3693

          k =-0.4723 0.2727 0.3057 (  8442 PWs)   bands (ev):

   -33.7696 -33.7642 -17.0046 -16.7867 -15.1954 -15.1586 -14.8091 -14.7857
   -14.7815 -14.6800 -13.7565 -13.6520 -13.3715 -13.3419  -3.0811  -2.8059
    -1.5185  -1.3252  -1.2410  -1.0865  -0.9137  -0.6085   2.1261   2.4139
     2.5746   2.7446   2.7937   2.9587   3.2444   3.5610   4.1787   4.4640

          k = 0.4723 0.8180 0.0000 (  8439 PWs)   bands (ev):

   -33.7682 -33.7654 -16.9680 -16.8371 -15.1551 -15.0993 -14.8533 -14.8423
   -14.7766 -14.7049 -13.7323 -13.5911 -13.4170 -13.3521  -3.0018  -2.8207
    -1.4577  -1.4074  -1.2693  -1.0861  -0.7647  -0.6375   2.0957   2.2953
     2.6323   2.6482   2.7966   2.7969   3.3552   3.4963   4.2707   4.4698

          k = 0.0000-0.0000 0.2293 (  8406 PWs)   bands (ev):

   -33.7727 -33.7617 -16.9233 -16.8672 -15.1126 -15.1126 -14.8558 -14.8558
   -14.7574 -14.6942 -13.7353 -13.7353 -13.3224 -13.3224  -3.2122  -3.0159
    -1.3947  -1.3947  -1.3920  -1.2251  -1.2251  -0.2675   2.5102   2.5102
     2.6777   2.6777   3.0354   3.0354   3.6892   3.6892   3.9585   4.3130

          k =-0.2361-0.1363 0.3057 (  8432 PWs)   bands (ev):

   -33.7707 -33.7634 -16.9279 -16.8685 -15.1301 -15.0140 -14.9906 -14.7929
   -14.7837 -14.7240 -13.7093 -13.5545 -13.4755 -13.3347  -3.1131  -3.0139
    -1.3843  -1.3717  -1.2602  -1.2566  -1.0974  -0.4438   2.4882   2.5652
     2.6227   2.6949   2.7943   3.0854   3.4247   3.5571   4.1525   4.2930

          k = 0.7084 0.4090 0.0000 (  8410 PWs)   bands (ev):

   -33.7673 -33.7665 -16.9286 -16.8743 -15.1410 -15.0314 -14.9666 -14.8760
   -14.7392 -14.6980 -13.6326 -13.5908 -13.4678 -13.3779  -3.0217  -2.8760
    -1.4882  -1.3288  -1.2497  -1.1753  -0.7776  -0.6739   2.2383   2.3746
     2.5298   2.6466   2.8611   3.1795   3.1813   3.3896   4.2688   4.3879

          k = 0.4723 0.2727 0.0764 (  8455 PWs)   bands (ev):

   -33.7699 -33.7639 -16.9870 -16.8030 -15.1508 -15.1265 -14.9066 -14.8384
   -14.7655 -14.6636 -13.7142 -13.5665 -13.4350 -13.3671  -3.0329  -2.8473
    -1.5313  -1.2991  -1.1861  -1.1836  -0.9844  -0.5500   2.1718   2.4344
     2.5094   2.6839   2.7809   3.1619   3.2147   3.5110   4.2387   4.4272

          k =-0.2361 0.1363 0.3821 (  8423 PWs)   bands (ev):

   -33.7700 -33.7641 -16.9437 -16.8550 -15.1284 -15.0049 -14.9465 -14.8487
   -14.7703 -14.7517 -13.6456 -13.5634 -13.4506 -13.3966  -3.0750  -3.0719
    -1.4013  -1.3189  -1.3065  -1.1896  -1.0376  -0.5284   2.4723   2.5255
     2.6216   2.6759   2.9349   3.1410   3.2529   3.5921   4.1842   4.2340

          k = 0.7084 0.6816 0.0764 (  8424 PWs)   bands (ev):

   -33.7680 -33.7658 -16.9276 -16.8802 -15.1092 -15.0665 -14.8769 -14.8616
   -14.7815 -14.7558 -13.6348 -13.5798 -13.4433 -13.4032  -2.9903  -2.9670
    -1.3992  -1.3934  -1.2720  -1.1604  -0.8075  -0.6475   2.3045   2.3571
     2.6349   2.7008   2.8239   2.9389   3.2906   3.4539   4.2970   4.3247

          k = 0.4723 0.5453 0.1529 (  8443 PWs)   bands (ev):

   -33.7680 -33.7657 -16.9553 -16.8497 -15.1379 -15.0816 -14.9400 -14.7919
   -14.7789 -14.7128 -13.7142 -13.5583 -13.4534 -13.3554  -2.9850  -2.8380
    -1.5055  -1.3576  -1.1891  -1.1760  -0.7749  -0.6306   2.1244   2.2928
     2.5375   2.6486   2.8088   2.9006   3.3683   3.4488   4.2962   4.4518

          k = 0.7084-0.4090-0.2293 (  8423 PWs)   bands (ev):

   -33.7683 -33.7655 -16.9836 -16.8159 -15.2000 -15.1106 -14.8427 -14.7985
   -14.7742 -14.6851 -13.7034 -13.6804 -13.3781 -13.3513  -3.0785  -2.8194
    -1.5239  -1.3095  -1.2003  -1.1472  -0.8063  -0.6806   2.1499   2.3814
     2.6459   2.7386   2.7683   2.9435   3.2700   3.4753   4.1934   4.4455

          k = 0.0000-0.0000 0.4586 (  8394 PWs)   bands (ev):

   -33.7693 -33.7651 -16.9089 -16.8874 -15.0479 -15.0479 -14.9526 -14.9526
   -14.7338 -14.7098 -13.5905 -13.5905 -13.4355 -13.4355  -3.1909  -3.1216
    -1.3381  -1.3381  -1.2736  -1.2736  -1.0023  -0.5762   2.5626   2.5626
     2.6272   2.6272   3.2157   3.2157   3.4650   3.4650   4.0495   4.1811

          k = 0.9445 0.5453 0.1529 (  8393 PWs)   bands (ev):

   -33.7675 -33.7666 -16.9102 -16.8921 -15.1229 -15.0261 -14.9540 -14.8514
   -14.7618 -14.7259 -13.6342 -13.5277 -13.5037 -13.3949  -3.1159  -3.0545
    -1.3832  -1.2865  -1.2832  -1.2563  -0.8170  -0.7181   2.4700   2.5255
     2.6395   2.6598   2.9736   3.1743   3.3233   3.4085   4.1729   4.2310

     highest occupied level (ev):     4.4698

!    total energy              =    -367.42350679 Ry
     Harris-Foulkes estimate   =    -367.42350679 Ry
     estimated scf accuracy    <          4.1E-10 Ry

     The total energy is the sum of the following terms:

     one-electron contribution =    -144.72720993 Ry
     hartree contribution      =     101.86036075 Ry
     xc contribution           =     -75.20811434 Ry
     ewald contribution        =    -249.34854327 Ry

     convergence has been achieved in   8 iterations

     Forces acting on atoms (cartesian axes, Ry/au):

     atom    1 type  1   force =    -0.00000000    0.00000000    0.00000000
     atom    2 type  1   force =    -0.00000000    0.00000000   -0.00000000
     atom    3 type  2   force =     0.00000000   -0.00000000   -0.00000000
     atom    4 type  2   force =    -0.00000000    0.00000000   -0.00000000
     atom    5 type  3   force =    -0.00126157    0.00218511    0.00000000
     atom    6 type  3   force =     0.00252315   -0.00000000    0.00000000
     atom    7 type  3   force =    -0.00126157   -0.00218511   -0.00000000
     atom    8 type  3   force =    -0.00252315    0.00000000   -0.00000000
     atom    9 type  3   force =     0.00126157    0.00218511    0.00000000
     atom   10 type  3   force =     0.00126157   -0.00218511   -0.00000000

     Total force =     0.006180     Total SCF correction =     0.000047


     Computing stress (Cartesian axis) and pressure

          total   stress  (Ry/bohr**3)                   (kbar)     P=  -15.55
  -0.00022801  -0.00000000  -0.00000000        -33.54     -0.00     -0.00
  -0.00000000  -0.00022801  -0.00000000         -0.00    -33.54     -0.00
  -0.00000000  -0.00000000   0.00013892         -0.00     -0.00     20.44


     number of scf cycles    =   3
     number of bfgs steps    =   2

     energy   old            =    -367.4227380967 Ry
     energy   new            =    -367.4235067896 Ry

     CASE: energy  _new < energy  _old

     new trust radius        =       0.0018414839 bohr
     new conv_thr            =       0.0000000003 Ry


ATOMIC_POSITIONS (crystal)
Ca       0.500000000   0.500000000   0.500000000
Ca      -0.000000000   0.000000000  -0.000000000
C        0.250000000   0.250000000   0.250000000
C        0.750000000   0.750000000   0.750000000
O        0.499219548   1.000780452   0.250000000
O        1.000780452   0.250000000   0.499219548
O        0.250000000   0.499219548   1.000780452
O       -0.000780452   0.750000000   0.500780452
O        0.750000000   0.500780452  -0.000780452
O        0.500780452  -0.000780452   0.750000000



     Writing output data file CCOrand5.save/
     NEW-OLD atomic charge density approx. for the potential

     Check: negative core charge=   -0.000003

     total cpu time spent up to now is      224.9 secs

     Self-consistent Calculation

     iteration #  1     ecut=    70.00 Ry     beta= 0.70
     CG style diagonalization
     ethr =  1.00E-06,  avg # of iterations =  2.8

     Threshold (ethr) on eigenvalues was too large:
     Diagonalizing with lowered threshold

     CG style diagonalization
     c_bands:  1 eigenvalues not converged
     c_bands:  1 eigenvalues not converged
     ethr =  1.55E-08,  avg # of iterations =  4.4

     total cpu time spent up to now is      238.7 secs

     total energy              =    -367.42351623 Ry
     Harris-Foulkes estimate   =    -367.42352523 Ry
     estimated scf accuracy    <       0.00001221 Ry

     iteration #  2     ecut=    70.00 Ry     beta= 0.70
     CG style diagonalization
     ethr =  1.91E-08,  avg # of iterations =  4.0

     total cpu time spent up to now is      246.4 secs

     total energy              =    -367.42351977 Ry
     Harris-Foulkes estimate   =    -367.42352289 Ry
     estimated scf accuracy    <       0.00000562 Ry

     iteration #  3     ecut=    70.00 Ry     beta= 0.70
     CG style diagonalization
     ethr =  8.78E-09,  avg # of iterations =  3.6

     total cpu time spent up to now is      253.3 secs

     total energy              =    -367.42352109 Ry
     Harris-Foulkes estimate   =    -367.42352114 Ry
     estimated scf accuracy    <       0.00000011 Ry

     iteration #  4     ecut=    70.00 Ry     beta= 0.70
     CG style diagonalization
     ethr =  1.72E-10,  avg # of iterations =  4.3

     total cpu time spent up to now is      261.5 secs

     total energy              =    -367.42352118 Ry
     Harris-Foulkes estimate   =    -367.42352120 Ry
     estimated scf accuracy    <       0.00000007 Ry

     iteration #  5     ecut=    70.00 Ry     beta= 0.70
     CG style diagonalization
     ethr =  1.15E-10,  avg # of iterations =  3.5

     total cpu time spent up to now is      268.2 secs

     total energy              =    -367.42352118 Ry
     Harris-Foulkes estimate   =    -367.42352119 Ry
     estimated scf accuracy    <          3.6E-09 Ry

     iteration #  6     ecut=    70.00 Ry     beta= 0.70
     CG style diagonalization
     ethr =  5.61E-12,  avg # of iterations =  4.0

     total cpu time spent up to now is      275.9 secs

     total energy              =    -367.42352119 Ry
     Harris-Foulkes estimate   =    -367.42352119 Ry
     estimated scf accuracy    <          3.1E-10 Ry

     iteration #  7     ecut=    70.00 Ry     beta= 0.70
     CG style diagonalization
     ethr =  4.91E-13,  avg # of iterations =  4.0

     total cpu time spent up to now is      283.4 secs

     End of self-consistent calculation

          k = 0.0000 0.0000 0.0000 (  8493 PWs)   bands (ev):

   -33.7771 -33.7635 -16.9402 -16.8701 -15.1373 -15.1373 -14.8142 -14.8142
   -14.7703 -14.6936 -13.8036 -13.8036 -13.2879 -13.2879  -3.2105  -2.9522
    -1.5642  -1.4194  -1.4194  -1.2095  -1.2095  -0.1671   2.4912   2.4912
     2.6959   2.6959   2.9717   2.9717   3.7807   3.7807   3.9310   4.3763

          k =-0.2361-0.1363 0.0764 (  8442 PWs)   bands (ev):

   -33.7757 -33.7647 -16.9635 -16.8489 -15.1335 -15.0479 -14.9315 -14.8247
   -14.7659 -14.7535 -13.7404 -13.6225 -13.4184 -13.3212  -3.0857  -2.9808
    -1.4828  -1.3775  -1.3086  -1.2230  -1.2090  -0.3205   2.5067   2.5549
     2.6546   2.6919   2.8127   2.8607   3.6042   3.6252   4.1587   4.3370

          k =-0.4723-0.2727 0.1529 (  8447 PWs)   bands (ev):

   -33.7721 -33.7679 -16.9499 -16.8707 -15.0863 -15.0323 -15.0160 -14.9302
   -14.7345 -14.6942 -13.6162 -13.5264 -13.5059 -13.4270  -2.9513  -2.9281
    -1.4823  -1.3765  -1.2155  -1.1847  -0.9234  -0.5762   2.2743   2.3576
     2.5459   2.5857   2.9379   3.0108   3.3695   3.3810   4.3235   4.3595

          k =-0.2361 0.1363 0.1529 (  8430 PWs)   bands (ev):

   -33.7754 -33.7650 -16.9698 -16.8441 -15.1023 -15.0886 -14.8600 -14.8397
   -14.7973 -14.7796 -13.6775 -13.6584 -13.3909 -13.3635  -3.0717  -3.0083
    -1.4233  -1.3838  -1.3605  -1.2035  -1.1768  -0.3526   2.5002   2.5346
     2.6284   2.6973   2.8158   2.9479   3.4879   3.6919   4.1648   4.3107

          k =-0.4723-0.0000 0.2293 (  8445 PWs)   bands (ev):

   -33.7730 -33.7671 -16.9723 -16.8482 -15.1399 -15.0595 -14.9305 -14.8645
   -14.7661 -14.7153 -13.6742 -13.5833 -13.4438 -13.3882  -2.9949  -2.9331
    -1.4450  -1.3520  -1.3081  -1.1492  -0.9779  -0.5296   2.2879   2.4627
     2.5474   2.6177   2.8159   3.0240   3.2872   3.5409   4.2951   4.3603

          k = 0.4723 0.5453-0.0764 (  8450 PWs)   bands (ev):

   -33.7704 -33.7695 -16.9339 -16.8940 -15.1092 -15.0552 -14.9833 -14.8748
   -14.7440 -14.7132 -13.6583 -13.5725 -13.4601 -13.3963  -2.9365  -2.8801
    -1.4944  -1.3659  -1.2453  -1.1472  -0.7519  -0.6710   2.1953   2.2651
     2.5079   2.5805   2.8699   2.9457   3.3779   3.4176   4.3546   4.4106

          k = 0.2361 0.4090 0.0000 (  8447 PWs)   bands (ev):

   -33.7737 -33.7664 -16.9839 -16.8301 -15.1463 -15.0698 -14.9624 -14.8214
   -14.7869 -14.6938 -13.6762 -13.6093 -13.4087 -13.3975  -2.9959  -2.9183
    -1.5053  -1.2944  -1.2528  -1.1795  -1.0843  -0.4814   2.2797   2.5288
     2.5575   2.5628   2.7616   3.0167   3.3947   3.5267   4.2979   4.3735

          k =-0.4723 0.2727 0.3057 (  8442 PWs)   bands (ev):

   -33.7727 -33.7673 -17.0157 -16.7991 -15.1977 -15.1609 -14.8120 -14.7885
   -14.7845 -14.6841 -13.7621 -13.6578 -13.3780 -13.3484  -3.0770  -2.8026
    -1.5206  -1.3283  -1.2453  -1.0889  -0.9190  -0.6156   2.1265   2.4149
     2.5749   2.7443   2.7942   2.9593   3.2451   3.5617   4.1832   4.4682

          k = 0.4723 0.8180 0.0000 (  8439 PWs)   bands (ev):

   -33.7713 -33.7686 -16.9793 -16.8492 -15.1573 -15.1020 -14.8560 -14.8456
   -14.7794 -14.7086 -13.7379 -13.5970 -13.4234 -13.3587  -2.9977  -2.8171
    -1.4599  -1.4106  -1.2734  -1.0886  -0.7706  -0.6444   2.0962   2.2959
     2.6323   2.6482   2.7973   2.7976   3.3559   3.4971   4.2749   4.4739

          k = 0.0000-0.0000 0.2293 (  8406 PWs)   bands (ev):

   -33.7758 -33.7648 -16.9354 -16.8786 -15.1149 -15.1149 -14.8585 -14.8585
   -14.7604 -14.6985 -13.7411 -13.7411 -13.3289 -13.3289  -3.2094  -3.0121
    -1.3981  -1.3967  -1.3967  -1.2273  -1.2273  -0.2759   2.5109   2.5109
     2.6776   2.6776   3.0355   3.0355   3.6895   3.6895   3.9636   4.3176

          k =-0.2361-0.1363 0.3057 (  8432 PWs)   bands (ev):

   -33.7738 -33.7665 -16.9397 -16.8800 -15.1325 -15.0166 -14.9930 -14.7959
   -14.7868 -14.7279 -13.7152 -13.5605 -13.4818 -13.3411  -3.1101  -3.0101
    -1.3881  -1.3738  -1.2624  -1.2590  -1.1022  -0.4515   2.4887   2.5653
     2.6228   2.6950   2.7947   3.0859   3.4253   3.5578   4.1569   4.2976

          k = 0.7084 0.4090 0.0000 (  8410 PWs)   bands (ev):

   -33.7704 -33.7696 -16.9400 -16.8863 -15.1433 -15.0338 -14.9693 -14.8788
   -14.7424 -14.7020 -13.6385 -13.5967 -13.4741 -13.3842  -3.0180  -2.8723
    -1.4908  -1.3322  -1.2524  -1.1780  -0.7835  -0.6808   2.2386   2.3751
     2.5299   2.6465   2.8616   3.1802   3.1820   3.3905   4.2730   4.3922

          k = 0.4723 0.2727 0.0764 (  8455 PWs)   bands (ev):

   -33.7730 -33.7671 -16.9983 -16.8153 -15.1531 -15.1288 -14.9093 -14.8412
   -14.7686 -14.6676 -13.7199 -13.5725 -13.4413 -13.3736  -3.0287  -2.8440
    -1.5340  -1.3021  -1.1885  -1.1869  -0.9900  -0.5571   2.1722   2.4346
     2.5099   2.6836   2.7816   3.1623   3.2153   3.5118   4.2431   4.4314

          k =-0.2361 0.1363 0.3821 (  8423 PWs)   bands (ev):

   -33.7731 -33.7672 -16.9553 -16.8668 -15.1308 -15.0075 -14.9494 -14.8515
   -14.7736 -14.7550 -13.6515 -13.5693 -13.4569 -13.4030  -3.0713  -3.0689
    -1.4036  -1.3212  -1.3095  -1.1920  -1.0431  -0.5359   2.4726   2.5262
     2.6215   2.6760   2.9354   3.1414   3.2533   3.5926   4.1888   4.2385

          k = 0.7084 0.6816 0.0764 (  8424 PWs)   bands (ev):

   -33.7712 -33.7689 -16.9391 -16.8919 -15.1116 -15.0691 -14.8799 -14.8649
   -14.7844 -14.7591 -13.6406 -13.5858 -13.4496 -13.4097  -2.9865  -2.9635
    -1.4018  -1.3959  -1.2755  -1.1631  -0.8134  -0.6544   2.3049   2.3577
     2.6350   2.7006   2.8245   2.9395   3.2914   3.4546   4.3013   4.3290

          k = 0.4723 0.5453 0.1529 (  8443 PWs)   bands (ev):

   -33.7711 -33.7688 -16.9666 -16.8617 -15.1403 -15.0841 -14.9428 -14.7950
   -14.7818 -14.7165 -13.7199 -13.5642 -13.4597 -13.3619  -2.9810  -2.8343
    -1.5082  -1.3608  -1.1922  -1.1789  -0.7812  -0.6372   2.1248   2.2934
     2.5378   2.6485   2.8095   2.9013   3.3689   3.4496   4.3005   4.4560

          k = 0.7084-0.4090-0.2293 (  8423 PWs)   bands (ev):

   -33.7714 -33.7686 -16.9947 -16.8282 -15.2023 -15.1130 -14.8455 -14.8013
   -14.7770 -14.6893 -13.7091 -13.6862 -13.3846 -13.3577  -3.0745  -2.8160
    -1.5262  -1.3126  -1.2038  -1.1499  -0.8125  -0.6871   2.1503   2.3823
     2.6461   2.7383   2.7688   2.9442   3.2709   3.4760   4.1977   4.4498

          k = 0.0000-0.0000 0.4586 (  8394 PWs)   bands (ev):

   -33.7724 -33.7682 -16.9207 -16.8990 -15.0503 -15.0503 -14.9552 -14.9552
   -14.7373 -14.7137 -13.5965 -13.5965 -13.4418 -13.4418  -3.1880  -3.1183
    -1.3402  -1.3402  -1.2757  -1.2757  -1.0087  -0.5836   2.5630   2.5630
     2.6273   2.6273   3.2159   3.2159   3.4653   3.4653   4.0544   4.1858

          k = 0.9445 0.5453 0.1529 (  8393 PWs)   bands (ev):

   -33.7706 -33.7697 -16.9218 -16.9039 -15.1253 -15.0287 -14.9565 -14.8541
   -14.7651 -14.7297 -13.6402 -13.5339 -13.5098 -13.4013  -3.1126  -3.0512
    -1.3854  -1.2890  -1.2857  -1.2588  -0.8234  -0.7250   2.4704   2.5258
     2.6396   2.6600   2.9740   3.1748   3.3238   3.4090   4.1774   4.2356

     highest occupied level (ev):     4.4739

!    total energy              =    -367.42352119 Ry
     Harris-Foulkes estimate   =    -367.42352119 Ry
     estimated scf accuracy    <          6.9E-11 Ry

     The total energy is the sum of the following terms:

     one-electron contribution =    -144.86660673 Ry
     hartree contribution      =     101.92890802 Ry
     xc contribution           =     -75.21509139 Ry
     ewald contribution        =    -249.27073108 Ry

     convergence has been achieved in   7 iterations

     Forces acting on atoms (cartesian axes, Ry/au):

     atom    1 type  1   force =     0.00000000    0.00000000    0.00000000
     atom    2 type  1   force =     0.00000000   -0.00000000    0.00000000
     atom    3 type  2   force =    -0.00000000    0.00000000   -0.00000000
     atom    4 type  2   force =     0.00000000    0.00000000    0.00000000
     atom    5 type  3   force =    -0.00003303    0.00005721    0.00000000
     atom    6 type  3   force =     0.00006606   -0.00000000    0.00000000
     atom    7 type  3   force =    -0.00003303   -0.00005721   -0.00000000
     atom    8 type  3   force =    -0.00006606    0.00000000   -0.00000000
     atom    9 type  3   force =     0.00003303    0.00005721    0.00000000
     atom   10 type  3   force =     0.00003303   -0.00005721   -0.00000000

     Total force =     0.000162     Total SCF correction =     0.000027
     SCF correction compared to forces is large: reduce conv_thr to get better values


     Computing stress (Cartesian axis) and pressure

          total   stress  (Ry/bohr**3)                   (kbar)     P=  -13.87
  -0.00020992  -0.00000000  -0.00000000        -30.88     -0.00     -0.00
  -0.00000000  -0.00020992  -0.00000000         -0.00    -30.88     -0.00
  -0.00000000  -0.00000000   0.00013695         -0.00     -0.00     20.15


     bfgs converged in   4 scf cycles and   3 bfgs steps
     (criteria: energy <  1.0E-04 Ry, force <  1.0E-03 Ry/Bohr)

     End of BFGS Geometry Optimization

     Final energy   =    -367.4235211852 Ry
Begin final coordinates

ATOMIC_POSITIONS (crystal)
Ca       0.500000000   0.500000000   0.500000000
Ca      -0.000000000   0.000000000  -0.000000000
C        0.250000000   0.250000000   0.250000000
C        0.750000000   0.750000000   0.750000000
O        0.499219548   1.000780452   0.250000000
O        1.000780452   0.250000000   0.499219548
O        0.250000000   0.499219548   1.000780452
O       -0.000780452   0.750000000   0.500780452
O        0.750000000   0.500780452  -0.000780452
O        0.500780452  -0.000780452   0.750000000
End final coordinates



     Writing output data file CCOrand5.save/
 
     init_run     :      2.73s CPU      3.95s WALL (       1 calls)
     electrons    :    247.45s CPU    275.57s WALL (       4 calls)
     update_pot   :      0.22s CPU      0.24s WALL (       3 calls)
     forces       :      0.93s CPU      1.03s WALL (       4 calls)
     stress       :      1.57s CPU      1.70s WALL (       4 calls)

     Called by init_run:
     wfcinit      :      2.40s CPU      3.14s WALL (       1 calls)
     potinit      :      0.05s CPU      0.11s WALL (       1 calls)
     hinit0       :      0.18s CPU      0.40s WALL (       1 calls)

     Called by electrons:
     c_bands      :    230.98s CPU    257.85s WALL (      34 calls)
     sum_band     :     15.37s CPU     16.20s WALL (      34 calls)
     v_of_rho     :      0.70s CPU      0.75s WALL (      37 calls)
     newd         :      0.32s CPU      0.41s WALL (      37 calls)
     mix_rho      :      0.09s CPU      0.14s WALL (      34 calls)

     Called by c_bands:
     init_us_2    :      0.35s CPU      0.42s WALL (    1463 calls)
     ccgdiagg     :    186.08s CPU    203.56s WALL (     653 calls)
     wfcrot       :     46.84s CPU     56.26s WALL (     577 calls)

     Called by sum_band:
     sum_band:bec :      0.18s CPU      0.20s WALL (     646 calls)
     addusdens    :      0.22s CPU      0.26s WALL (      34 calls)

     Called by *cgdiagg:
     h_psi        :    156.35s CPU    167.50s WALL (   70615 calls)
     s_psi        :      8.38s CPU      9.57s WALL (  140653 calls)
     cdiaghg      :     16.45s CPU     24.08s WALL (     577 calls)

     Called by h_psi:
     h_psi:pot    :    154.44s CPU    165.29s WALL (   70615 calls)
     h_psi:calbec :     18.42s CPU     19.96s WALL (   70615 calls)
     vloc_psi     :    127.43s CPU    136.03s WALL (   70615 calls)
     add_vuspsi   :      6.23s CPU      6.90s WALL (   70615 calls)
     hs_1psi      :    139.18s CPU    149.89s WALL (   70038 calls)
     s_1psi       :     16.75s CPU     19.04s WALL (   70038 calls)

     General routines
     calbec       :     27.50s CPU     30.73s WALL (  141679 calls)
     fft          :      0.81s CPU      0.91s WALL (     511 calls)
     ffts         :      0.05s CPU      0.05s WALL (      34 calls)
     fftw         :    134.56s CPU    143.17s WALL (  198436 calls)
 
     Parallel routines
     fft_scatt_xy :      6.53s CPU      6.96s WALL (  198981 calls)
     fft_scatt_yz :    107.29s CPU    114.43s WALL (  198981 calls)
 
     PWSCF        :   4m16.33s CPU   4m48.95s WALL

 
   This run was terminated on:  14: 2:38   4May2022            

=------------------------------------------------------------------------------=
   JOB DONE.
=------------------------------------------------------------------------------=
TACC:  Shutdown complete. Exiting. 
