TACC:  Starting up job 9581717 
TACC:  Starting parallel tasks... 

     Program PHONON v.6.4.1 starts on  4May2022 at 14: 2:45 

     This program is part of the open-source Quantum ESPRESSO suite
     for quantum simulation of materials; please cite
         "P. Giannozzi et al., J. Phys.:Condens. Matter 21 395502 (2009);
         "P. Giannozzi et al., J. Phys.:Condens. Matter 29 465901 (2017);
          URL http://www.quantum-espresso.org", 
     in publications or presentations arising from this work. More details at
     http://www.quantum-espresso.org/quote

     Parallel version (MPI & OpenMP), running on     120 processor cores
     Number of MPI processes:               120
     Threads/MPI process:                     1

     MPI processes distributed on     2 nodes
     R & G space division:  proc/nbgrp/npool/nimage =     120

     Reading data from directory:
     ./CCOrand5.save/

     IMPORTANT: XC functional enforced from input :
     Exchange-correlation      = PBE ( 1  4  3  4 0 0)
     Any further DFT definition will be discarded
     Please, verify this is what you really want

 
     Parallelization info
     --------------------
     sticks:   dense  smooth     PW     G-vecs:    dense   smooth      PW
     Min          19      19      5                  560      560      84
     Max          20      20      6                  564      564      89
     Sum        2303    2303    665                67453    67453   10331
 

     Check: negative core charge=   -0.000003

     Calculation of q =    0.0000000   0.0000000   0.0000000

     Phonons of CaCO3                                                           

     bravais-lattice index     =            5
     lattice parameter (alat)  =      11.6303  a.u.
     unit-cell volume          =     852.5484 (a.u.)^3
     number of atoms/cell      =           10
     number of atomic types    =            3
     kinetic-energy cut-off    =      70.0000  Ry
     charge density cut-off    =     280.0000  Ry
     convergence threshold     =      1.0E-16
     beta                      =       0.7000
     number of iterations used =            4
     Exchange-correlation      = PBE ( 1  4  3  4 0 0)


     celldm(1)=   11.63030  celldm(2)=    0.00000  celldm(3)=    0.00000
     celldm(4)=    0.64130  celldm(5)=    0.00000  celldm(6)=    0.00000

     crystal axes: (cart. coord. in units of alat)
               a(1) = (  0.4235 -0.2445  0.8723 )  
               a(2) = (  0.0000  0.4890  0.8723 )  
               a(3) = ( -0.4235 -0.2445  0.8723 )  

     reciprocal axes: (cart. coord. in units 2 pi/alat)
               b(1) = (  1.1806 -0.6816  0.3821 )  
               b(2) = ( -0.0000  1.3633  0.3821 )  
               b(3) = ( -1.1806 -0.6816  0.3821 )  


     Atoms inside the unit cell: 

     Cartesian axes

     site n.  atom      mass           positions (alat units)
        1     Ca  40.0780   tau(    1) = (   -0.00000   -0.00000    1.30842  )
        2     Ca  40.0780   tau(    2) = (    0.00000    0.00000   -0.00000  )
        3     C   12.0107   tau(    3) = (   -0.00000   -0.00000    0.65421  )
        4     C   12.0107   tau(    4) = (   -0.00000   -0.00000    1.96262  )
        5     O   15.9990   tau(    5) = (    0.10554    0.30621    1.52648  )
        6     O   15.9990   tau(    6) = (    0.21241   -0.24451    1.52648  )
        7     O   15.9990   tau(    7) = (   -0.31795   -0.06170    1.52648  )
        8     O   15.9990   tau(    8) = (   -0.21241    0.24451    1.09035  )
        9     O   15.9990   tau(    9) = (    0.31795    0.06170    1.09035  )
       10     O   15.9990   tau(   10) = (   -0.10554   -0.30621    1.09035  )

     Computing dynamical matrix for 
                    q = (   0.0000000   0.0000000   0.0000000 )
 
     13 Sym.Ops. (with q -> -q+G )


     G cutoff =  959.3567  (    562 G-vectors)     FFT grid: ( 64, 64, 64)
     number of k points=    19
                       cart. coord. in units 2pi/alat
        k(    1) = (   0.0000000   0.0000000   0.0000000), wk =   0.0160000
        k(    2) = (  -0.2361290  -0.1363291   0.0764283), wk =   0.0960000
        k(    3) = (  -0.4722580  -0.2726583   0.1528567), wk =   0.0960000
        k(    4) = (  -0.2361290   0.1363291   0.1528567), wk =   0.0960000
        k(    5) = (  -0.4722580  -0.0000000   0.2292850), wk =   0.1920000
        k(    6) = (   0.4722580   0.5453165  -0.0764283), wk =   0.1920000
        k(    7) = (   0.2361290   0.4089874   0.0000000), wk =   0.0960000
        k(    8) = (  -0.4722580   0.2726583   0.3057134), wk =   0.0960000
        k(    9) = (   0.4722580   0.8179748   0.0000000), wk =   0.0960000
        k(   10) = (   0.0000000  -0.0000000   0.2292850), wk =   0.0320000
        k(   11) = (  -0.2361290  -0.1363291   0.3057134), wk =   0.0960000
        k(   12) = (   0.7083870   0.4089874   0.0000000), wk =   0.0960000
        k(   13) = (   0.4722580   0.2726583   0.0764283), wk =   0.0960000
        k(   14) = (  -0.2361290   0.1363291   0.3821417), wk =   0.0960000
        k(   15) = (   0.7083870   0.6816457   0.0764283), wk =   0.1920000
        k(   16) = (   0.4722580   0.5453165   0.1528567), wk =   0.1920000
        k(   17) = (   0.7083870  -0.4089874  -0.2292850), wk =   0.0960000
        k(   18) = (   0.0000000  -0.0000000   0.4585701), wk =   0.0320000
        k(   19) = (   0.9445160   0.5453165   0.1528567), wk =   0.0960000

     PseudoPot. # 1 for Ca read from file:
     ./Ca_PBE.UPF
     MD5 check sum: 403a4c14b9e4d4dfdc3024c9a3812218
     Pseudo is Ultrasoft + core correction, Zval = 10.0
     Generated by new atomic code, or converted to UPF format
     Using radial grid of  845 points,  6 beta functions with: 
                l(1) =   0
                l(2) =   0
                l(3) =   1
                l(4) =   1
                l(5) =   2
                l(6) =   2
     Q(r) pseudized with  8 coefficients,  rinner =    1.500   1.500   1.500
                                                       1.500   1.500

     PseudoPot. # 2 for C  read from file:
     ./C_PBE.UPF
     MD5 check sum: d1aef80898a10debaa0f26306b886e00
     Pseudo is Ultrasoft + core correction, Zval =  4.0
     Generated by new atomic code, or converted to UPF format
     Using radial grid of  721 points,  4 beta functions with: 
                l(1) =   0
                l(2) =   0
                l(3) =   1
                l(4) =   1
     Q(r) pseudized with  8 coefficients,  rinner =    1.100   1.100   1.100


     PseudoPot. # 3 for O  read from file:
     ./O_PBE.UPF
     MD5 check sum: 734c27235a0248c51dbae37a1fbe46ec
     Pseudo is Ultrasoft + core correction, Zval =  6.0
     Generated by new atomic code, or converted to UPF format
     Using radial grid of  737 points,  5 beta functions with: 
                l(1) =   0
                l(2) =   0
                l(3) =   1
                l(4) =   1
                l(5) =   2
     Q(r) pseudized with  8 coefficients,  rinner =    0.900   0.900   0.900
                                                       0.900   0.900

     Mode symmetry, D_3d (-3m)  point group:


     Electric field:
     Dielectric constant
     Born effective charges as d Force / d E


     Atomic displacements:
     There are  20 irreducible representations

     Representation     1      1 modes -A_1g L_1  To be done

     Representation     2      1 modes -A_2g L_2  To be done

     Representation     3      1 modes -A_2g L_2  To be done

     Representation     4      1 modes -A_2g L_2  To be done

     Representation     5      2 modes -E_g  L_3  To be done

     Representation     6      2 modes -E_g  L_3  To be done

     Representation     7      2 modes -E_g  L_3  To be done

     Representation     8      2 modes -E_g  L_3  To be done

     Representation     9      1 modes -A_1u L_1'  To be done

     Representation    10      1 modes -A_1u L_1'  To be done

     Representation    11      1 modes -A_2u L_2'  To be done

     Representation    12      1 modes -A_2u L_2'  To be done

     Representation    13      1 modes -A_2u L_2'  To be done

     Representation    14      1 modes -A_2u L_2'  To be done

     Representation    15      2 modes -E_u  L_3'  To be done

     Representation    16      2 modes -E_u  L_3'  To be done

     Representation    17      2 modes -E_u  L_3'  To be done

     Representation    18      2 modes -E_u  L_3'  To be done

     Representation    19      2 modes -E_u  L_3'  To be done

     Representation    20      2 modes -E_u  L_3'  To be done



     Alpha used in Ewald sum =   2.5000
     PHONON       :     22.20s CPU     26.29s WALL


     Electric Fields Calculation

      iter #   1 total cpu time :   131.7 secs   av.it.:   6.4
      thresh= 1.000E-02 alpha_mix =  0.700 |ddv_scf|^2 =  8.465E-09

      iter #   2 total cpu time :   182.7 secs   av.it.:  14.9
      thresh= 9.200E-06 alpha_mix =  0.700 |ddv_scf|^2 =  8.989E-09

      iter #   3 total cpu time :   231.0 secs   av.it.:  13.9
      thresh= 9.481E-06 alpha_mix =  0.700 |ddv_scf|^2 =  8.748E-10

      iter #   4 total cpu time :   279.2 secs   av.it.:  13.9
      thresh= 2.958E-06 alpha_mix =  0.700 |ddv_scf|^2 =  1.427E-11

      iter #   5 total cpu time :   326.5 secs   av.it.:  13.4
      thresh= 3.778E-07 alpha_mix =  0.700 |ddv_scf|^2 =  1.588E-12

      iter #   6 total cpu time :   374.8 secs   av.it.:  13.9
      thresh= 1.260E-07 alpha_mix =  0.700 |ddv_scf|^2 =  6.171E-14

      iter #   7 total cpu time :   422.4 secs   av.it.:  13.7
      thresh= 2.484E-08 alpha_mix =  0.700 |ddv_scf|^2 =  9.656E-16

      iter #   8 total cpu time :   470.1 secs   av.it.:  13.8
      thresh= 3.107E-09 alpha_mix =  0.700 |ddv_scf|^2 =  6.797E-17

     End of electric fields calculation

          Dielectric constant in cartesian axis 

          (       2.985853428      -0.000000000       0.000000000 )
          (      -0.000000000       2.985853428       0.000000000 )
          (      -0.000000000       0.000000000       2.290116873 )

          Effective charges (d Force / dE) in cartesian axis

           atom      1   Ca 
      Ex  (        2.60175       -0.22506       -0.00000 )
      Ey  (        0.22506        2.60175       -0.00000 )
      Ez  (        0.00000       -0.00000        2.31656 )
           atom      2   Ca 
      Ex  (        2.60175        0.22506        0.00000 )
      Ey  (       -0.22506        2.60175       -0.00000 )
      Ez  (       -0.00000       -0.00000        2.31656 )
           atom      3   C  
      Ex  (        3.26429       -0.00000        0.00000 )
      Ey  (       -0.00000        3.26429       -0.00000 )
      Ez  (       -0.00000       -0.00000        0.24773 )
           atom      4   C  
      Ex  (        3.26429        0.00000        0.00000 )
      Ey  (        0.00000        3.26429       -0.00000 )
      Ez  (        0.00000       -0.00000        0.24773 )
           atom      5   O  
      Ex  (       -1.59209        0.62929       -0.18398 )
      Ey  (        0.62929       -2.31874       -0.10622 )
      Ez  (       -0.17200       -0.09930       -0.85509 )
           atom      6   O  
      Ex  (       -2.68206       -0.00000       -0.00000 )
      Ey  (        0.00000       -1.22877        0.21244 )
      Ez  (       -0.00000        0.19861       -0.85509 )
           atom      7   O  
      Ex  (       -1.59209       -0.62929        0.18398 )
      Ey  (       -0.62929       -2.31874       -0.10622 )
      Ez  (        0.17200       -0.09930       -0.85509 )
           atom      8   O  
      Ex  (       -2.68206       -0.00000       -0.00000 )
      Ey  (        0.00000       -1.22877        0.21244 )
      Ez  (       -0.00000        0.19861       -0.85509 )
           atom      9   O  
      Ex  (       -1.59209       -0.62929        0.18398 )
      Ey  (       -0.62929       -2.31874       -0.10622 )
      Ez  (        0.17200       -0.09930       -0.85509 )
           atom     10   O  
      Ex  (       -1.59209        0.62929       -0.18398 )
      Ey  (        0.62929       -2.31874       -0.10622 )
      Ez  (       -0.17200       -0.09930       -0.85509 )


     Representation #  1 mode #   1

     Self-consistent Calculation

      iter #   1 total cpu time :   593.6 secs   av.it.:   5.9
      thresh= 1.000E-02 alpha_mix =  0.700 |ddv_scf|^2 =  6.292E-07

      iter #   2 total cpu time :   609.4 secs   av.it.:  12.2
      thresh= 7.932E-05 alpha_mix =  0.700 |ddv_scf|^2 =  3.497E-07

      iter #   3 total cpu time :   624.4 secs   av.it.:  11.8
      thresh= 5.913E-05 alpha_mix =  0.700 |ddv_scf|^2 =  2.799E-09

      iter #   4 total cpu time :   640.3 secs   av.it.:  12.7
      thresh= 5.290E-06 alpha_mix =  0.700 |ddv_scf|^2 =  2.820E-10

      iter #   5 total cpu time :   656.4 secs   av.it.:  12.7
      thresh= 1.679E-06 alpha_mix =  0.700 |ddv_scf|^2 =  1.936E-12

      iter #   6 total cpu time :   671.5 secs   av.it.:  11.8
      thresh= 1.391E-07 alpha_mix =  0.700 |ddv_scf|^2 =  1.145E-13

      iter #   7 total cpu time :   686.9 secs   av.it.:  11.8
      thresh= 3.384E-08 alpha_mix =  0.700 |ddv_scf|^2 =  2.933E-15

      iter #   8 total cpu time :   702.1 secs   av.it.:  11.8
      thresh= 5.415E-09 alpha_mix =  0.700 |ddv_scf|^2 =  1.425E-16

      iter #   9 total cpu time :   717.5 secs   av.it.:  11.8
      thresh= 1.194E-09 alpha_mix =  0.700 |ddv_scf|^2 =  1.122E-18

     End of self-consistent calculation

     Convergence has been achieved 


     Representation #  2 mode #   2

     Self-consistent Calculation

      iter #   1 total cpu time :   728.8 secs   av.it.:   5.7
      thresh= 1.000E-02 alpha_mix =  0.700 |ddv_scf|^2 =  2.360E-07

      iter #   2 total cpu time :   744.0 secs   av.it.:  11.8
      thresh= 4.858E-05 alpha_mix =  0.700 |ddv_scf|^2 =  3.788E-08

      iter #   3 total cpu time :   758.6 secs   av.it.:  11.1
      thresh= 1.946E-05 alpha_mix =  0.700 |ddv_scf|^2 =  5.214E-10

      iter #   4 total cpu time :   773.2 secs   av.it.:  11.2
      thresh= 2.283E-06 alpha_mix =  0.700 |ddv_scf|^2 =  2.264E-12

      iter #   5 total cpu time :   787.9 secs   av.it.:  11.6
      thresh= 1.505E-07 alpha_mix =  0.700 |ddv_scf|^2 =  9.933E-14

      iter #   6 total cpu time :   802.9 secs   av.it.:  11.8
      thresh= 3.152E-08 alpha_mix =  0.700 |ddv_scf|^2 =  5.309E-15

      iter #   7 total cpu time :   817.4 secs   av.it.:  11.2
      thresh= 7.286E-09 alpha_mix =  0.700 |ddv_scf|^2 =  2.559E-16

      iter #   8 total cpu time :   832.2 secs   av.it.:  11.5
      thresh= 1.600E-09 alpha_mix =  0.700 |ddv_scf|^2 =  1.907E-18

     End of self-consistent calculation

     Convergence has been achieved 


     Representation #  3 mode #   3

     Self-consistent Calculation

      iter #   1 total cpu time :   842.1 secs   av.it.:   4.9
      thresh= 1.000E-02 alpha_mix =  0.700 |ddv_scf|^2 =  1.037E-07

      iter #   2 total cpu time :   856.9 secs   av.it.:  11.7
      thresh= 3.220E-05 alpha_mix =  0.700 |ddv_scf|^2 =  2.979E-08

      iter #   3 total cpu time :   871.2 secs   av.it.:  10.9
      thresh= 1.726E-05 alpha_mix =  0.700 |ddv_scf|^2 =  1.645E-11

      iter #   4 total cpu time :   886.5 secs   av.it.:  12.0
      thresh= 4.056E-07 alpha_mix =  0.700 |ddv_scf|^2 =  1.229E-12

      iter #   5 total cpu time :   901.5 secs   av.it.:  11.8
      thresh= 1.109E-07 alpha_mix =  0.700 |ddv_scf|^2 =  3.407E-14

      iter #   6 total cpu time :   916.1 secs   av.it.:  11.6
      thresh= 1.846E-08 alpha_mix =  0.700 |ddv_scf|^2 =  7.990E-16

      iter #   7 total cpu time :   930.6 secs   av.it.:  10.9
      thresh= 2.827E-09 alpha_mix =  0.700 |ddv_scf|^2 =  1.687E-17

     End of self-consistent calculation

     Convergence has been achieved 


     Representation #  4 mode #   4

     Self-consistent Calculation

      iter #   1 total cpu time :   941.7 secs   av.it.:   5.9
      thresh= 1.000E-02 alpha_mix =  0.700 |ddv_scf|^2 =  1.025E-06

      iter #   2 total cpu time :   956.5 secs   av.it.:  11.7
      thresh= 1.012E-04 alpha_mix =  0.700 |ddv_scf|^2 =  3.014E-07

      iter #   3 total cpu time :   970.8 secs   av.it.:  10.9
      thresh= 5.490E-05 alpha_mix =  0.700 |ddv_scf|^2 =  1.633E-10

      iter #   4 total cpu time :   986.1 secs   av.it.:  11.8
      thresh= 1.278E-06 alpha_mix =  0.700 |ddv_scf|^2 =  7.352E-12

      iter #   5 total cpu time :  1000.9 secs   av.it.:  11.7
      thresh= 2.711E-07 alpha_mix =  0.700 |ddv_scf|^2 =  2.622E-13

      iter #   6 total cpu time :  1015.1 secs   av.it.:  10.9
      thresh= 5.120E-08 alpha_mix =  0.700 |ddv_scf|^2 =  4.320E-15

      iter #   7 total cpu time :  1029.6 secs   av.it.:  11.2
      thresh= 6.573E-09 alpha_mix =  0.700 |ddv_scf|^2 =  1.154E-16

      iter #   8 total cpu time :  1044.2 secs   av.it.:  11.4
      thresh= 1.074E-09 alpha_mix =  0.700 |ddv_scf|^2 =  3.936E-18

     End of self-consistent calculation

     Convergence has been achieved 


     Representation #  5 modes #   5  6

     Self-consistent Calculation

      iter #   1 total cpu time :  1065.7 secs   av.it.:   6.0
      thresh= 1.000E-02 alpha_mix =  0.700 |ddv_scf|^2 =  3.000E-08

      iter #   2 total cpu time :  1098.0 secs   av.it.:  13.8
      thresh= 1.732E-05 alpha_mix =  0.700 |ddv_scf|^2 =  4.904E-10

      iter #   3 total cpu time :  1131.2 secs   av.it.:  13.9
      thresh= 2.215E-06 alpha_mix =  0.700 |ddv_scf|^2 =  3.504E-10

      iter #   4 total cpu time :  1162.0 secs   av.it.:  12.8
      thresh= 1.872E-06 alpha_mix =  0.700 |ddv_scf|^2 =  2.565E-12

      iter #   5 total cpu time :  1193.4 secs   av.it.:  12.9
      thresh= 1.602E-07 alpha_mix =  0.700 |ddv_scf|^2 =  1.609E-13

      iter #   6 total cpu time :  1225.3 secs   av.it.:  13.2
      thresh= 4.012E-08 alpha_mix =  0.700 |ddv_scf|^2 =  2.859E-14

      iter #   7 total cpu time :  1256.0 secs   av.it.:  12.8
      thresh= 1.691E-08 alpha_mix =  0.700 |ddv_scf|^2 =  6.303E-16

      iter #   8 total cpu time :  1287.3 secs   av.it.:  12.9
      thresh= 2.511E-09 alpha_mix =  0.700 |ddv_scf|^2 =  3.518E-18

     End of self-consistent calculation

     Convergence has been achieved 


     Representation #  6 modes #   7  8

     Self-consistent Calculation

      iter #   1 total cpu time :  1306.8 secs   av.it.:   5.0
      thresh= 1.000E-02 alpha_mix =  0.700 |ddv_scf|^2 =  2.024E-08

      iter #   2 total cpu time :  1339.8 secs   av.it.:  13.8
      thresh= 1.423E-05 alpha_mix =  0.700 |ddv_scf|^2 =  3.022E-08

      iter #   3 total cpu time :  1371.0 secs   av.it.:  12.9
      thresh= 1.738E-05 alpha_mix =  0.700 |ddv_scf|^2 =  8.798E-10

      iter #   4 total cpu time :  1402.0 secs   av.it.:  12.8
      thresh= 2.966E-06 alpha_mix =  0.700 |ddv_scf|^2 =  8.116E-12

      iter #   5 total cpu time :  1432.8 secs   av.it.:  12.8
      thresh= 2.849E-07 alpha_mix =  0.700 |ddv_scf|^2 =  3.351E-14

      iter #   6 total cpu time :  1464.7 secs   av.it.:  13.2
      thresh= 1.831E-08 alpha_mix =  0.700 |ddv_scf|^2 =  2.422E-15

      iter #   7 total cpu time :  1495.9 secs   av.it.:  12.9
      thresh= 4.922E-09 alpha_mix =  0.700 |ddv_scf|^2 =  1.093E-17

     End of self-consistent calculation

     Convergence has been achieved 


     Representation #  7 modes #   9 10

     Self-consistent Calculation

      iter #   1 total cpu time :  1517.3 secs   av.it.:   6.0
      thresh= 1.000E-02 alpha_mix =  0.700 |ddv_scf|^2 =  6.551E-08

      iter #   2 total cpu time :  1549.0 secs   av.it.:  12.9
      thresh= 2.559E-05 alpha_mix =  0.700 |ddv_scf|^2 =  2.521E-09

      iter #   3 total cpu time :  1580.7 secs   av.it.:  13.0
      thresh= 5.021E-06 alpha_mix =  0.700 |ddv_scf|^2 =  1.784E-10

      iter #   4 total cpu time :  1611.5 secs   av.it.:  12.8
      thresh= 1.336E-06 alpha_mix =  0.700 |ddv_scf|^2 =  1.697E-12

      iter #   5 total cpu time :  1643.0 secs   av.it.:  12.9
      thresh= 1.303E-07 alpha_mix =  0.700 |ddv_scf|^2 =  2.018E-13

      iter #   6 total cpu time :  1673.6 secs   av.it.:  12.8
      thresh= 4.493E-08 alpha_mix =  0.700 |ddv_scf|^2 =  1.415E-14

      iter #   7 total cpu time :  1704.2 secs   av.it.:  12.8
      thresh= 1.189E-08 alpha_mix =  0.700 |ddv_scf|^2 =  2.420E-16

      iter #   8 total cpu time :  1736.0 secs   av.it.:  13.1
      thresh= 1.556E-09 alpha_mix =  0.700 |ddv_scf|^2 =  9.287E-18

     End of self-consistent calculation

     Convergence has been achieved 


     Representation #  8 modes #  11 12

     Self-consistent Calculation

      iter #   1 total cpu time :  1757.6 secs   av.it.:   6.0
      thresh= 1.000E-02 alpha_mix =  0.700 |ddv_scf|^2 =  3.540E-08

      iter #   2 total cpu time :  1790.1 secs   av.it.:  13.8
      thresh= 1.881E-05 alpha_mix =  0.700 |ddv_scf|^2 =  1.401E-08

      iter #   3 total cpu time :  1822.1 secs   av.it.:  13.6
      thresh= 1.184E-05 alpha_mix =  0.700 |ddv_scf|^2 =  5.209E-09

      iter #   4 total cpu time :  1853.0 secs   av.it.:  12.9
      thresh= 7.217E-06 alpha_mix =  0.700 |ddv_scf|^2 =  6.944E-12

      iter #   5 total cpu time :  1884.1 secs   av.it.:  12.9
      thresh= 2.635E-07 alpha_mix =  0.700 |ddv_scf|^2 =  2.048E-13

      iter #   6 total cpu time :  1915.4 secs   av.it.:  12.9
      thresh= 4.526E-08 alpha_mix =  0.700 |ddv_scf|^2 =  6.253E-15

      iter #   7 total cpu time :  1946.4 secs   av.it.:  12.9
      thresh= 7.908E-09 alpha_mix =  0.700 |ddv_scf|^2 =  9.359E-17

     End of self-consistent calculation

     Convergence has been achieved 


     Representation #  9 mode #  13

     Self-consistent Calculation

      iter #   1 total cpu time :  1957.8 secs   av.it.:   5.9
      thresh= 1.000E-02 alpha_mix =  0.700 |ddv_scf|^2 =  6.970E-07

      iter #   2 total cpu time :  1973.0 secs   av.it.:  11.8
      thresh= 8.349E-05 alpha_mix =  0.700 |ddv_scf|^2 =  1.851E-07

      iter #   3 total cpu time :  1988.2 secs   av.it.:  11.8
      thresh= 4.302E-05 alpha_mix =  0.700 |ddv_scf|^2 =  9.483E-09

      iter #   4 total cpu time :  2003.5 secs   av.it.:  11.8
      thresh= 9.738E-06 alpha_mix =  0.700 |ddv_scf|^2 =  9.395E-11

      iter #   5 total cpu time :  2018.9 secs   av.it.:  12.5
      thresh= 9.693E-07 alpha_mix =  0.700 |ddv_scf|^2 =  1.156E-11

      iter #   6 total cpu time :  2034.2 secs   av.it.:  12.1
      thresh= 3.400E-07 alpha_mix =  0.700 |ddv_scf|^2 =  2.325E-12

      iter #   7 total cpu time :  2049.0 secs   av.it.:  11.7
      thresh= 1.525E-07 alpha_mix =  0.700 |ddv_scf|^2 =  5.789E-14

      iter #   8 total cpu time :  2063.9 secs   av.it.:  11.8
      thresh= 2.406E-08 alpha_mix =  0.700 |ddv_scf|^2 =  4.740E-16

      iter #   9 total cpu time :  2079.6 secs   av.it.:  12.8
      thresh= 2.177E-09 alpha_mix =  0.700 |ddv_scf|^2 =  6.525E-17

     End of self-consistent calculation

     Convergence has been achieved 


     Representation # 10 mode #  14

     Self-consistent Calculation

      iter #   1 total cpu time :  2091.0 secs   av.it.:   6.0
      thresh= 1.000E-02 alpha_mix =  0.700 |ddv_scf|^2 =  9.251E-07

      iter #   2 total cpu time :  2106.3 secs   av.it.:  12.1
      thresh= 9.618E-05 alpha_mix =  0.700 |ddv_scf|^2 =  6.380E-07

      iter #   3 total cpu time :  2121.0 secs   av.it.:  11.7
      thresh= 7.987E-05 alpha_mix =  0.700 |ddv_scf|^2 =  6.195E-09

      iter #   4 total cpu time :  2136.1 secs   av.it.:  11.8
      thresh= 7.871E-06 alpha_mix =  0.700 |ddv_scf|^2 =  7.906E-11

      iter #   5 total cpu time :  2151.2 secs   av.it.:  11.8
      thresh= 8.892E-07 alpha_mix =  0.700 |ddv_scf|^2 =  1.842E-12

      iter #   6 total cpu time :  2166.2 secs   av.it.:  11.8
      thresh= 1.357E-07 alpha_mix =  0.700 |ddv_scf|^2 =  9.930E-14

      iter #   7 total cpu time :  2181.9 secs   av.it.:  12.8
      thresh= 3.151E-08 alpha_mix =  0.700 |ddv_scf|^2 =  7.103E-15

      iter #   8 total cpu time :  2197.3 secs   av.it.:  12.5
      thresh= 8.428E-09 alpha_mix =  0.700 |ddv_scf|^2 =  4.137E-16

      iter #   9 total cpu time :  2212.3 secs   av.it.:  11.8
      thresh= 2.034E-09 alpha_mix =  0.700 |ddv_scf|^2 =  4.333E-18

     End of self-consistent calculation

     Convergence has been achieved 


     Representation # 11 mode #  15

     Self-consistent Calculation

      iter #   1 total cpu time :  2225.7 secs   av.it.:   5.1
      thresh= 1.000E-02 alpha_mix =  0.700 |ddv_scf|^2 =  8.919E-08

      iter #   2 total cpu time :  2241.8 secs   av.it.:  12.4
      thresh= 2.987E-05 alpha_mix =  0.700 |ddv_scf|^2 =  8.943E-10

      iter #   3 total cpu time :  2259.2 secs   av.it.:  12.4
      thresh= 2.991E-06 alpha_mix =  0.700 |ddv_scf|^2 =  5.277E-11

      iter #   4 total cpu time :  2275.2 secs   av.it.:  11.8
      thresh= 7.265E-07 alpha_mix =  0.700 |ddv_scf|^2 =  1.560E-12

      iter #   5 total cpu time :  2291.8 secs   av.it.:  11.8
      thresh= 1.249E-07 alpha_mix =  0.700 |ddv_scf|^2 =  9.032E-14

      iter #   6 total cpu time :  2306.3 secs   av.it.:  11.6
      thresh= 3.005E-08 alpha_mix =  0.700 |ddv_scf|^2 =  8.087E-16

      iter #   7 total cpu time :  2321.2 secs   av.it.:  11.8
      thresh= 2.844E-09 alpha_mix =  0.700 |ddv_scf|^2 =  5.129E-17

     End of self-consistent calculation

     Convergence has been achieved 


     Representation # 12 mode #  16

     Self-consistent Calculation

      iter #   1 total cpu time :  2330.8 secs   av.it.:   4.0
      thresh= 1.000E-02 alpha_mix =  0.700 |ddv_scf|^2 =  1.832E-08

      iter #   2 total cpu time :  2345.8 secs   av.it.:  11.8
      thresh= 1.353E-05 alpha_mix =  0.700 |ddv_scf|^2 =  3.478E-10

      iter #   3 total cpu time :  2361.1 secs   av.it.:  12.2
      thresh= 1.865E-06 alpha_mix =  0.700 |ddv_scf|^2 =  8.598E-12

      iter #   4 total cpu time :  2376.1 secs   av.it.:  11.8
      thresh= 2.932E-07 alpha_mix =  0.700 |ddv_scf|^2 =  5.428E-13

      iter #   5 total cpu time :  2390.8 secs   av.it.:  11.7
      thresh= 7.367E-08 alpha_mix =  0.700 |ddv_scf|^2 =  2.058E-14

      iter #   6 total cpu time :  2405.2 secs   av.it.:  11.0
      thresh= 1.434E-08 alpha_mix =  0.700 |ddv_scf|^2 =  2.231E-16

      iter #   7 total cpu time :  2419.5 secs   av.it.:  11.1
      thresh= 1.494E-09 alpha_mix =  0.700 |ddv_scf|^2 =  1.180E-17

     End of self-consistent calculation

     Convergence has been achieved 


     Representation # 13 mode #  17

     Self-consistent Calculation

      iter #   1 total cpu time :  2430.5 secs   av.it.:   5.9
      thresh= 1.000E-02 alpha_mix =  0.700 |ddv_scf|^2 =  2.887E-07

      iter #   2 total cpu time :  2445.6 secs   av.it.:  11.8
      thresh= 5.373E-05 alpha_mix =  0.700 |ddv_scf|^2 =  3.539E-08

      iter #   3 total cpu time :  2460.7 secs   av.it.:  11.8
      thresh= 1.881E-05 alpha_mix =  0.700 |ddv_scf|^2 =  1.545E-10

      iter #   4 total cpu time :  2475.3 secs   av.it.:  11.7
      thresh= 1.243E-06 alpha_mix =  0.700 |ddv_scf|^2 =  1.066E-12

      iter #   5 total cpu time :  2490.4 secs   av.it.:  11.8
      thresh= 1.032E-07 alpha_mix =  0.700 |ddv_scf|^2 =  9.658E-14

      iter #   6 total cpu time :  2505.1 secs   av.it.:  11.8
      thresh= 3.108E-08 alpha_mix =  0.700 |ddv_scf|^2 =  8.203E-16

      iter #   7 total cpu time :  2519.9 secs   av.it.:  11.8
      thresh= 2.864E-09 alpha_mix =  0.700 |ddv_scf|^2 =  6.247E-17

     End of self-consistent calculation

     Convergence has been achieved 


     Representation # 14 mode #  18

     Self-consistent Calculation

      iter #   1 total cpu time :  2530.9 secs   av.it.:   5.9
      thresh= 1.000E-02 alpha_mix =  0.700 |ddv_scf|^2 =  1.494E-07

      iter #   2 total cpu time :  2546.2 secs   av.it.:  12.1
      thresh= 3.865E-05 alpha_mix =  0.700 |ddv_scf|^2 =  5.985E-09

      iter #   3 total cpu time :  2561.5 secs   av.it.:  12.1
      thresh= 7.736E-06 alpha_mix =  0.700 |ddv_scf|^2 =  7.437E-11

      iter #   4 total cpu time :  2576.4 secs   av.it.:  11.8
      thresh= 8.624E-07 alpha_mix =  0.700 |ddv_scf|^2 =  2.326E-12

      iter #   5 total cpu time :  2590.9 secs   av.it.:  11.6
      thresh= 1.525E-07 alpha_mix =  0.700 |ddv_scf|^2 =  1.073E-13

      iter #   6 total cpu time :  2605.3 secs   av.it.:  11.2
      thresh= 3.275E-08 alpha_mix =  0.700 |ddv_scf|^2 =  6.338E-16

      iter #   7 total cpu time :  2620.2 secs   av.it.:  11.8
      thresh= 2.518E-09 alpha_mix =  0.700 |ddv_scf|^2 =  2.873E-17

     End of self-consistent calculation

     Convergence has been achieved 


     Representation # 15 modes #  19 20

     Self-consistent Calculation

      iter #   1 total cpu time :  2639.5 secs   av.it.:   5.0
      thresh= 1.000E-02 alpha_mix =  0.700 |ddv_scf|^2 =  1.569E-08

      iter #   2 total cpu time :  2672.6 secs   av.it.:  13.9
      thresh= 1.253E-05 alpha_mix =  0.700 |ddv_scf|^2 =  2.489E-08

      iter #   3 total cpu time :  2703.9 secs   av.it.:  12.9
      thresh= 1.578E-05 alpha_mix =  0.700 |ddv_scf|^2 =  8.038E-10

      iter #   4 total cpu time :  2734.8 secs   av.it.:  12.8
      thresh= 2.835E-06 alpha_mix =  0.700 |ddv_scf|^2 =  2.234E-11

      iter #   5 total cpu time :  2766.2 secs   av.it.:  12.9
      thresh= 4.726E-07 alpha_mix =  0.700 |ddv_scf|^2 =  4.310E-13

      iter #   6 total cpu time :  2797.5 secs   av.it.:  12.9
      thresh= 6.565E-08 alpha_mix =  0.700 |ddv_scf|^2 =  3.552E-15

      iter #   7 total cpu time :  2827.4 secs   av.it.:  12.6
      thresh= 5.960E-09 alpha_mix =  0.700 |ddv_scf|^2 =  8.175E-16

      iter #   8 total cpu time :  2858.4 secs   av.it.:  12.9
      thresh= 2.859E-09 alpha_mix =  0.700 |ddv_scf|^2 =  1.064E-18

     End of self-consistent calculation

     Convergence has been achieved 


     Representation # 16 modes #  21 22

     Self-consistent Calculation

      iter #   1 total cpu time :  2879.7 secs   av.it.:   6.0
      thresh= 1.000E-02 alpha_mix =  0.700 |ddv_scf|^2 =  1.324E-07

      iter #   2 total cpu time :  2911.4 secs   av.it.:  13.7
      thresh= 3.639E-05 alpha_mix =  0.700 |ddv_scf|^2 =  4.869E-08

      iter #   3 total cpu time :  2943.2 secs   av.it.:  13.8
      thresh= 2.207E-05 alpha_mix =  0.700 |ddv_scf|^2 =  7.861E-09

      iter #   4 total cpu time :  2974.4 secs   av.it.:  12.9
      thresh= 8.866E-06 alpha_mix =  0.700 |ddv_scf|^2 =  2.092E-11

      iter #   5 total cpu time :  3005.9 secs   av.it.:  13.3
      thresh= 4.573E-07 alpha_mix =  0.700 |ddv_scf|^2 =  1.146E-12

      iter #   6 total cpu time :  3037.8 secs   av.it.:  13.8
      thresh= 1.071E-07 alpha_mix =  0.700 |ddv_scf|^2 =  4.654E-14

      iter #   7 total cpu time :  3068.0 secs   av.it.:  12.8
      thresh= 2.157E-08 alpha_mix =  0.700 |ddv_scf|^2 =  3.983E-15

      iter #   8 total cpu time :  3099.7 secs   av.it.:  13.8
      thresh= 6.311E-09 alpha_mix =  0.700 |ddv_scf|^2 =  1.375E-16

      iter #   9 total cpu time :  3131.1 secs   av.it.:  13.0
      thresh= 1.173E-09 alpha_mix =  0.700 |ddv_scf|^2 =  6.597E-18

     End of self-consistent calculation

     Convergence has been achieved 


     Representation # 17 modes #  23 24

     Self-consistent Calculation

      iter #   1 total cpu time :  3152.3 secs   av.it.:   6.0
      thresh= 1.000E-02 alpha_mix =  0.700 |ddv_scf|^2 =  6.108E-08

      iter #   2 total cpu time :  3183.8 secs   av.it.:  13.0
      thresh= 2.471E-05 alpha_mix =  0.700 |ddv_scf|^2 =  6.196E-09

      iter #   3 total cpu time :  3215.2 secs   av.it.:  13.3
      thresh= 7.871E-06 alpha_mix =  0.700 |ddv_scf|^2 =  7.655E-10

      iter #   4 total cpu time :  3246.8 secs   av.it.:  13.7
      thresh= 2.767E-06 alpha_mix =  0.700 |ddv_scf|^2 =  9.982E-11

      iter #   5 total cpu time :  3278.5 secs   av.it.:  13.6
      thresh= 9.991E-07 alpha_mix =  0.700 |ddv_scf|^2 =  1.439E-12

      iter #   6 total cpu time :  3310.2 secs   av.it.:  13.7
      thresh= 1.200E-07 alpha_mix =  0.700 |ddv_scf|^2 =  2.469E-14

      iter #   7 total cpu time :  3340.5 secs   av.it.:  12.8
      thresh= 1.571E-08 alpha_mix =  0.700 |ddv_scf|^2 =  1.713E-15

      iter #   8 total cpu time :  3372.1 secs   av.it.:  13.3
      thresh= 4.139E-09 alpha_mix =  0.700 |ddv_scf|^2 =  1.626E-17

     End of self-consistent calculation

     Convergence has been achieved 


     Representation # 18 modes #  25 26

     Self-consistent Calculation

      iter #   1 total cpu time :  3393.5 secs   av.it.:   6.0
      thresh= 1.000E-02 alpha_mix =  0.700 |ddv_scf|^2 =  2.940E-08

      iter #   2 total cpu time :  3425.5 secs   av.it.:  13.8
      thresh= 1.715E-05 alpha_mix =  0.700 |ddv_scf|^2 =  1.440E-08

      iter #   3 total cpu time :  3457.6 secs   av.it.:  13.8
      thresh= 1.200E-05 alpha_mix =  0.700 |ddv_scf|^2 =  4.389E-09

      iter #   4 total cpu time :  3488.3 secs   av.it.:  12.9
      thresh= 6.625E-06 alpha_mix =  0.700 |ddv_scf|^2 =  1.299E-11

      iter #   5 total cpu time :  3520.3 secs   av.it.:  13.8
      thresh= 3.604E-07 alpha_mix =  0.700 |ddv_scf|^2 =  2.397E-13

      iter #   6 total cpu time :  3552.1 secs   av.it.:  13.8
      thresh= 4.896E-08 alpha_mix =  0.700 |ddv_scf|^2 =  2.138E-14

      iter #   7 total cpu time :  3583.4 secs   av.it.:  13.0
      thresh= 1.462E-08 alpha_mix =  0.700 |ddv_scf|^2 =  1.247E-15

      iter #   8 total cpu time :  3615.1 secs   av.it.:  13.7
      thresh= 3.532E-09 alpha_mix =  0.700 |ddv_scf|^2 =  2.742E-17

     End of self-consistent calculation

     Convergence has been achieved 


     Representation # 19 modes #  27 28

     Self-consistent Calculation

      iter #   1 total cpu time :  3636.3 secs   av.it.:   6.0
      thresh= 1.000E-02 alpha_mix =  0.700 |ddv_scf|^2 =  4.935E-08

      iter #   2 total cpu time :  3668.1 secs   av.it.:  13.6
      thresh= 2.222E-05 alpha_mix =  0.700 |ddv_scf|^2 =  5.078E-09

      iter #   3 total cpu time :  3699.5 secs   av.it.:  13.4
      thresh= 7.126E-06 alpha_mix =  0.700 |ddv_scf|^2 =  4.701E-10

      iter #   4 total cpu time :  3731.4 secs   av.it.:  13.8
      thresh= 2.168E-06 alpha_mix =  0.700 |ddv_scf|^2 =  1.174E-10

      iter #   5 total cpu time :  3762.8 secs   av.it.:  13.0
      thresh= 1.083E-06 alpha_mix =  0.700 |ddv_scf|^2 =  4.980E-13

      iter #   6 total cpu time :  3794.8 secs   av.it.:  13.8
      thresh= 7.057E-08 alpha_mix =  0.700 |ddv_scf|^2 =  2.225E-14

      iter #   7 total cpu time :  3826.9 secs   av.it.:  13.8
      thresh= 1.492E-08 alpha_mix =  0.700 |ddv_scf|^2 =  1.197E-15

      iter #   8 total cpu time :  3859.1 secs   av.it.:  13.8
      thresh= 3.459E-09 alpha_mix =  0.700 |ddv_scf|^2 =  4.742E-17

     End of self-consistent calculation

     Convergence has been achieved 


     Representation # 20 modes #  29 30

     Self-consistent Calculation

      iter #   1 total cpu time :  3880.3 secs   av.it.:   6.0
      thresh= 1.000E-02 alpha_mix =  0.700 |ddv_scf|^2 =  9.325E-08

      iter #   2 total cpu time :  3913.8 secs   av.it.:  13.8
      thresh= 3.054E-05 alpha_mix =  0.700 |ddv_scf|^2 =  3.830E-08

      iter #   3 total cpu time :  3946.0 secs   av.it.:  13.8
      thresh= 1.957E-05 alpha_mix =  0.700 |ddv_scf|^2 =  8.551E-09

      iter #   4 total cpu time :  3977.3 secs   av.it.:  12.9
      thresh= 9.247E-06 alpha_mix =  0.700 |ddv_scf|^2 =  2.080E-11

      iter #   5 total cpu time :  4008.1 secs   av.it.:  12.9
      thresh= 4.561E-07 alpha_mix =  0.700 |ddv_scf|^2 =  9.632E-13

      iter #   6 total cpu time :  4039.6 secs   av.it.:  13.5
      thresh= 9.814E-08 alpha_mix =  0.700 |ddv_scf|^2 =  5.607E-14

      iter #   7 total cpu time :  4069.7 secs   av.it.:  12.8
      thresh= 2.368E-08 alpha_mix =  0.700 |ddv_scf|^2 =  4.039E-15

      iter #   8 total cpu time :  4101.1 secs   av.it.:  13.1
      thresh= 6.355E-09 alpha_mix =  0.700 |ddv_scf|^2 =  1.255E-16

      iter #   9 total cpu time :  4132.9 secs   av.it.:  13.8
      thresh= 1.120E-09 alpha_mix =  0.700 |ddv_scf|^2 =  3.056E-18

     End of self-consistent calculation

     Convergence has been achieved 
 
     Number of q in the star =    1
     List of q in the star:
          1   0.000000000   0.000000000   0.000000000

          Dielectric constant in cartesian axis 

          (       2.985853428      -0.000000000       0.000000000 )
          (      -0.000000000       2.985853428       0.000000000 )
          (      -0.000000000       0.000000000       2.290116873 )

          Effective charges (d Force / dE) in cartesian axis

           atom      1   Ca 
      Ex  (        2.60175       -0.22506       -0.00000 )
      Ey  (        0.22506        2.60175       -0.00000 )
      Ez  (        0.00000       -0.00000        2.31656 )
           atom      2   Ca 
      Ex  (        2.60175        0.22506        0.00000 )
      Ey  (       -0.22506        2.60175       -0.00000 )
      Ez  (       -0.00000       -0.00000        2.31656 )
           atom      3   C  
      Ex  (        3.26429       -0.00000        0.00000 )
      Ey  (       -0.00000        3.26429       -0.00000 )
      Ez  (       -0.00000       -0.00000        0.24773 )
           atom      4   C  
      Ex  (        3.26429        0.00000        0.00000 )
      Ey  (        0.00000        3.26429       -0.00000 )
      Ez  (        0.00000       -0.00000        0.24773 )
           atom      5   O  
      Ex  (       -1.59209        0.62929       -0.18398 )
      Ey  (        0.62929       -2.31874       -0.10622 )
      Ez  (       -0.17200       -0.09930       -0.85509 )
           atom      6   O  
      Ex  (       -2.68206       -0.00000       -0.00000 )
      Ey  (        0.00000       -1.22877        0.21244 )
      Ez  (       -0.00000        0.19861       -0.85509 )
           atom      7   O  
      Ex  (       -1.59209       -0.62929        0.18398 )
      Ey  (       -0.62929       -2.31874       -0.10622 )
      Ez  (        0.17200       -0.09930       -0.85509 )
           atom      8   O  
      Ex  (       -2.68206       -0.00000       -0.00000 )
      Ey  (        0.00000       -1.22877        0.21244 )
      Ez  (       -0.00000        0.19861       -0.85509 )
           atom      9   O  
      Ex  (       -1.59209       -0.62929        0.18398 )
      Ey  (       -0.62929       -2.31874       -0.10622 )
      Ez  (        0.17200       -0.09930       -0.85509 )
           atom     10   O  
      Ex  (       -1.59209        0.62929       -0.18398 )
      Ey  (        0.62929       -2.31874       -0.10622 )
      Ez  (       -0.17200       -0.09930       -0.85509 )

     Diagonalizing the dynamical matrix

     q = (    0.000000000   0.000000000   0.000000000 ) 

 **************************************************************************
     freq (    1) =       0.231874 [THz] =       7.734497 [cm-1]
     freq (    2) =       0.258289 [THz] =       8.615580 [cm-1]
     freq (    3) =       0.258289 [THz] =       8.615580 [cm-1]
     freq (    4) =       3.320686 [THz] =     110.766175 [cm-1]
     freq (    5) =       4.238640 [THz] =     141.385804 [cm-1]
     freq (    6) =       4.238640 [THz] =     141.385804 [cm-1]
     freq (    7) =       4.960596 [THz] =     165.467670 [cm-1]
     freq (    8) =       4.960596 [THz] =     165.467670 [cm-1]
     freq (    9) =       6.020743 [THz] =     200.830363 [cm-1]
     freq (   10) =       6.093546 [THz] =     203.258823 [cm-1]
     freq (   11) =       6.093546 [THz] =     203.258823 [cm-1]
     freq (   12) =       7.456517 [THz] =     248.722628 [cm-1]
     freq (   13) =       7.538126 [THz] =     251.444814 [cm-1]
     freq (   14) =       7.606264 [THz] =     253.717652 [cm-1]
     freq (   15) =       7.606264 [THz] =     253.717652 [cm-1]
     freq (   16) =       8.094513 [THz] =     270.003878 [cm-1]
     freq (   17) =       8.094513 [THz] =     270.003878 [cm-1]
     freq (   18) =       8.605397 [THz] =     287.045160 [cm-1]
     freq (   19) =      20.316101 [THz] =     677.672170 [cm-1]
     freq (   20) =      20.316101 [THz] =     677.672170 [cm-1]
     freq (   21) =      20.342573 [THz] =     678.555212 [cm-1]
     freq (   22) =      20.342573 [THz] =     678.555212 [cm-1]
     freq (   23) =      24.749487 [THz] =     825.554039 [cm-1]
     freq (   24) =      24.830082 [THz] =     828.242374 [cm-1]
     freq (   25) =      31.568011 [THz] =    1052.995517 [cm-1]
     freq (   26) =      31.590833 [THz] =    1053.756764 [cm-1]
     freq (   27) =      40.695765 [THz] =    1357.464595 [cm-1]
     freq (   28) =      40.695765 [THz] =    1357.464595 [cm-1]
     freq (   29) =      41.779990 [THz] =    1393.630458 [cm-1]
     freq (   30) =      41.779990 [THz] =    1393.630458 [cm-1]
 **************************************************************************

     Mode symmetry, D_3d (-3m)  point group:

     freq (  1 -  1) =          7.7  [cm-1]   --> A_2u L_2'       I  
     freq (  2 -  3) =          8.6  [cm-1]   --> E_u  L_3'       I  
     freq (  4 -  4) =        110.8  [cm-1]   --> A_2u L_2'       I  
     freq (  5 -  6) =        141.4  [cm-1]   --> E_u  L_3'       I  
     freq (  7 -  8) =        165.5  [cm-1]   --> E_g  L_3        R  
     freq (  9 -  9) =        200.8  [cm-1]   --> A_2g L_2           
     freq ( 10 - 11) =        203.3  [cm-1]   --> E_u  L_3'       I  
     freq ( 12 - 12) =        248.7  [cm-1]   --> A_1u L_1'          
     freq ( 13 - 13) =        251.4  [cm-1]   --> A_2u L_2'       I  
     freq ( 14 - 15) =        253.7  [cm-1]   --> E_u  L_3'       I  
     freq ( 16 - 17) =        270.0  [cm-1]   --> E_g  L_3        R  
     freq ( 18 - 18) =        287.0  [cm-1]   --> A_2g L_2           
     freq ( 19 - 20) =        677.7  [cm-1]   --> E_g  L_3        R  
     freq ( 21 - 22) =        678.6  [cm-1]   --> E_u  L_3'       I  
     freq ( 23 - 23) =        825.6  [cm-1]   --> A_2u L_2'       I  
     freq ( 24 - 24) =        828.2  [cm-1]   --> A_2g L_2           
     freq ( 25 - 25) =       1053.0  [cm-1]   --> A_1u L_1'          
     freq ( 26 - 26) =       1053.8  [cm-1]   --> A_1g L_1        R  
     freq ( 27 - 28) =       1357.5  [cm-1]   --> E_u  L_3'       I  
     freq ( 29 - 30) =       1393.6  [cm-1]   --> E_g  L_3        R  
 
     PHONON       :      1h 5m CPU      1h 8m WALL

     INITIALIZATION: 
     phq_setup    :      0.11s CPU      0.17s WALL (       1 calls)
     phq_init     :     18.53s CPU     19.73s WALL (       1 calls)
 
     phq_init     :     18.53s CPU     19.73s WALL (       1 calls)
     set_drhoc    :      0.07s CPU      0.07s WALL (       3 calls)
     init_vloc    :      0.01s CPU      0.02s WALL (       1 calls)
     init_us_1    :      0.11s CPU      0.19s WALL (       1 calls)
     newd         :      0.02s CPU      0.12s WALL (       1 calls)
     dvanqq       :      0.27s CPU      0.28s WALL (       1 calls)
     drho         :     17.50s CPU     18.53s WALL (       1 calls)
     cmpt_qdipol  :      0.00s CPU      0.01s WALL (       1 calls)
 
     DIELECTRIC CONSTANT AND EFFECTIVE CHARGES:
     solve_e      :    420.71s CPU    443.87s WALL (       1 calls)
     dielec       :      0.01s CPU      0.04s WALL (       1 calls)
     zstar_eu     :    108.77s CPU    112.29s WALL (       1 calls)
 
     DYNAMICAL MATRIX:
     dynmat0      :      0.64s CPU      0.74s WALL (       1 calls)
     phqscf       :   3368.75s CPU   3551.39s WALL (       1 calls)
     dynmatrix    :      0.04s CPU      0.19s WALL (       1 calls)
 
     phqscf       :   3368.75s CPU   3551.39s WALL (       1 calls)
     solve_linter :   3364.19s CPU   3544.64s WALL (      20 calls)
     drhodv       :      4.33s CPU      4.54s WALL (      20 calls)
 
     dynmat0      :      0.64s CPU      0.74s WALL (       1 calls)
     dynmat_us    :      0.56s CPU      0.60s WALL (       1 calls)
     d2ionq       :      0.01s CPU      0.02s WALL (       1 calls)
     dynmatcc     :      0.06s CPU      0.07s WALL (       1 calls)
 
     dynmat_us    :      0.56s CPU      0.60s WALL (       1 calls)
     addusdynmat  :      0.00s CPU      0.01s WALL (       1 calls)
 
     phqscf       :   3368.75s CPU   3551.39s WALL (       1 calls)
     solve_linter :   3364.19s CPU   3544.64s WALL (      20 calls)
 
     solve_linter :   3364.19s CPU   3544.64s WALL (      20 calls)
     dvqpsi_us    :    131.13s CPU    133.65s WALL (    1140 calls)
     ortho        :     11.32s CPU     12.85s WALL (    5035 calls)
     cgsolve      :   3021.65s CPU   3176.01s WALL (    5035 calls)
     incdrhoscf   :    235.00s CPU    246.89s WALL (    5035 calls)
     addusddens   :      3.77s CPU      3.83s WALL (     178 calls)
     vpsifft      :    171.92s CPU    182.23s WALL (    3952 calls)
     dv_of_drho   :      5.15s CPU      5.36s WALL (     265 calls)
     mix_pot      :      0.86s CPU      3.76s WALL (     166 calls)
     psymdvscf    :    211.51s CPU    211.66s WALL (     158 calls)
     newdq        :      5.10s CPU      5.15s WALL (     166 calls)
     adddvscf     :      6.67s CPU      6.87s WALL (    4351 calls)
     drhodvus     :      0.27s CPU      0.47s WALL (      20 calls)
 
     dvqpsi_us    :    131.13s CPU    133.65s WALL (    1140 calls)
     dvqpsi_us_on :     78.33s CPU     78.35s WALL (    1140 calls)
 
     cgsolve      :   3021.65s CPU   3176.01s WALL (    5035 calls)
     ch_psi       :   2984.64s CPU   3135.37s WALL (   87576 calls)
 
     ch_psi       :   2984.64s CPU   3135.37s WALL (   87576 calls)
     h_psi        :   2792.47s CPU   2930.68s WALL (   87576 calls)
     last         :    151.70s CPU    162.16s WALL (   87576 calls)
 
     h_psi        :   2792.47s CPU   2930.68s WALL (   87576 calls)
     add_vuspsi   :     33.28s CPU     35.32s WALL (   87576 calls)
 
     incdrhoscf   :    235.00s CPU    246.89s WALL (    5035 calls)
     addusdbec    :      5.22s CPU      5.74s WALL (    5605 calls)
 
     drhodvus     :      0.27s CPU      0.47s WALL (      20 calls)
 
      General routines
     calbec       :    146.57s CPU    159.92s WALL (  202056 calls)
     fft          :     16.29s CPU     16.72s WALL (    5716 calls)
     ffts         :      3.45s CPU      3.57s WALL (    1770 calls)
     fftw         :   3019.77s CPU   3168.93s WALL ( 4767326 calls)
     davcio       :      3.02s CPU      5.12s WALL (   25831 calls)
     write_rec    :      0.78s CPU     16.89s WALL (     186 calls)
 
 
     PHONON       :      1h 5m CPU      1h 8m WALL

 
   This run was terminated on:  15:11:40   4May2022            

=------------------------------------------------------------------------------=
   JOB DONE.
=------------------------------------------------------------------------------=
TACC:  Shutdown complete. Exiting. 
