ANIMSTEPS   30
CRYSTAL
PRIMVEC
    2.606410046   -1.504811541    5.368418069
    0.000000000    3.009623083    5.368418069
   -2.606410046   -1.504811541    5.368418069
PRIMCOORD    1
     10   1
   Ca     0.00000   0.00000   8.05263  -0.00000   0.00000  -0.03169
   Ca     0.00000   0.00000   0.00000  -0.00000   0.00000  -0.03169
   C      0.00000   0.00000   4.02631  -0.00000   0.00000  -0.03161
   C      0.00000   0.00000  12.07894  -0.00000   0.00000  -0.03161
   O      0.64957   1.88454   9.39473  -0.00006  -0.00003  -0.03160
   O      1.30727  -1.50481   9.39473  -0.00000   0.00007  -0.03160
   O     -1.95684  -0.37973   9.39473   0.00006  -0.00003  -0.03160
   O     -1.30727   1.50481   6.71052  -0.00000   0.00007  -0.03160
   O      1.95684   0.37973   6.71052   0.00006  -0.00003  -0.03160
   O     -0.64957  -1.88454   6.71052  -0.00006  -0.00003  -0.03160
PRIMCOORD    2
     10   1
   Ca     0.00000   0.00000   8.05263   0.00001   0.03170   0.00000
   Ca     0.00000   0.00000   0.00000  -0.00001   0.03170   0.00000
   C      0.00000   0.00000   4.02631   0.00000   0.03161   0.00000
   C      0.00000   0.00000  12.07894   0.00000   0.03161   0.00000
   O      0.64957   1.88454   9.39473  -0.00001   0.03161   0.00007
   O      1.30727  -1.50481   9.39473   0.00000   0.03159  -0.00013
   O     -1.95684  -0.37973   9.39473   0.00001   0.03161   0.00007
   O     -1.30727   1.50481   6.71052   0.00000   0.03159  -0.00013
   O      1.95684   0.37973   6.71052   0.00001   0.03161   0.00007
   O     -0.64957  -1.88454   6.71052  -0.00001   0.03161   0.00007
PRIMCOORD    3
     10   1
   Ca     0.00000   0.00000   8.05263   0.03166  -0.00001  -0.00000
   Ca     0.00000   0.00000   0.00000   0.03166   0.00001   0.00000
   C      0.00000   0.00000   4.02631   0.03162  -0.00000  -0.00000
   C      0.00000   0.00000  12.07894   0.03162  -0.00000  -0.00000
   O      0.64957   1.88454   9.39473   0.03161  -0.00001   0.00010
   O      1.30727  -1.50481   9.39473   0.03162  -0.00000   0.00000
   O     -1.95684  -0.37973   9.39473   0.03161   0.00001  -0.00010
   O     -1.30727   1.50481   6.71052   0.03162  -0.00000   0.00000
   O      1.95684   0.37973   6.71052   0.03161   0.00001  -0.00010
   O     -0.64957  -1.88454   6.71052   0.03161  -0.00001   0.00010
PRIMCOORD    4
     10   1
   Ca     0.00000   0.00000   8.05263   0.00000  -0.00000   0.02194
   Ca     0.00000   0.00000   0.00000  -0.00000  -0.00000   0.02194
   C      0.00000   0.00000   4.02631   0.00000   0.00000  -0.01232
   C      0.00000   0.00000  12.07894  -0.00000   0.00000  -0.01232
   O      0.64957   1.88454   9.39473   0.03024   0.01746  -0.01537
   O      1.30727  -1.50481   9.39473   0.00000  -0.03492  -0.01537
   O     -1.95684  -0.37973   9.39473  -0.03024   0.01746  -0.01537
   O     -1.30727   1.50481   6.71052  -0.00000  -0.03492  -0.01537
   O      1.95684   0.37973   6.71052  -0.03024   0.01746  -0.01537
   O     -0.64957  -1.88454   6.71052   0.03024   0.01746  -0.01537
PRIMCOORD    5
     10   1
   Ca     0.00000   0.00000   8.05263   0.01782  -0.01763  -0.00000
   Ca     0.00000   0.00000   0.00000  -0.01782  -0.01763  -0.00000
   C      0.00000   0.00000   4.02631   0.00000   0.00971   0.00000
   C      0.00000   0.00000  12.07894   0.00000   0.00971   0.00000
   O      0.64957   1.88454   9.39473   0.00201   0.01128  -0.02516
   O      1.30727  -1.50481   9.39473   0.00000   0.01476   0.05031
   O     -1.95684  -0.37973   9.39473  -0.00201   0.01128  -0.02516
   O     -1.30727   1.50481   6.71052   0.00000   0.01476   0.05031
   O      1.95684   0.37973   6.71052  -0.00201   0.01128  -0.02516
   O     -0.64957  -1.88454   6.71052   0.00201   0.01128  -0.02516
PRIMCOORD    6
     10   1
   Ca     0.00000   0.00000   8.05263  -0.00960  -0.02439   0.00000
   Ca     0.00000   0.00000   0.00000  -0.00960   0.02439  -0.00000
   C      0.00000   0.00000   4.02631   0.00604  -0.00000  -0.00000
   C      0.00000   0.00000  12.07894   0.00604   0.00000   0.00000
   O      0.64957   1.88454   9.39473   0.00771   0.00191  -0.04545
   O      1.30727  -1.50481   9.39473   0.00440  -0.00000  -0.00000
   O     -1.95684  -0.37973   9.39473   0.00771  -0.00191   0.04545
   O     -1.30727   1.50481   6.71052   0.00440   0.00000  -0.00000
   O      1.95684   0.37973   6.71052   0.00771  -0.00191   0.04545
   O     -0.64957  -1.88454   6.71052   0.00771   0.00191  -0.04545
PRIMCOORD    7
     10   1
   Ca     0.00000   0.00000   8.05263   0.00000   0.00000  -0.00000
   Ca     0.00000   0.00000   0.00000  -0.00000  -0.00000  -0.00000
   C      0.00000   0.00000   4.02631  -0.00000  -0.03319  -0.00000
   C      0.00000   0.00000  12.07894   0.00000   0.03319   0.00000
   O      0.64957   1.88454   9.39473  -0.00027  -0.03497   0.00573
   O      1.30727  -1.50481   9.39473  -0.00000  -0.03544  -0.01147
   O     -1.95684  -0.37973   9.39473   0.00027  -0.03497   0.00573
   O     -1.30727   1.50481   6.71052   0.00000   0.03544   0.01147
   O      1.95684   0.37973   6.71052  -0.00027   0.03497  -0.00573
   O     -0.64957  -1.88454   6.71052   0.00027   0.03497  -0.00573
PRIMCOORD    8
     10   1
   Ca     0.00000   0.00000   8.05263  -0.00000  -0.00000  -0.00000
   Ca     0.00000   0.00000   0.00000  -0.00000   0.00000  -0.00000
   C      0.00000   0.00000   4.02631   0.03319  -0.00000   0.00000
   C      0.00000   0.00000  12.07894  -0.03319   0.00000   0.00000
   O      0.64957   1.88454   9.39473   0.03528   0.00027  -0.00993
   O      1.30727  -1.50481   9.39473   0.03481  -0.00000  -0.00000
   O     -1.95684  -0.37973   9.39473   0.03528  -0.00027   0.00993
   O     -1.30727   1.50481   6.71052  -0.03481   0.00000   0.00000
   O      1.95684   0.37973   6.71052  -0.03528   0.00027  -0.00993
   O     -0.64957  -1.88454   6.71052  -0.03528  -0.00027   0.00993
PRIMCOORD    9
     10   1
   Ca     0.00000   0.00000   8.05263  -0.00000   0.00000  -0.00000
   Ca     0.00000   0.00000   0.00000   0.00000  -0.00000  -0.00000
   C      0.00000   0.00000   4.02631   0.00000   0.00000  -0.01901
   C      0.00000   0.00000  12.07894  -0.00000  -0.00000   0.01901
   O      0.64957   1.88454   9.39473   0.02933   0.01694  -0.01997
   O      1.30727  -1.50481   9.39473   0.00000  -0.03387  -0.01997
   O     -1.95684  -0.37973   9.39473  -0.02933   0.01694  -0.01997
   O     -1.30727   1.50481   6.71052  -0.00000   0.03387   0.01997
   O      1.95684   0.37973   6.71052   0.02933  -0.01694   0.01997
   O     -0.64957  -1.88454   6.71052  -0.02933  -0.01694   0.01997
PRIMCOORD   10
     10   1
   Ca     0.00000   0.00000   8.05263  -0.06031  -0.01726   0.00000
   Ca     0.00000   0.00000   0.00000   0.06031  -0.01726   0.00000
   C      0.00000   0.00000   4.02631  -0.00000   0.00658  -0.00000
   C      0.00000   0.00000  12.07894   0.00000   0.00658  -0.00000
   O      0.64957   1.88454   9.39473   0.00229   0.01155  -0.00916
   O      1.30727  -1.50481   9.39473  -0.00000   0.01552   0.01832
   O     -1.95684  -0.37973   9.39473  -0.00229   0.01155  -0.00916
   O     -1.30727   1.50481   6.71052   0.00000   0.01552   0.01832
   O      1.95684   0.37973   6.71052  -0.00229   0.01155  -0.00916
   O     -0.64957  -1.88454   6.71052   0.00229   0.01155  -0.00916
PRIMCOORD   11
     10   1
   Ca     0.00000   0.00000   8.05263  -0.00324   0.05208   0.00000
   Ca     0.00000   0.00000   0.00000  -0.00324  -0.05208  -0.00000
   C      0.00000   0.00000   4.02631  -0.00084  -0.00000   0.00000
   C      0.00000   0.00000  12.07894  -0.00084   0.00000  -0.00000
   O      0.64957   1.88454   9.39473   0.00468   0.00289  -0.03329
   O      1.30727  -1.50481   9.39473  -0.00033   0.00000   0.00000
   O     -1.95684  -0.37973   9.39473   0.00468  -0.00289   0.03329
   O     -1.30727   1.50481   6.71052  -0.00033  -0.00000  -0.00000
   O      1.95684   0.37973   6.71052   0.00468  -0.00289   0.03329
   O     -0.64957  -1.88454   6.71052   0.00468   0.00289  -0.03329
PRIMCOORD   12
     10   1
   Ca     0.00000   0.00000   8.05263  -0.00000   0.00000  -0.07058
   Ca     0.00000   0.00000   0.00000  -0.00000  -0.00000   0.07058
   C      0.00000   0.00000   4.02631   0.00000   0.00000   0.00000
   C      0.00000   0.00000  12.07894   0.00000   0.00000   0.00000
   O      0.64957   1.88454   9.39473   0.00123  -0.00213  -0.00000
   O      1.30727  -1.50481   9.39473  -0.00246   0.00000  -0.00000
   O     -1.95684  -0.37973   9.39473   0.00123   0.00213   0.00000
   O     -1.30727   1.50481   6.71052  -0.00246   0.00000  -0.00000
   O      1.95684   0.37973   6.71052   0.00123   0.00213   0.00000
   O     -0.64957  -1.88454   6.71052   0.00123  -0.00213  -0.00000
PRIMCOORD   13
     10   1
   Ca     0.00000   0.00000   8.05263  -0.00000   0.00000  -0.03126
   Ca     0.00000   0.00000   0.00000   0.00000   0.00000  -0.03126
   C      0.00000   0.00000   4.02631   0.00000  -0.00000   0.02308
   C      0.00000   0.00000  12.07894  -0.00000  -0.00000   0.02308
   O      0.64957   1.88454   9.39473   0.02372   0.01369   0.02033
   O      1.30727  -1.50481   9.39473   0.00000  -0.02738   0.02033
   O     -1.95684  -0.37973   9.39473  -0.02372   0.01369   0.02033
   O     -1.30727   1.50481   6.71052   0.00000  -0.02738   0.02033
   O      1.95684   0.37973   6.71052  -0.02372   0.01369   0.02033
   O     -0.64957  -1.88454   6.71052   0.02372   0.01369   0.02033
PRIMCOORD   14
     10   1
   Ca     0.00000   0.00000   8.05263  -0.00874   0.03230   0.00000
   Ca     0.00000   0.00000   0.00000   0.00874   0.03230   0.00000
   C      0.00000   0.00000   4.02631  -0.00000  -0.02047  -0.00000
   C      0.00000   0.00000  12.07894   0.00000  -0.02047  -0.00000
   O      0.64957   1.88454   9.39473   0.00148  -0.02271  -0.01835
   O      1.30727  -1.50481   9.39473  -0.00000  -0.02014   0.03670
   O     -1.95684  -0.37973   9.39473  -0.00148  -0.02271  -0.01835
   O     -1.30727   1.50481   6.71052   0.00000  -0.02014   0.03670
   O      1.95684   0.37973   6.71052  -0.00148  -0.02271  -0.01835
   O     -0.64957  -1.88454   6.71052   0.00148  -0.02271  -0.01835
PRIMCOORD   15
     10   1
   Ca     0.00000   0.00000   8.05263   0.00000  -0.00000  -0.00000
   Ca     0.00000   0.00000   0.00000  -0.00000  -0.00000  -0.00000
   C      0.00000   0.00000   4.02631  -0.00807   0.00000   0.00000
   C      0.00000   0.00000  12.07894   0.00807  -0.00000  -0.00000
   O      0.64957   1.88454   9.39473  -0.00676   0.00095  -0.04884
   O      1.30727  -1.50481   9.39473  -0.00840   0.00000  -0.00000
   O     -1.95684  -0.37973   9.39473  -0.00676  -0.00095   0.04884
   O     -1.30727   1.50481   6.71052   0.00840  -0.00000   0.00000
   O      1.95684   0.37973   6.71052   0.00676   0.00095  -0.04884
   O     -0.64957  -1.88454   6.71052   0.00676  -0.00095   0.04884
PRIMCOORD   16
     10   1
   Ca     0.00000   0.00000   8.05263  -0.00000   0.00000   0.00000
   Ca     0.00000   0.00000   0.00000   0.00000   0.00000   0.00000
   C      0.00000   0.00000   4.02631   0.00000   0.00807   0.00000
   C      0.00000   0.00000  12.07894  -0.00000  -0.00807  -0.00000
   O      0.64957   1.88454   9.39473  -0.00095   0.00786   0.02820
   O      1.30727  -1.50481   9.39473   0.00000   0.00621  -0.05640
   O     -1.95684  -0.37973   9.39473   0.00095   0.00786   0.02820
   O     -1.30727   1.50481   6.71052  -0.00000  -0.00621   0.05640
   O      1.95684   0.37973   6.71052  -0.00095  -0.00786  -0.02820
   O     -0.64957  -1.88454   6.71052   0.00095  -0.00786  -0.02820
PRIMCOORD   17
     10   1
   Ca     0.00000   0.00000   8.05263  -0.00000  -0.00000  -0.00000
   Ca     0.00000   0.00000   0.00000  -0.00000  -0.00000  -0.00000
   C      0.00000   0.00000   4.02631  -0.00000  -0.00000   0.03288
   C      0.00000   0.00000  12.07894  -0.00000   0.00000  -0.03288
   O      0.64957   1.88454   9.39473   0.01877   0.01084   0.02892
   O      1.30727  -1.50481   9.39473  -0.00000  -0.02167   0.02892
   O     -1.95684  -0.37973   9.39473  -0.01877   0.01084   0.02892
   O     -1.30727   1.50481   6.71052  -0.00000   0.02167  -0.02892
   O      1.95684   0.37973   6.71052   0.01877  -0.01084  -0.02892
   O     -0.64957  -1.88454   6.71052  -0.01877  -0.01084  -0.02892
PRIMCOORD   18
     10   1
   Ca     0.00000   0.00000   8.05263  -0.03987   0.00368   0.00000
   Ca     0.00000   0.00000   0.00000  -0.03987  -0.00368  -0.00000
   C      0.00000   0.00000   4.02631   0.03163  -0.00000   0.00000
   C      0.00000   0.00000  12.07894   0.03163  -0.00000  -0.00000
   O      0.64957   1.88454   9.39473   0.02528  -0.00020   0.01518
   O      1.30727  -1.50481   9.39473   0.02563  -0.00000   0.00000
   O     -1.95684  -0.37973   9.39473   0.02528   0.00020  -0.01518
   O     -1.30727   1.50481   6.71052   0.02563   0.00000   0.00000
   O      1.95684   0.37973   6.71052   0.02528   0.00020  -0.01518
   O     -0.64957  -1.88454   6.71052   0.02528  -0.00020   0.01518
PRIMCOORD   19
     10   1
   Ca     0.00000   0.00000   8.05263   0.00000   0.00000   0.00000
   Ca     0.00000   0.00000   0.00000  -0.00000   0.00000   0.00000
   C      0.00000   0.00000   4.02631  -0.00000  -0.02204  -0.00000
   C      0.00000   0.00000  12.07894   0.00000   0.02204   0.00000
   O      0.64957   1.88454   9.39473   0.03328  -0.01406   0.00087
   O      1.30727  -1.50481   9.39473  -0.00000   0.04358  -0.00174
   O     -1.95684  -0.37973   9.39473  -0.03328  -0.01406   0.00087
   O     -1.30727   1.50481   6.71052   0.00000  -0.04358   0.00174
   O      1.95684   0.37973   6.71052   0.03328   0.01406  -0.00087
   O     -0.64957  -1.88454   6.71052  -0.03328   0.01406  -0.00087
PRIMCOORD   20
     10   1
   Ca     0.00000   0.00000   8.05263   0.00000   0.00000  -0.00000
   Ca     0.00000   0.00000   0.00000  -0.00000   0.00000  -0.00000
   C      0.00000   0.00000   4.02631   0.02204  -0.00000  -0.00000
   C      0.00000   0.00000  12.07894  -0.02204   0.00000   0.00000
   O      0.64957   1.88454   9.39473  -0.02436  -0.03328  -0.00151
   O      1.30727  -1.50481   9.39473   0.03328   0.00000  -0.00000
   O     -1.95684  -0.37973   9.39473  -0.02436   0.03328   0.00151
   O     -1.30727   1.50481   6.71052  -0.03328  -0.00000   0.00000
   O      1.95684   0.37973   6.71052   0.02436  -0.03328  -0.00151
   O     -0.64957  -1.88454   6.71052   0.02436   0.03328   0.00151
PRIMCOORD   21
     10   1
   Ca     0.00000   0.00000   8.05263  -0.00156  -0.00074   0.00000
   Ca     0.00000   0.00000   0.00000   0.00156  -0.00074   0.00000
   C      0.00000   0.00000   4.02631   0.00000   0.02278   0.00000
   C      0.00000   0.00000  12.07894  -0.00000   0.02278   0.00000
   O      0.64957   1.88454   9.39473  -0.03306   0.01400  -0.00217
   O      1.30727  -1.50481   9.39473   0.00000  -0.04326   0.00433
   O     -1.95684  -0.37973   9.39473   0.03306   0.01400  -0.00217
   O     -1.30727   1.50481   6.71052  -0.00000  -0.04326   0.00433
   O      1.95684   0.37973   6.71052   0.03306   0.01400  -0.00217
   O     -0.64957  -1.88454   6.71052  -0.03306   0.01400  -0.00217
PRIMCOORD   22
     10   1
   Ca     0.00000   0.00000   8.05263  -0.00012  -0.00144  -0.00000
   Ca     0.00000   0.00000   0.00000  -0.00012   0.00144   0.00000
   C      0.00000   0.00000   4.02631  -0.02123   0.00000  -0.00000
   C      0.00000   0.00000  12.07894  -0.02123   0.00000   0.00000
   O      0.64957   1.88454   9.39473   0.02463   0.03327   0.00392
   O      1.30727  -1.50481   9.39473  -0.03300  -0.00000   0.00000
   O     -1.95684  -0.37973   9.39473   0.02463  -0.03327  -0.00392
   O     -1.30727   1.50481   6.71052  -0.03300  -0.00000   0.00000
   O      1.95684   0.37973   6.71052   0.02463  -0.03327  -0.00392
   O     -0.64957  -1.88454   6.71052   0.02463   0.03327   0.00392
PRIMCOORD   23
     10   1
   Ca     0.00000   0.00000   8.05263   0.00000  -0.00000   0.00009
   Ca     0.00000   0.00000   0.00000  -0.00000  -0.00000   0.00009
   C      0.00000   0.00000   4.02631   0.00000  -0.00000   0.06479
   C      0.00000   0.00000  12.07894  -0.00000  -0.00000   0.06479
   O      0.64957   1.88454   9.39473  -0.00129  -0.00075  -0.01629
   O      1.30727  -1.50481   9.39473  -0.00000   0.00149  -0.01629
   O     -1.95684  -0.37973   9.39473   0.00129  -0.00075  -0.01629
   O     -1.30727   1.50481   6.71052  -0.00000   0.00149  -0.01629
   O      1.95684   0.37973   6.71052   0.00129  -0.00075  -0.01629
   O     -0.64957  -1.88454   6.71052  -0.00129  -0.00075  -0.01629
PRIMCOORD   24
     10   1
   Ca     0.00000   0.00000   8.05263  -0.00000  -0.00000   0.00000
   Ca     0.00000   0.00000   0.00000  -0.00000   0.00000   0.00000
   C      0.00000   0.00000   4.02631  -0.00000  -0.00000   0.06401
   C      0.00000   0.00000  12.07894  -0.00000   0.00000  -0.06401
   O      0.64957   1.88454   9.39473  -0.00105  -0.00061  -0.01730
   O      1.30727  -1.50481   9.39473  -0.00000   0.00121  -0.01730
   O     -1.95684  -0.37973   9.39473   0.00105  -0.00061  -0.01730
   O     -1.30727   1.50481   6.71052  -0.00000  -0.00121   0.01730
   O      1.95684   0.37973   6.71052  -0.00105   0.00061   0.01730
   O     -0.64957  -1.88454   6.71052   0.00105   0.00061   0.01730
PRIMCOORD   25
     10   1
   Ca     0.00000   0.00000   8.05263  -0.00000  -0.00000  -0.00170
   Ca     0.00000   0.00000   0.00000  -0.00000   0.00000   0.00170
   C      0.00000   0.00000   4.02631   0.00000  -0.00000  -0.00000
   C      0.00000   0.00000  12.07894   0.00000   0.00000   0.00000
   O      0.64957   1.88454   9.39473  -0.02041   0.03535   0.00000
   O      1.30727  -1.50481   9.39473   0.04081  -0.00000   0.00000
   O     -1.95684  -0.37973   9.39473  -0.02041  -0.03535  -0.00000
   O     -1.30727   1.50481   6.71052   0.04081   0.00000  -0.00000
   O      1.95684   0.37973   6.71052  -0.02041  -0.03535  -0.00000
   O     -0.64957  -1.88454   6.71052  -0.02041   0.03535   0.00000
PRIMCOORD   26
     10   1
   Ca     0.00000   0.00000   8.05263  -0.00000  -0.00000  -0.00000
   Ca     0.00000   0.00000   0.00000   0.00000   0.00000   0.00000
   C      0.00000   0.00000   4.02631  -0.00000  -0.00000  -0.00000
   C      0.00000   0.00000  12.07894   0.00000  -0.00000  -0.00000
   O      0.64957   1.88454   9.39473  -0.02041   0.03536  -0.00000
   O      1.30727  -1.50481   9.39473   0.04082  -0.00000  -0.00000
   O     -1.95684  -0.37973   9.39473  -0.02041  -0.03536   0.00000
   O     -1.30727   1.50481   6.71052  -0.04082  -0.00000  -0.00000
   O      1.95684   0.37973   6.71052   0.02041   0.03536  -0.00000
   O     -0.64957  -1.88454   6.71052   0.02041  -0.03536   0.00000
PRIMCOORD   27
     10   1
   Ca     0.00000   0.00000   8.05263  -0.00082  -0.00107  -0.00000
   Ca     0.00000   0.00000   0.00000   0.00082  -0.00107  -0.00000
   C      0.00000   0.00000   4.02631  -0.00000   0.06283  -0.00000
   C      0.00000   0.00000  12.07894   0.00000   0.06283  -0.00000
   O      0.64957   1.88454   9.39473   0.00988  -0.02053  -0.00003
   O      1.30727  -1.50481   9.39473   0.00000  -0.00342   0.00007
   O     -1.95684  -0.37973   9.39473  -0.00988  -0.02053  -0.00003
   O     -1.30727   1.50481   6.71052  -0.00000  -0.00342   0.00007
   O      1.95684   0.37973   6.71052  -0.00988  -0.02053  -0.00003
   O     -0.64957  -1.88454   6.71052   0.00988  -0.02053  -0.00003
PRIMCOORD   28
     10   1
   Ca     0.00000   0.00000   8.05263   0.00000  -0.00000  -0.00000
   Ca     0.00000   0.00000   0.00000   0.00000   0.00000   0.00000
   C      0.00000   0.00000   4.02631   0.06292   0.00000   0.00000
   C      0.00000   0.00000  12.07894  -0.06292  -0.00000   0.00000
   O      0.64957   1.88454   9.39473  -0.00948   0.00957  -0.00016
   O      1.30727  -1.50481   9.39473  -0.02605  -0.00000   0.00000
   O     -1.95684  -0.37973   9.39473  -0.00948  -0.00957   0.00016
   O     -1.30727   1.50481   6.71052   0.02605   0.00000  -0.00000
   O      1.95684   0.37973   6.71052   0.00948   0.00957  -0.00016
   O     -0.64957  -1.88454   6.71052   0.00948  -0.00957   0.00016
PRIMCOORD   29
     10   1
   Ca     0.00000   0.00000   8.05263   0.00000  -0.00000  -0.00000
   Ca     0.00000   0.00000   0.00000  -0.00000   0.00000  -0.00000
   C      0.00000   0.00000   4.02631   0.00000  -0.06292  -0.00000
   C      0.00000   0.00000  12.07894  -0.00000   0.06292   0.00000
   O      0.64957   1.88454   9.39473  -0.00957   0.02053   0.00009
   O      1.30727  -1.50481   9.39473  -0.00000   0.00396  -0.00019
   O     -1.95684  -0.37973   9.39473   0.00957   0.02053   0.00009
   O     -1.30727   1.50481   6.71052   0.00000  -0.00396   0.00019
   O      1.95684   0.37973   6.71052  -0.00957  -0.02053  -0.00009
   O     -0.64957  -1.88454   6.71052   0.00957  -0.02053  -0.00009
PRIMCOORD   30
     10   1
   Ca     0.00000   0.00000   8.05263  -0.00164  -0.00045   0.00000
   Ca     0.00000   0.00000   0.00000  -0.00164   0.00045  -0.00000
   C      0.00000   0.00000   4.02631  -0.06158   0.00000  -0.00000
   C      0.00000   0.00000  12.07894  -0.06158  -0.00000   0.00000
   O      0.64957   1.88454   9.39473   0.01132  -0.00947   0.00053
   O      1.30727  -1.50481   9.39473   0.02772   0.00000   0.00000
   O     -1.95684  -0.37973   9.39473   0.01132   0.00947  -0.00053
   O     -1.30727   1.50481   6.71052   0.02772   0.00000  -0.00000
   O      1.95684   0.37973   6.71052   0.01132   0.00947  -0.00053
   O     -0.64957  -1.88454   6.71052   0.01132  -0.00947   0.00053
