[Molden Format]
[FREQ]
    7.73
    8.62
    8.62
  110.77
  141.39
  151.54
  165.47
  165.47
  200.83
  203.26
  212.32
  248.72
  251.44
  253.72
  270.00
  270.00
  287.05
  359.25
  677.67
  677.67
  678.56
  679.48
  825.55
  828.24
 1053.00
 1053.76
 1357.46
 1393.63
 1393.63
 1503.28
[FR-COORD]
   Ca          0.00000        0.00000       15.21726
   Ca          0.00000        0.00000        0.00000
   C           0.00000        0.00000        7.60863
   C           0.00000        0.00000       22.82589
   O           1.22751        3.56126       17.75347
   O           2.47039       -2.84368       17.75347
   O          -3.69789       -0.71758       17.75347
   O          -2.47039        2.84368       12.68105
   O           3.69789        0.71758       12.68105
   O          -1.22751       -3.56126       12.68105
[FR-NORM-COORD]
 vibration     1
  -0.00000   0.00000  -0.31692
  -0.00000   0.00000  -0.31692
  -0.00000   0.00000  -0.31611
  -0.00000   0.00000  -0.31611
  -0.00059  -0.00034  -0.31603
  -0.00000   0.00068  -0.31603
   0.00059  -0.00034  -0.31603
  -0.00000   0.00068  -0.31603
   0.00059  -0.00034  -0.31603
  -0.00059  -0.00034  -0.31603
 vibration     2
   0.00015   0.31702   0.00000
  -0.00015   0.31702   0.00000
   0.00000   0.31614   0.00000
   0.00000   0.31614   0.00000
  -0.00011   0.31606   0.00067
   0.00000   0.31587  -0.00134
   0.00011   0.31606   0.00067
   0.00000   0.31587  -0.00134
   0.00011   0.31606   0.00067
  -0.00011   0.31606   0.00067
 vibration     3
   0.31659  -0.00014  -0.00000
   0.31659   0.00014   0.00000
   0.31618  -0.00000  -0.00000
   0.31618  -0.00000  -0.00000
   0.31607  -0.00010   0.00098
   0.31623  -0.00000   0.00000
   0.31607   0.00010  -0.00098
   0.31623  -0.00000   0.00000
   0.31607   0.00010  -0.00098
   0.31607  -0.00010   0.00098
 vibration     4
   0.00000  -0.00000   0.21943
  -0.00000  -0.00000   0.21943
   0.00000   0.00000  -0.12315
  -0.00000   0.00000  -0.12315
   0.30242   0.17461  -0.15367
   0.00000  -0.34921  -0.15367
  -0.30242   0.17461  -0.15367
  -0.00000  -0.34921  -0.15367
  -0.30242   0.17461  -0.15367
   0.30242   0.17461  -0.15367
 vibration     5
   0.17820  -0.17630  -0.00000
  -0.17820  -0.17630  -0.00000
   0.00000   0.09710   0.00000
   0.00000   0.09710   0.00000
   0.02010   0.11278  -0.25156
   0.00000   0.14760   0.50313
  -0.02010   0.11278  -0.25156
   0.00000   0.14760   0.50313
  -0.02010   0.11278  -0.25156
   0.02010   0.11278  -0.25156
 vibration     6
  -0.09604  -0.24387   0.00000
  -0.09604   0.24387  -0.00000
   0.06041  -0.00000  -0.00000
   0.06041   0.00000   0.00000
   0.07710   0.01912  -0.45448
   0.04397  -0.00000  -0.00000
   0.07710  -0.01912   0.45448
   0.04397   0.00000  -0.00000
   0.07710  -0.01912   0.45448
   0.07710   0.01912  -0.45448
 vibration     7
   0.00000   0.00000  -0.00000
  -0.00000  -0.00000  -0.00000
  -0.00000  -0.33187  -0.00000
   0.00000   0.33187   0.00000
  -0.00274  -0.34966   0.05733
  -0.00000  -0.35441  -0.11467
   0.00274  -0.34966   0.05733
   0.00000   0.35441   0.11467
  -0.00274   0.34966  -0.05733
   0.00274   0.34966  -0.05733
 vibration     8
  -0.00000  -0.00000  -0.00000
  -0.00000   0.00000  -0.00000
   0.33187  -0.00000   0.00000
  -0.33187   0.00000   0.00000
   0.35283   0.00274  -0.09931
   0.34807  -0.00000  -0.00000
   0.35283  -0.00274   0.09931
  -0.34807   0.00000   0.00000
  -0.35283   0.00274  -0.09931
  -0.35283  -0.00274   0.09931
 vibration     9
  -0.00000   0.00000  -0.00000
   0.00000  -0.00000  -0.00000
   0.00000   0.00000  -0.19014
  -0.00000  -0.00000   0.19014
   0.29333   0.16935  -0.19974
   0.00000  -0.33870  -0.19974
  -0.29333   0.16935  -0.19974
  -0.00000   0.33870   0.19974
   0.29333  -0.16935   0.19974
  -0.29333  -0.16935   0.19974
 vibration    10
  -0.60305  -0.17262   0.00000
   0.60305  -0.17262   0.00000
  -0.00000   0.06583  -0.00000
   0.00000   0.06583  -0.00000
   0.02292   0.11553  -0.09161
  -0.00000   0.15524   0.18321
  -0.02292   0.11553  -0.09161
   0.00000   0.15524   0.18321
  -0.02292   0.11553  -0.09161
   0.02292   0.11553  -0.09161
 vibration    11
  -0.03244   0.52079   0.00000
  -0.03244  -0.52079  -0.00000
  -0.00840  -0.00000   0.00000
  -0.00840   0.00000  -0.00000
   0.04683   0.02893  -0.33285
  -0.00329   0.00000   0.00000
   0.04683  -0.02893   0.33285
  -0.00329  -0.00000  -0.00000
   0.04683  -0.02893   0.33285
   0.04683   0.02893  -0.33285
 vibration    12
  -0.00000   0.00000  -0.70583
  -0.00000  -0.00000   0.70583
   0.00000   0.00000   0.00000
   0.00000   0.00000   0.00000
   0.01228  -0.02127  -0.00000
  -0.02456   0.00000  -0.00000
   0.01228   0.02127   0.00000
  -0.02456   0.00000  -0.00000
   0.01228   0.02127   0.00000
   0.01228  -0.02127  -0.00000
 vibration    13
  -0.00000   0.00000  -0.31255
   0.00000   0.00000  -0.31255
   0.00000  -0.00000   0.23085
  -0.00000  -0.00000   0.23085
   0.23716   0.13692   0.20334
   0.00000  -0.27384   0.20334
  -0.23716   0.13692   0.20334
   0.00000  -0.27384   0.20334
  -0.23716   0.13692   0.20334
   0.23716   0.13692   0.20334
 vibration    14
  -0.08738   0.32302   0.00000
   0.08738   0.32302   0.00000
  -0.00000  -0.20470  -0.00000
   0.00000  -0.20470  -0.00000
   0.01484  -0.22709  -0.18348
  -0.00000  -0.20139   0.36695
  -0.01484  -0.22709  -0.18348
   0.00000  -0.20139   0.36695
  -0.01484  -0.22709  -0.18348
   0.01484  -0.22709  -0.18348
 vibration    15
   0.00000  -0.00000  -0.00000
  -0.00000  -0.00000  -0.00000
  -0.08073   0.00000   0.00000
   0.08073  -0.00000  -0.00000
  -0.06759   0.00950  -0.48842
  -0.08404   0.00000  -0.00000
  -0.06759  -0.00950   0.48842
   0.08404  -0.00000   0.00000
   0.06759   0.00950  -0.48842
   0.06759  -0.00950   0.48842
 vibration    16
  -0.00000   0.00000   0.00000
   0.00000   0.00000   0.00000
   0.00000   0.08073   0.00000
  -0.00000  -0.08073  -0.00000
  -0.00950   0.07856   0.28199
   0.00000   0.06210  -0.56398
   0.00950   0.07856   0.28199
  -0.00000  -0.06210   0.56398
  -0.00950  -0.07856  -0.28199
   0.00950  -0.07856  -0.28199
 vibration    17
  -0.00000  -0.00000  -0.00000
  -0.00000  -0.00000  -0.00000
  -0.00000  -0.00000   0.32885
  -0.00000   0.00000  -0.32885
   0.18771   0.10837   0.28921
  -0.00000  -0.21674   0.28921
  -0.18771   0.10837   0.28921
  -0.00000   0.21674  -0.28921
   0.18771  -0.10837  -0.28921
  -0.18771  -0.10837  -0.28921
 vibration    18
  -0.39872   0.03675   0.00000
  -0.39872  -0.03675  -0.00000
   0.31635  -0.00000   0.00000
   0.31635  -0.00000  -0.00000
   0.25278  -0.00204   0.15182
   0.25632  -0.00000   0.00000
   0.25278   0.00204  -0.15182
   0.25632   0.00000   0.00000
   0.25278   0.00204  -0.15182
   0.25278  -0.00204   0.15182
 vibration    19
   0.00000   0.00000   0.00000
  -0.00000   0.00000   0.00000
  -0.00000  -0.22042  -0.00000
   0.00000   0.22042   0.00000
   0.33279  -0.14065   0.00870
  -0.00000   0.43577  -0.01740
  -0.33279  -0.14065   0.00870
   0.00000  -0.43577   0.01740
   0.33279   0.14065  -0.00870
  -0.33279   0.14065  -0.00870
 vibration    20
   0.00000   0.00000  -0.00000
  -0.00000   0.00000  -0.00000
   0.22042  -0.00000  -0.00000
  -0.22042   0.00000   0.00000
  -0.24363  -0.33279  -0.01507
   0.33279   0.00000  -0.00000
  -0.24363   0.33279   0.01507
  -0.33279  -0.00000   0.00000
   0.24363  -0.33279  -0.01507
   0.24363   0.33279   0.01507
 vibration    21
  -0.01563  -0.00740   0.00000
   0.01563  -0.00740   0.00000
   0.00000   0.22784   0.00000
  -0.00000   0.22784   0.00000
  -0.33061   0.13998  -0.02165
   0.00000  -0.43265   0.04330
   0.33061   0.13998  -0.02165
  -0.00000  -0.43265   0.04330
   0.33061   0.13998  -0.02165
  -0.33061   0.13998  -0.02165
 vibration    22
  -0.00124  -0.01437  -0.00000
  -0.00124   0.01437   0.00000
  -0.21226   0.00000  -0.00000
  -0.21226   0.00000   0.00000
   0.24632   0.33273   0.03921
  -0.32999  -0.00000   0.00000
   0.24632  -0.33273  -0.03921
  -0.32999  -0.00000   0.00000
   0.24632  -0.33273  -0.03921
   0.24632   0.33273   0.03921
 vibration    23
   0.00000  -0.00000   0.00085
  -0.00000  -0.00000   0.00085
   0.00000  -0.00000   0.64789
  -0.00000  -0.00000   0.64789
  -0.01293  -0.00747  -0.16285
  -0.00000   0.01493  -0.16285
   0.01293  -0.00747  -0.16285
  -0.00000   0.01493  -0.16285
   0.01293  -0.00747  -0.16285
  -0.01293  -0.00747  -0.16285
 vibration    24
  -0.00000  -0.00000   0.00000
  -0.00000   0.00000   0.00000
  -0.00000  -0.00000   0.64010
  -0.00000   0.00000  -0.64010
  -0.01050  -0.00606  -0.17304
  -0.00000   0.01212  -0.17304
   0.01050  -0.00606  -0.17304
  -0.00000  -0.01212   0.17304
  -0.01050   0.00606   0.17304
   0.01050   0.00606   0.17304
 vibration    25
  -0.00000  -0.00000  -0.01701
  -0.00000   0.00000   0.01701
   0.00000  -0.00000  -0.00000
   0.00000   0.00000   0.00000
  -0.20407   0.35345   0.00000
   0.40813  -0.00000   0.00000
  -0.20407  -0.35345  -0.00000
   0.40813   0.00000  -0.00000
  -0.20407  -0.35345  -0.00000
  -0.20407   0.35345   0.00000
 vibration    26
  -0.00000  -0.00000  -0.00000
   0.00000   0.00000   0.00000
  -0.00000  -0.00000  -0.00000
   0.00000  -0.00000  -0.00000
  -0.20412   0.35355  -0.00000
   0.40825  -0.00000  -0.00000
  -0.20412  -0.35355   0.00000
  -0.40825  -0.00000  -0.00000
   0.20412   0.35355  -0.00000
   0.20412  -0.35355   0.00000
 vibration    27
  -0.00818  -0.01072  -0.00000
   0.00818  -0.01072  -0.00000
  -0.00000   0.62833  -0.00000
   0.00000   0.62833  -0.00000
   0.09881  -0.20533  -0.00033
   0.00000  -0.03418   0.00067
  -0.09881  -0.20533  -0.00033
  -0.00000  -0.03418   0.00067
  -0.09881  -0.20533  -0.00033
   0.09881  -0.20533  -0.00033
 vibration    28
   0.00000  -0.00000  -0.00000
   0.00000   0.00000   0.00000
   0.62916   0.00000   0.00000
  -0.62916  -0.00000   0.00000
  -0.09483   0.09566  -0.00164
  -0.26052  -0.00000   0.00000
  -0.09483  -0.09566   0.00164
   0.26052   0.00000  -0.00000
   0.09483   0.09566  -0.00164
   0.09483  -0.09566   0.00164
 vibration    29
   0.00000  -0.00000  -0.00000
  -0.00000   0.00000  -0.00000
   0.00000  -0.62916  -0.00000
  -0.00000   0.62916   0.00000
  -0.09566   0.20529   0.00094
  -0.00000   0.03960  -0.00189
   0.09566   0.20529   0.00094
   0.00000  -0.03960   0.00189
  -0.09566  -0.20529  -0.00094
   0.09566  -0.20529  -0.00094
 vibration    30
  -0.01644  -0.00453   0.00000
  -0.01644   0.00453  -0.00000
  -0.61584   0.00000  -0.00000
  -0.61584  -0.00000   0.00000
   0.11315  -0.09472   0.00529
   0.27720   0.00000   0.00000
   0.11315   0.09472  -0.00529
   0.27720   0.00000  -0.00000
   0.11315   0.09472  -0.00529
   0.11315  -0.09472   0.00529
