[0] MPI startup(): I_MPI_JOB_FAST_STARTUP variable has been removed from the product, its value is ignored

[0] MPI startup(): I_MPI_OFI_LIBRARY variable has been removed from the product, its value is ignored


     Program DYNMAT v.7.0 starts on  4May2022 at 16:50:19 

     This program is part of the open-source Quantum ESPRESSO suite
     for quantum simulation of materials; please cite
         "P. Giannozzi et al., J. Phys.:Condens. Matter 21 395502 (2009);
         "P. Giannozzi et al., J. Phys.:Condens. Matter 29 465901 (2017);
         "P. Giannozzi et al., J. Chem. Phys. 152 154105 (2020);
          URL http://www.quantum-espresso.org", 
     in publications or presentations arising from this work. More details at
     http://www.quantum-espresso.org/quote

     Parallel version (MPI), running on     1 processors

     MPI processes distributed on     1 nodes
     6747 MiB available memory on the printing compute node when the environment starts
 

     Reading Dynamical Matrix from file calcite.rand5.dyn
     ...Force constants read
     ...epsilon and Z* read

     Polarizability (A^3 units)
     multiply by 0.631055 for Clausius-Mossotti correction
        19.964561    0.000000    0.000000
         0.000000   19.964561    0.000000
         0.000000    0.000000   12.970049

     IR activities are in (D/A)^2/amu units

# mode   [cm-1]    [THz]      IR
    1      7.73    0.2319    0.0000
    2      8.62    0.2583    0.0000
    3      8.62    0.2584    0.0000
    4    110.77    3.3207    2.2356
    5    141.39    4.2386    1.8744
    6    151.54    4.5430    0.1382
    7    165.47    4.9606    0.0000
    8    165.47    4.9606    0.0000
    9    200.83    6.0207    0.0000
   10    203.26    6.0935    2.6925
   11    212.32    6.3651    0.1404
   12    248.72    7.4565    0.0000
   13    251.44    7.5381    8.3143
   14    253.72    7.6063   11.0621
   15    270.00    8.0945    0.0000
   16    270.00    8.0945    0.0000
   17    287.05    8.6054    0.0000
   18    359.25   10.7700    9.8453
   19    677.67   20.3161    0.0000
   20    677.67   20.3161    0.0000
   21    678.56   20.3426    0.2393
   22    679.48   20.3704    0.2080
   23    825.55   24.7495    2.5319
   24    828.24   24.8301    0.0000
   25   1053.00   31.5680    0.0000
   26   1053.76   31.5908    0.0000
   27   1357.46   40.6958   70.7662
   28   1393.63   41.7800    0.0000
   29   1393.63   41.7800    0.0000
   30   1503.28   45.0673   76.3026
 
     DYNMAT       :      0.01s CPU      0.07s WALL

 
   This run was terminated on:  16:50:19   4May2022            

=------------------------------------------------------------------------------=
   JOB DONE.
=------------------------------------------------------------------------------=
