
     Program PWSCF v.7.0 starts on  6Mar2022 at 12:58:30 

     This program is part of the open-source Quantum ESPRESSO suite
     for quantum simulation of materials; please cite
         "P. Giannozzi et al., J. Phys.:Condens. Matter 21 395502 (2009);
         "P. Giannozzi et al., J. Phys.:Condens. Matter 29 465901 (2017);
         "P. Giannozzi et al., J. Chem. Phys. 152 154105 (2020);
          URL http://www.quantum-espresso.org", 
     in publications or presentations arising from this work. More details at
     http://www.quantum-espresso.org/quote

     Parallel version (MPI), running on     1 processors

     MPI processes distributed on     1 nodes
     88888 MiB available memory on the printing compute node when the environment starts
 
     Waiting for input...
     Reading input from standard input

     Current dimensions of program PWSCF are:
     Max number of different atomic species (ntypx) = 10
     Max number of k-points (npk) =  40000
     Max angular momentum in pseudopotentials (lmaxx) =  4

     Subspace diagonalization in iterative solution of the eigenvalue problem:
     a serial algorithm will be used

 
     G-vector sticks info
     --------------------
     sticks:   dense  smooth     PW     G-vecs:    dense   smooth      PW
     Sum        1069     283     97                23289     3143     645
 
     Using Slab Decomposition
 


     bravais-lattice index     =            2
     lattice parameter (alat)  =      10.2000  a.u.
     unit-cell volume          =     265.3020 (a.u.)^3
     number of atoms/cell      =            2
     number of atomic types    =            1
     number of electrons       =         8.00
     number of Kohn-Sham states=            4
     kinetic-energy cutoff     =      20.0000  Ry
     charge density cutoff     =     300.0000  Ry
     scf convergence threshold =      1.0E-08
     mixing beta               =       0.7000
     number of iterations used =            8  plain     mixing
     energy convergence thresh.=      1.0E-04
     force convergence thresh. =      1.0E-03
     press convergence thresh. =      5.0E-01
     Exchange-correlation= SLA  PZ   NOGX NOGC
                           (   1   1   0   0   0   0   0)
     nstep                     =           50


     celldm(1)=  10.200000  celldm(2)=   0.000000  celldm(3)=   0.000000
     celldm(4)=   0.000000  celldm(5)=   0.000000  celldm(6)=   0.000000

     crystal axes: (cart. coord. in units of alat)
               a(1) = (  -0.500000   0.000000   0.500000 )  
               a(2) = (   0.000000   0.500000   0.500000 )  
               a(3) = (  -0.500000   0.500000   0.000000 )  

     reciprocal axes: (cart. coord. in units 2 pi/alat)
               b(1) = ( -1.000000 -1.000000  1.000000 )  
               b(2) = (  1.000000  1.000000  1.000000 )  
               b(3) = ( -1.000000  1.000000 -1.000000 )  


     PseudoPot. # 1 for Si read from file:
     ./Si_LDA.UPF
     MD5 check sum: b5ade7b37ee992b02096e360e546dc2d
     Pseudo is Ultrasoft + core correction, Zval =  4.0
     Generated by new atomic code, or converted to UPF format
     Using radial grid of  899 points,  6 beta functions with: 
                l(1) =   0
                l(2) =   0
                l(3) =   1
                l(4) =   1
                l(5) =   2
                l(6) =   2
     Q(r) pseudized with  8 coefficients,  rinner =    0.900   0.900   0.900
                                                       0.900   0.900

     atomic species   valence    mass     pseudopotential
        Si             4.00    28.08550     Si( 1.00)

     48 Sym. Ops., with inversion, found (24 have fractional translation)



   Cartesian axes

     site n.     atom                  positions (alat units)
         1           Si  tau(   1) = (   0.0000000   0.0000000   0.0000000  )
         2           Si  tau(   2) = (  -0.2500000   0.2500000   0.2500000  )

     number of k points=    29
                       cart. coord. in units 2pi/alat
        k(    1) = (   0.0000000   0.0000000   0.0000000), wk =   0.0039062
        k(    2) = (  -0.1250000   0.1250000  -0.1250000), wk =   0.0312500
        k(    3) = (  -0.2500000   0.2500000  -0.2500000), wk =   0.0312500
        k(    4) = (  -0.3750000   0.3750000  -0.3750000), wk =   0.0312500
        k(    5) = (   0.5000000  -0.5000000   0.5000000), wk =   0.0156250
        k(    6) = (   0.0000000   0.2500000   0.0000000), wk =   0.0234375
        k(    7) = (  -0.1250000   0.3750000  -0.1250000), wk =   0.0937500
        k(    8) = (  -0.2500000   0.5000000  -0.2500000), wk =   0.0937500
        k(    9) = (   0.6250000  -0.3750000   0.6250000), wk =   0.0937500
        k(   10) = (   0.5000000  -0.2500000   0.5000000), wk =   0.0937500
        k(   11) = (   0.3750000  -0.1250000   0.3750000), wk =   0.0937500
        k(   12) = (   0.2500000   0.0000000   0.2500000), wk =   0.0468750
        k(   13) = (   0.0000000   0.5000000   0.0000000), wk =   0.0234375
        k(   14) = (  -0.1250000   0.6250000  -0.1250000), wk =   0.0937500
        k(   15) = (   0.7500000  -0.2500000   0.7500000), wk =   0.0937500
        k(   16) = (   0.6250000  -0.1250000   0.6250000), wk =   0.0937500
        k(   17) = (   0.5000000   0.0000000   0.5000000), wk =   0.0468750
        k(   18) = (   0.0000000   0.7500000   0.0000000), wk =   0.0234375
        k(   19) = (   0.8750000  -0.1250000   0.8750000), wk =   0.0937500
        k(   20) = (   0.7500000   0.0000000   0.7500000), wk =   0.0468750
        k(   21) = (   0.0000000  -1.0000000   0.0000000), wk =   0.0117188
        k(   22) = (  -0.2500000   0.5000000   0.0000000), wk =   0.0937500
        k(   23) = (   0.6250000  -0.3750000   0.8750000), wk =   0.1875000
        k(   24) = (   0.5000000  -0.2500000   0.7500000), wk =   0.0937500
        k(   25) = (   0.7500000  -0.2500000   1.0000000), wk =   0.0937500
        k(   26) = (   0.6250000  -0.1250000   0.8750000), wk =   0.1875000
        k(   27) = (   0.5000000   0.0000000   0.7500000), wk =   0.0937500
        k(   28) = (  -0.2500000  -1.0000000   0.0000000), wk =   0.0468750
        k(   29) = (  -0.5000000  -1.0000000   0.0000000), wk =   0.0234375

     Dense  grid:    23289 G-vectors     FFT dimensions: (  40,  40,  40)

     Smooth grid:     3143 G-vectors     FFT dimensions: (  24,  24,  24)

     Estimated max dynamical RAM per process >      89.09 MB

     Initial potential from superposition of free atoms

     starting charge       7.9988, renormalised to       8.0000
     Starting wfcs are    8 randomized atomic wfcs

     total cpu time spent up to now is        4.5 secs

     Self-consistent Calculation

     iteration #  1     ecut=    20.00 Ry     beta= 0.70
     CG style diagonalization
     ethr =  1.00E-02,  avg # of iterations =  3.0

     Threshold (ethr) on eigenvalues was too large:
     Diagonalizing with lowered threshold

     CG style diagonalization
     ethr =  7.35E-04,  avg # of iterations =  2.0

     total cpu time spent up to now is        5.9 secs

     total energy              =     -19.25589866 Ry
     estimated scf accuracy    <       0.05962800 Ry

     iteration #  2     ecut=    20.00 Ry     beta= 0.70
     CG style diagonalization
     ethr =  7.45E-04,  avg # of iterations =  3.0

     total cpu time spent up to now is        6.6 secs

     total energy              =     -19.25887502 Ry
     estimated scf accuracy    <       0.00196750 Ry

     iteration #  3     ecut=    20.00 Ry     beta= 0.70
     CG style diagonalization
     ethr =  2.46E-05,  avg # of iterations =  4.0

     total cpu time spent up to now is        7.5 secs

     total energy              =     -19.25939948 Ry
     estimated scf accuracy    <       0.00006610 Ry

     iteration #  4     ecut=    20.00 Ry     beta= 0.70
     CG style diagonalization
     ethr =  8.26E-07,  avg # of iterations =  4.1

     total cpu time spent up to now is        8.3 secs

     total energy              =     -19.25942465 Ry
     estimated scf accuracy    <       0.00000969 Ry

     iteration #  5     ecut=    20.00 Ry     beta= 0.70
     CG style diagonalization
     ethr =  1.21E-07,  avg # of iterations =  4.0

     total cpu time spent up to now is        9.2 secs

     total energy              =     -19.25942639 Ry
     estimated scf accuracy    <       0.00000008 Ry

     iteration #  6     ecut=    20.00 Ry     beta= 0.70
     CG style diagonalization
     ethr =  9.47E-10,  avg # of iterations =  4.8

     total cpu time spent up to now is       10.1 secs

     End of self-consistent calculation

          k = 0.0000 0.0000 0.0000 (   411 PWs)   bands (ev):

    -5.8882   6.2020   6.2020   6.2020

          k =-0.1250 0.1250-0.1250 (   390 PWs)   bands (ev):

    -5.6804   4.5810   5.9072   5.9072

          k =-0.2500 0.2500-0.2500 (   395 PWs)   bands (ev):

    -5.0751   2.2213   5.4305   5.4305

          k =-0.3750 0.3750-0.3750 (   407 PWs)   bands (ev):

    -4.1631   0.1684   5.1012   5.1012

          k = 0.5000-0.5000 0.5000 (   392 PWs)   bands (ev):

    -3.5041  -0.8790   4.9892   4.9892

          k = 0.0000 0.2500 0.0000 (   391 PWs)   bands (ev):

    -5.6106   4.8664   5.3756   5.3756

          k =-0.1250 0.3750-0.1250 (   394 PWs)   bands (ev):

    -5.1346   2.9456   4.8562   4.9349

          k =-0.2500 0.5000-0.2500 (   397 PWs)   bands (ev):

    -4.3045   0.8506   4.3325   4.5868

          k = 0.6250-0.3750 0.6250 (   399 PWs)   bands (ev):

    -3.4196  -0.6451   3.8785   4.6150

          k = 0.5000-0.2500 0.5000 (   399 PWs)   bands (ev):

    -3.6722  -0.2648   3.6906   4.9188

          k = 0.3750-0.1250 0.3750 (   398 PWs)   bands (ev):

    -4.6167   1.5215   3.8381   5.4199

          k = 0.2500 0.0000 0.2500 (   389 PWs)   bands (ev):

    -5.3389   3.4944   4.5272   5.9092

          k = 0.0000 0.5000 0.0000 (   415 PWs)   bands (ev):

    -4.7896   2.6719   4.2745   4.2745

          k =-0.1250 0.6250-0.1250 (   406 PWs)   bands (ev):

    -4.0674   1.2290   3.4689   3.9528

          k = 0.7500-0.2500 0.7500 (   404 PWs)   bands (ev):

    -3.1209  -0.2429   2.5839   3.9577

          k = 0.6250-0.1250 0.6250 (   398 PWs)   bands (ev):

    -2.9083  -0.5101   2.1126   4.2834

          k = 0.5000 0.0000 0.5000 (   407 PWs)   bands (ev):

    -3.8086   0.6757   2.3516   4.8536

          k = 0.0000 0.7500 0.0000 (   404 PWs)   bands (ev):

    -3.4560   0.4212   3.5481   3.5481

          k = 0.8750-0.1250 0.8750 (   407 PWs)   bands (ev):

    -2.5431  -0.6768   2.6823   3.4714

          k = 0.7500 0.0000 0.7500 (   399 PWs)   bands (ev):

    -2.0866  -1.0842   1.7837   3.7339

          k = 0.0000-1.0000 0.0000 (   388 PWs)   bands (ev):

    -1.6786  -1.6786   3.2992   3.2992

          k =-0.2500 0.5000 0.0000 (   397 PWs)   bands (ev):

    -4.5370   1.8820   3.4192   4.7473

          k = 0.6250-0.3750 0.8750 (   402 PWs)   bands (ev):

    -3.6311   0.3013   2.8048   4.2306

          k = 0.5000-0.2500 0.7500 (   394 PWs)   bands (ev):

    -2.9593  -0.6692   2.6781   3.9946

          k = 0.7500-0.2500 1.0000 (   410 PWs)   bands (ev):

    -3.2524   0.2004   2.7574   3.3767

          k = 0.6250-0.1250 0.8750 (   404 PWs)   bands (ev):

    -2.3567  -0.7835   2.0354   3.1692

          k = 0.5000 0.0000 0.7500 (   400 PWs)   bands (ev):

    -2.7132  -0.4164   1.8626   3.5555

          k =-0.2500-1.0000 0.0000 (   408 PWs)   bands (ev):

    -1.5962  -1.5962   2.7017   2.7017

          k =-0.5000-1.0000 0.0000 (   396 PWs)   bands (ev):

    -1.5035  -1.5035   2.2451   2.2451

     highest occupied level (ev):     6.2020

!    total energy              =     -19.25942649 Ry
     estimated scf accuracy    <          4.6E-09 Ry

     The total energy is the sum of the following terms:
     one-electron contribution =       5.18385564 Ry
     hartree contribution      =       1.09912622 Ry
     xc contribution           =      -8.64264977 Ry
     ewald contribution        =     -16.89975857 Ry

     convergence has been achieved in   6 iterations

     Forces acting on atoms (cartesian axes, Ry/au):

     atom    1 type  1   force =     0.00000000    0.00000000    0.00000000
     atom    2 type  1   force =     0.00000000    0.00000000    0.00000000

     Total force =     0.000000     Total SCF correction =     0.000000


     Computing stress (Cartesian axis) and pressure

          total   stress  (Ry/bohr**3)                   (kbar)     P=       -1.72
  -0.00001171  -0.00000000   0.00000000           -1.72       -0.00        0.00
  -0.00000000  -0.00001171   0.00000000           -0.00       -1.72        0.00
   0.00000000   0.00000000  -0.00001171            0.00        0.00       -1.72


     BFGS Geometry Optimization
     Energy error            =      0.0E+00 Ry
     Gradient error          =      0.0E+00 Ry/Bohr
     Cell gradient error     =      1.7E+00 kbar

     number of scf cycles    =   1
     number of bfgs steps    =   0

     enthalpy           new  =     -19.2594264884 Ry

     new trust radius        =       0.0009534751 bohr
     new conv_thr            =       0.0000000100 Ry

     new unit-cell volume =    265.06911 a.u.^3 (    39.27919 Ang^3 )
     density =      2.37465 g/cm^3

CELL_PARAMETERS (alat= 10.20000000)
  -0.499853655   0.000000000   0.499853655
  -0.000000000   0.499853655   0.499853655
  -0.499853655   0.499853655  -0.000000000

ATOMIC_POSITIONS (crystal)
Si            0.0000000000        0.0000000000        0.0000000000
Si            0.2500000000        0.2500000000        0.2500000000



     Writing config-only to output data dir ./Si_relax1.save/
     NEW-OLD atomic charge density approx. for the potential
     extrapolated charge    7.99297, renormalised to    8.00000

     total cpu time spent up to now is       15.0 secs

     Self-consistent Calculation

     iteration #  1     ecut=    20.00 Ry     beta= 0.70
     CG style diagonalization
     ethr =  1.00E-06,  avg # of iterations =  2.0

     Threshold (ethr) on eigenvalues was too large:
     Diagonalizing with lowered threshold

     CG style diagonalization
     ethr =  3.54E-09,  avg # of iterations =  2.6

     total cpu time spent up to now is       16.3 secs

     total energy              =     -19.25942799 Ry
     estimated scf accuracy    <       0.00000028 Ry

     iteration #  2     ecut=    20.00 Ry     beta= 0.70
     CG style diagonalization
     ethr =  3.56E-09,  avg # of iterations =  4.8

     total cpu time spent up to now is       17.2 secs

     total energy              =     -19.25942862 Ry
     estimated scf accuracy    <       0.00000030 Ry

     iteration #  3     ecut=    20.00 Ry     beta= 0.70
     CG style diagonalization
     ethr =  3.56E-09,  avg # of iterations =  3.0

     total cpu time spent up to now is       17.9 secs

     total energy              =     -19.25942858 Ry
     estimated scf accuracy    <       0.00000009 Ry

     iteration #  4     ecut=    20.00 Ry     beta= 0.70
     CG style diagonalization
     ethr =  1.08E-09,  avg # of iterations =  4.0

     total cpu time spent up to now is       18.8 secs

     End of self-consistent calculation

          k = 0.0000 0.0000 0.0000 (   411 PWs)   bands (ev):

    -5.8851   6.2112   6.2112   6.2112

          k =-0.1250 0.1250-0.1250 (   390 PWs)   bands (ev):

    -5.6771   4.5899   5.9162   5.9162

          k =-0.2501 0.2501-0.2501 (   395 PWs)   bands (ev):

    -5.0714   2.2288   5.4392   5.4392

          k =-0.3751 0.3751-0.3751 (   407 PWs)   bands (ev):

    -4.1585   0.1745   5.1097   5.1097

          k = 0.5001-0.5001 0.5001 (   392 PWs)   bands (ev):

    -3.4987  -0.8739   4.9976   4.9976

          k = 0.0000 0.2501 0.0000 (   391 PWs)   bands (ev):

    -5.6073   4.8765   5.3840   5.3840

          k =-0.1250 0.3751-0.1250 (   394 PWs)   bands (ev):

    -5.1309   2.9541   4.8642   4.9435

          k =-0.2501 0.5001-0.2501 (   397 PWs)   bands (ev):

    -4.3001   0.8575   4.3407   4.5948

          k = 0.6252-0.3751 0.6252 (   399 PWs)   bands (ev):

    -3.4143  -0.6396   3.8864   4.6230

          k = 0.5001-0.2501 0.5001 (   399 PWs)   bands (ev):

    -3.6671  -0.2589   3.6982   4.9271

          k = 0.3751-0.1250 0.3751 (   398 PWs)   bands (ev):

    -4.6126   1.5290   3.8456   5.4287

          k = 0.2501 0.0000 0.2501 (   389 PWs)   bands (ev):

    -5.3354   3.5032   4.5349   5.9183

          k = 0.0000 0.5001 0.0000 (   415 PWs)   bands (ev):

    -4.7857   2.6812   4.2820   4.2820

          k =-0.1250 0.6252-0.1250 (   406 PWs)   bands (ev):

    -4.0629   1.2372   3.4759   3.9602

          k = 0.7502-0.2501 0.7502 (   404 PWs)   bands (ev):

    -3.1155  -0.2361   2.5902   3.9651

          k = 0.6252-0.1250 0.6252 (   398 PWs)   bands (ev):

    -2.9026  -0.5037   2.1185   4.2911

          k = 0.5001 0.0000 0.5001 (   407 PWs)   bands (ev):

    -3.8038   0.6833   2.3574   4.8618

          k = 0.0000 0.7502 0.0000 (   404 PWs)   bands (ev):

    -3.4510   0.4291   3.5551   3.5551

          k = 0.8753-0.1250 0.8753 (   407 PWs)   bands (ev):

    -2.5373  -0.6696   2.6884   3.4784

          k = 0.7502 0.0000 0.7502 (   399 PWs)   bands (ev):

    -2.0802  -1.0775   1.7888   3.7412

          k = 0.0000-1.0003 0.0000 (   388 PWs)   bands (ev):

    -1.6723  -1.6723   3.3061   3.3061

          k =-0.2501 0.5001 0.0000 (   397 PWs)   bands (ev):

    -4.5328   1.8904   3.4260   4.7555

          k = 0.6252-0.3751 0.8753 (   402 PWs)   bands (ev):

    -3.6261   0.3084   2.8114   4.2382

          k = 0.5001-0.2501 0.7502 (   394 PWs)   bands (ev):

    -2.9535  -0.6633   2.6849   4.0018

          k = 0.7502-0.2501 1.0003 (   410 PWs)   bands (ev):

    -3.2472   0.2082   2.7636   3.3833

          k = 0.6252-0.1250 0.8753 (   404 PWs)   bands (ev):

    -2.3506  -0.7766   2.0409   3.1756

          k = 0.5001 0.0000 0.7502 (   400 PWs)   bands (ev):

    -2.7074  -0.4092   1.8679   3.5624

          k =-0.2501-1.0003 0.0000 (   408 PWs)   bands (ev):

    -1.5897  -1.5897   2.7078   2.7078

          k =-0.5001-1.0003 0.0000 (   396 PWs)   bands (ev):

    -1.4968  -1.4968   2.2506   2.2506

     highest occupied level (ev):     6.2112

!    total energy              =     -19.25942860 Ry
     estimated scf accuracy    <          6.1E-09 Ry

     The total energy is the sum of the following terms:
     one-electron contribution =       5.19064985 Ry
     hartree contribution      =       1.09837375 Ry
     xc contribution           =      -8.64374578 Ry
     ewald contribution        =     -16.90470642 Ry

     convergence has been achieved in   4 iterations

     Forces acting on atoms (cartesian axes, Ry/au):

     atom    1 type  1   force =    -0.00000000   -0.00000000   -0.00000000
     atom    2 type  1   force =     0.00000000    0.00000000    0.00000000

     Total force =     0.000000     Total SCF correction =     0.000000


     Computing stress (Cartesian axis) and pressure

          total   stress  (Ry/bohr**3)                   (kbar)     P=       -0.86
  -0.00000583  -0.00000000   0.00000000           -0.86       -0.00        0.00
  -0.00000000  -0.00000583   0.00000000           -0.00       -0.86        0.00
  -0.00000000  -0.00000000  -0.00000583           -0.00       -0.00       -0.86

     Energy error            =      2.1E-06 Ry
     Gradient error          =      8.2E-33 Ry/Bohr
     Cell gradient error     =      8.6E-01 kbar

     number of scf cycles    =   2
     number of bfgs steps    =   1

     enthalpy           old  =     -19.2594264884 Ry
     enthalpy           new  =     -19.2594285989 Ry

     CASE: enthalpy          _new < enthalpy          _old

     new trust radius        =       0.0009430822 bohr
     new conv_thr            =            1.0E-10 Ry

     new unit-cell volume =    264.83887 a.u.^3 (    39.24507 Ang^3 )
     density =      2.37671 g/cm^3

CELL_PARAMETERS (alat= 10.20000000)
  -0.499708883   0.000000000   0.499708883
  -0.000000000   0.499708883   0.499708883
  -0.499708883   0.499708883  -0.000000000

ATOMIC_POSITIONS (crystal)
Si            0.0000000000       -0.0000000000       -0.0000000000
Si            0.2500000000        0.2500000000        0.2500000000



     Writing config-only to output data dir ./Si_relax1.save/
     NEW-OLD atomic charge density approx. for the potential
     extrapolated charge    7.99305, renormalised to    8.00000

     total cpu time spent up to now is       23.2 secs

     Self-consistent Calculation

     iteration #  1     ecut=    20.00 Ry     beta= 0.70
     CG style diagonalization
     ethr =  1.00E-06,  avg # of iterations =  2.0

     Threshold (ethr) on eigenvalues was too large:
     Diagonalizing with lowered threshold

     CG style diagonalization
     ethr =  3.47E-09,  avg # of iterations =  2.6

     total cpu time spent up to now is       24.4 secs

     total energy              =     -19.25942873 Ry
     estimated scf accuracy    <       0.00000028 Ry

     iteration #  2     ecut=    20.00 Ry     beta= 0.70
     CG style diagonalization
     ethr =  3.52E-09,  avg # of iterations =  4.8

     total cpu time spent up to now is       25.3 secs

     total energy              =     -19.25942935 Ry
     estimated scf accuracy    <       0.00000030 Ry

     iteration #  3     ecut=    20.00 Ry     beta= 0.70
     CG style diagonalization
     ethr =  3.52E-09,  avg # of iterations =  3.0

     total cpu time spent up to now is       26.1 secs

     total energy              =     -19.25942931 Ry
     estimated scf accuracy    <       0.00000008 Ry

     iteration #  4     ecut=    20.00 Ry     beta= 0.70
     CG style diagonalization
     ethr =  1.05E-09,  avg # of iterations =  4.0

     total cpu time spent up to now is       26.9 secs

     total energy              =     -19.25942933 Ry
     estimated scf accuracy    <          6.0E-09 Ry

     iteration #  5     ecut=    20.00 Ry     beta= 0.70
     CG style diagonalization
     ethr =  7.48E-11,  avg # of iterations =  3.1

     total cpu time spent up to now is       27.7 secs

     total energy              =     -19.25942933 Ry
     estimated scf accuracy    <          3.1E-09 Ry

     iteration #  6     ecut=    20.00 Ry     beta= 0.70
     CG style diagonalization
     ethr =  3.84E-11,  avg # of iterations =  3.0

     total cpu time spent up to now is       28.4 secs

     total energy              =     -19.25942933 Ry
     estimated scf accuracy    <          1.1E-09 Ry

     iteration #  7     ecut=    20.00 Ry     beta= 0.70
     CG style diagonalization
     ethr =  1.35E-11,  avg # of iterations =  3.2

     total cpu time spent up to now is       29.2 secs

     End of self-consistent calculation

          k = 0.0000 0.0000 0.0000 (   411 PWs)   bands (ev):

    -5.8818   6.2206   6.2206   6.2206

          k =-0.1251 0.1251-0.1251 (   390 PWs)   bands (ev):

    -5.6736   4.5989   5.9253   5.9253

          k =-0.2501 0.2501-0.2501 (   395 PWs)   bands (ev):

    -5.0675   2.2365   5.4480   5.4480

          k =-0.3752 0.3752-0.3752 (   407 PWs)   bands (ev):

    -4.1538   0.1807   5.1183   5.1183

          k = 0.5003-0.5003 0.5003 (   392 PWs)   bands (ev):

    -3.4931  -0.8688   5.0063   5.0063

          k =-0.0000 0.2501-0.0000 (   391 PWs)   bands (ev):

    -5.6038   4.8867   5.3926   5.3926

          k =-0.1251 0.3752-0.1251 (   394 PWs)   bands (ev):

    -5.1270   2.9627   4.8724   4.9523

          k =-0.2501 0.5003-0.2501 (   397 PWs)   bands (ev):

    -4.2955   0.8645   4.3491   4.6028

          k = 0.6254-0.3752 0.6254 (   399 PWs)   bands (ev):

    -3.4087  -0.6340   3.8944   4.6312

          k = 0.5003-0.2501 0.5003 (   399 PWs)   bands (ev):

    -3.6619  -0.2529   3.7060   4.9356

          k = 0.3752-0.1251 0.3752 (   398 PWs)   bands (ev):

    -4.6083   1.5365   3.8532   5.4376

          k = 0.2501-0.0000 0.2501 (   389 PWs)   bands (ev):

    -5.3317   3.5123   4.5426   5.9276

          k =-0.0000 0.5003-0.0000 (   415 PWs)   bands (ev):

    -4.7816   2.6908   4.2897   4.2897

          k =-0.1251 0.6254-0.1251 (   406 PWs)   bands (ev):

    -4.0582   1.2457   3.4830   3.9677

          k = 0.7504-0.2501 0.7504 (   404 PWs)   bands (ev):

    -3.1099  -0.2291   2.5967   3.9727

          k = 0.6254-0.1251 0.6254 (   398 PWs)   bands (ev):

    -2.8967  -0.4971   2.1245   4.2989

          k = 0.5003-0.0000 0.5003 (   407 PWs)   bands (ev):

    -3.7988   0.6911   2.3634   4.8702

          k =-0.0000 0.7504-0.0000 (   404 PWs)   bands (ev):

    -3.4459   0.4372   3.5624   3.5624

          k = 0.8755-0.1251 0.8755 (   407 PWs)   bands (ev):

    -2.5314  -0.6623   2.6946   3.4856

          k = 0.7504-0.0000 0.7504 (   399 PWs)   bands (ev):

    -2.0736  -1.0707   1.7940   3.7486

          k = 0.0000-1.0006 0.0000 (   388 PWs)   bands (ev):

    -1.6658  -1.6658   3.3132   3.3132

          k =-0.2501 0.5003-0.0000 (   397 PWs)   bands (ev):

    -4.5285   1.8990   3.4329   4.7638

          k = 0.6254-0.3752 0.8755 (   402 PWs)   bands (ev):

    -3.6210   0.3155   2.8182   4.2459

          k = 0.5003-0.2501 0.7504 (   394 PWs)   bands (ev):

    -2.9476  -0.6573   2.6918   4.0092

          k = 0.7504-0.2501 1.0006 (   410 PWs)   bands (ev):

    -3.2418   0.2161   2.7699   3.3901

          k = 0.6254-0.1251 0.8755 (   404 PWs)   bands (ev):

    -2.3443  -0.7695   2.0465   3.1822

          k = 0.5003-0.0000 0.7504 (   400 PWs)   bands (ev):

    -2.7014  -0.4018   1.8733   3.5693

          k =-0.2501-1.0006 0.0000 (   408 PWs)   bands (ev):

    -1.5830  -1.5830   2.7139   2.7139

          k =-0.5003-1.0006 0.0000 (   396 PWs)   bands (ev):

    -1.4898  -1.4898   2.2562   2.2562

     highest occupied level (ev):     6.2206

!    total energy              =     -19.25942933 Ry
     estimated scf accuracy    <          6.2E-11 Ry

     The total energy is the sum of the following terms:
     one-electron contribution =       5.19739358 Ry
     hartree contribution      =       1.09759255 Ry
     xc contribution           =      -8.64481154 Ry
     ewald contribution        =     -16.90960391 Ry

     convergence has been achieved in   7 iterations

     Forces acting on atoms (cartesian axes, Ry/au):

     atom    1 type  1   force =     0.00000000    0.00000000    0.00000000
     atom    2 type  1   force =    -0.00000000   -0.00000000   -0.00000000

     Total force =     0.000000     Total SCF correction =     0.000000


     Computing stress (Cartesian axis) and pressure

          total   stress  (Ry/bohr**3)                   (kbar)     P=       -0.03
  -0.00000018   0.00000000   0.00000000           -0.03        0.00        0.00
  -0.00000000  -0.00000018   0.00000000           -0.00       -0.03        0.00
   0.00000000   0.00000000  -0.00000018            0.00        0.00       -0.03

     Energy error            =      7.3E-07 Ry
     Gradient error          =      9.9E-32 Ry/Bohr
     Cell gradient error     =      2.7E-02 kbar

     bfgs converged in   3 scf cycles and   2 bfgs steps
     (criteria: energy <  1.0E-04 Ry, force <  1.0E-03Ry/Bohr, cell <  5.0E-01kbar)

     End of BFGS Geometry Optimization

     Final enthalpy           =     -19.2594293254 Ry

     File ./Si_relax1.bfgs deleted, as requested
Begin final coordinates
     new unit-cell volume =    264.83887 a.u.^3 (    39.24507 Ang^3 )
     density =      2.37671 g/cm^3

CELL_PARAMETERS (alat= 10.20000000)
  -0.499708883   0.000000000   0.499708883
  -0.000000000   0.499708883   0.499708883
  -0.499708883   0.499708883  -0.000000000

ATOMIC_POSITIONS (crystal)
Si            0.0000000000       -0.0000000000       -0.0000000000
Si            0.2500000000        0.2500000000        0.2500000000
End final coordinates



     Writing config-only to output data dir ./Si_relax1.save/

     Final scf calculation at the relaxed structure.
     The G-vectors are recalculated for the final unit cell
     Results may differ from those at the preceding step.
 
     G-vector sticks info
     --------------------
     sticks:   dense  smooth     PW     G-vecs:    dense   smooth      PW
     Sum        1069     283     97                23289     3143     645
 
     Using Slab Decomposition
 


     bravais-lattice index     =            2
     lattice parameter (alat)  =      10.2000  a.u.
     unit-cell volume          =     264.8389 (a.u.)^3
     number of atoms/cell      =            2
     number of atomic types    =            1
     number of electrons       =         8.00
     number of Kohn-Sham states=            4
     kinetic-energy cutoff     =      20.0000  Ry
     charge density cutoff     =     300.0000  Ry
     scf convergence threshold =      1.0E-10
     mixing beta               =       0.7000
     number of iterations used =            8  plain     mixing
     press convergence thresh. =      5.0E-01
     Exchange-correlation= SLA  PZ   NOGX NOGC
                           (   1   1   0   0   0   0   0)

     celldm(1)=  10.200000  celldm(2)=   0.000000  celldm(3)=   0.000000
     celldm(4)=   0.000000  celldm(5)=   0.000000  celldm(6)=   0.000000

     crystal axes: (cart. coord. in units of alat)
               a(1) = (  -0.499709   0.000000   0.499709 )  
               a(2) = (  -0.000000   0.499709   0.499709 )  
               a(3) = (  -0.499709   0.499709  -0.000000 )  

     reciprocal axes: (cart. coord. in units 2 pi/alat)
               b(1) = ( -1.000583 -1.000583  1.000583 )  
               b(2) = (  1.000583  1.000583  1.000583 )  
               b(3) = ( -1.000583  1.000583 -1.000583 )  


     PseudoPot. # 1 for Si read from file:
     ./Si_LDA.UPF
     MD5 check sum: b5ade7b37ee992b02096e360e546dc2d
     Pseudo is Ultrasoft + core correction, Zval =  4.0
     Generated by new atomic code, or converted to UPF format
     Using radial grid of  899 points,  6 beta functions with: 
                l(1) =   0
                l(2) =   0
                l(3) =   1
                l(4) =   1
                l(5) =   2
                l(6) =   2
     Q(r) pseudized with  8 coefficients,  rinner =    0.900   0.900   0.900
                                                       0.900   0.900

     atomic species   valence    mass     pseudopotential
        Si             4.00    28.08550     Si( 1.00)

     48 Sym. Ops., with inversion, found (24 have fractional translation)



   Cartesian axes

     site n.     atom                  positions (alat units)
         1           Si  tau(   1) = (  -0.0000000  -0.0000000  -0.0000000  )
         2           Si  tau(   2) = (  -0.2498544   0.2498544   0.2498544  )

     number of k points=    29
                       cart. coord. in units 2pi/alat
        k(    1) = (   0.0000000   0.0000000   0.0000000), wk =   0.0039062
        k(    2) = (  -0.1250728   0.1250728  -0.1250728), wk =   0.0312500
        k(    3) = (  -0.2501456   0.2501456  -0.2501456), wk =   0.0312500
        k(    4) = (  -0.3752185   0.3752185  -0.3752185), wk =   0.0312500
        k(    5) = (   0.5002913  -0.5002913   0.5002913), wk =   0.0156250
        k(    6) = (  -0.0000000   0.2501456  -0.0000000), wk =   0.0234375
        k(    7) = (  -0.1250728   0.3752185  -0.1250728), wk =   0.0937500
        k(    8) = (  -0.2501456   0.5002913  -0.2501456), wk =   0.0937500
        k(    9) = (   0.6253641  -0.3752185   0.6253641), wk =   0.0937500
        k(   10) = (   0.5002913  -0.2501456   0.5002913), wk =   0.0937500
        k(   11) = (   0.3752185  -0.1250728   0.3752185), wk =   0.0937500
        k(   12) = (   0.2501456  -0.0000000   0.2501456), wk =   0.0468750
        k(   13) = (  -0.0000000   0.5002913  -0.0000000), wk =   0.0234375
        k(   14) = (  -0.1250728   0.6253641  -0.1250728), wk =   0.0937500
        k(   15) = (   0.7504369  -0.2501456   0.7504369), wk =   0.0937500
        k(   16) = (   0.6253641  -0.1250728   0.6253641), wk =   0.0937500
        k(   17) = (   0.5002913  -0.0000000   0.5002913), wk =   0.0468750
        k(   18) = (  -0.0000000   0.7504369  -0.0000000), wk =   0.0234375
        k(   19) = (   0.8755098  -0.1250728   0.8755098), wk =   0.0937500
        k(   20) = (   0.7504369  -0.0000000   0.7504369), wk =   0.0468750
        k(   21) = (   0.0000000  -1.0005826   0.0000000), wk =   0.0117188
        k(   22) = (  -0.2501456   0.5002913  -0.0000000), wk =   0.0937500
        k(   23) = (   0.6253641  -0.3752185   0.8755098), wk =   0.1875000
        k(   24) = (   0.5002913  -0.2501456   0.7504369), wk =   0.0937500
        k(   25) = (   0.7504369  -0.2501456   1.0005826), wk =   0.0937500
        k(   26) = (   0.6253641  -0.1250728   0.8755098), wk =   0.1875000
        k(   27) = (   0.5002913  -0.0000000   0.7504369), wk =   0.0937500
        k(   28) = (  -0.2501456  -1.0005826   0.0000000), wk =   0.0468750
        k(   29) = (  -0.5002913  -1.0005826   0.0000000), wk =   0.0234375

     Dense  grid:    23289 G-vectors     FFT dimensions: (  40,  40,  40)

     Smooth grid:     3143 G-vectors     FFT dimensions: (  24,  24,  24)

     Estimated max dynamical RAM per process >      89.26 MB

     Initial potential from superposition of free atoms

     starting charge       7.9988, renormalised to       8.0000
     Starting wfcs are    8 randomized atomic wfcs

     total cpu time spent up to now is       35.0 secs

     Self-consistent Calculation

     iteration #  1     ecut=    20.00 Ry     beta= 0.70
     CG style diagonalization
     ethr =  1.00E-06,  avg # of iterations =  7.2

     total cpu time spent up to now is       36.3 secs

     total energy              =     -19.25571417 Ry
     estimated scf accuracy    <       0.06073181 Ry

     iteration #  2     ecut=    20.00 Ry     beta= 0.70
     CG style diagonalization
     ethr =  7.59E-04,  avg # of iterations =  3.0

     total cpu time spent up to now is       37.0 secs

     total energy              =     -19.25888318 Ry
     estimated scf accuracy    <       0.00189149 Ry

     iteration #  3     ecut=    20.00 Ry     beta= 0.70
     CG style diagonalization
     ethr =  2.36E-05,  avg # of iterations =  3.9

     total cpu time spent up to now is       37.8 secs

     total energy              =     -19.25939882 Ry
     estimated scf accuracy    <       0.00004842 Ry

     iteration #  4     ecut=    20.00 Ry     beta= 0.70
     CG style diagonalization
     ethr =  6.05E-07,  avg # of iterations =  4.0

     total cpu time spent up to now is       38.7 secs

     total energy              =     -19.25941061 Ry
     estimated scf accuracy    <       0.00000361 Ry

     iteration #  5     ecut=    20.00 Ry     beta= 0.70
     CG style diagonalization
     ethr =  4.51E-08,  avg # of iterations =  4.0

     total cpu time spent up to now is       39.5 secs

     total energy              =     -19.25941148 Ry
     estimated scf accuracy    <       0.00000009 Ry

     iteration #  6     ecut=    20.00 Ry     beta= 0.70
     CG style diagonalization
     ethr =  1.13E-09,  avg # of iterations =  4.3

     total cpu time spent up to now is       40.4 secs

     total energy              =     -19.25941152 Ry
     estimated scf accuracy    <          9.0E-09 Ry

     iteration #  7     ecut=    20.00 Ry     beta= 0.70
     CG style diagonalization
     ethr =  1.13E-10,  avg # of iterations =  3.9

     total cpu time spent up to now is       41.3 secs

     total energy              =     -19.25941153 Ry
     estimated scf accuracy    <          1.5E-10 Ry

     iteration #  8     ecut=    20.00 Ry     beta= 0.70
     CG style diagonalization
     ethr =  1.86E-12,  avg # of iterations =  4.7

     total cpu time spent up to now is       42.2 secs

     End of self-consistent calculation

          k = 0.0000 0.0000 0.0000 (   411 PWs)   bands (ev):

    -5.8818   6.2206   6.2206   6.2206

          k =-0.1251 0.1251-0.1251 (   390 PWs)   bands (ev):

    -5.6736   4.5989   5.9253   5.9253

          k =-0.2501 0.2501-0.2501 (   392 PWs)   bands (ev):

    -5.0674   2.2367   5.4480   5.4480

          k =-0.3752 0.3752-0.3752 (   401 PWs)   bands (ev):

    -4.1537   0.1808   5.1184   5.1184

          k = 0.5003-0.5003 0.5003 (   392 PWs)   bands (ev):

    -3.4931  -0.8688   5.0062   5.0062

          k =-0.0000 0.2501-0.0000 (   391 PWs)   bands (ev):

    -5.6038   4.8866   5.3926   5.3926

          k =-0.1251 0.3752-0.1251 (   392 PWs)   bands (ev):

    -5.1270   2.9628   4.8725   4.9523

          k =-0.2501 0.5003-0.2501 (   397 PWs)   bands (ev):

    -4.2955   0.8645   4.3491   4.6028

          k = 0.6254-0.3752 0.6254 (   397 PWs)   bands (ev):

    -3.4086  -0.6340   3.8945   4.6312

          k = 0.5003-0.2501 0.5003 (   399 PWs)   bands (ev):

    -3.6619  -0.2529   3.7060   4.9356

          k = 0.3752-0.1251 0.3752 (   398 PWs)   bands (ev):

    -4.6083   1.5365   3.8532   5.4376

          k = 0.2501-0.0000 0.2501 (   389 PWs)   bands (ev):

    -5.3317   3.5123   4.5426   5.9276

          k =-0.0000 0.5003-0.0000 (   415 PWs)   bands (ev):

    -4.7816   2.6908   4.2897   4.2897

          k =-0.1251 0.6254-0.1251 (   401 PWs)   bands (ev):

    -4.0580   1.2460   3.4830   3.9677

          k = 0.7504-0.2501 0.7504 (   399 PWs)   bands (ev):

    -3.1096  -0.2291   2.5967   3.9727

          k = 0.6254-0.1251 0.6254 (   398 PWs)   bands (ev):

    -2.8967  -0.4971   2.1245   4.2989

          k = 0.5003-0.0000 0.5003 (   407 PWs)   bands (ev):

    -3.7988   0.6911   2.3634   4.8702

          k =-0.0000 0.7504-0.0000 (   404 PWs)   bands (ev):

    -3.4459   0.4372   3.5623   3.5623

          k = 0.8755-0.1251 0.8755 (   407 PWs)   bands (ev):

    -2.5315  -0.6623   2.6946   3.4856

          k = 0.7504-0.0000 0.7504 (   399 PWs)   bands (ev):

    -2.0736  -1.0707   1.7939   3.7486

          k = 0.0000-1.0006 0.0000 (   388 PWs)   bands (ev):

    -1.6658  -1.6658   3.3132   3.3132

          k =-0.2501 0.5003-0.0000 (   397 PWs)   bands (ev):

    -4.5285   1.8990   3.4329   4.7638

          k = 0.6254-0.3752 0.8755 (   402 PWs)   bands (ev):

    -3.6210   0.3155   2.8182   4.2459

          k = 0.5003-0.2501 0.7504 (   394 PWs)   bands (ev):

    -2.9476  -0.6573   2.6918   4.0092

          k = 0.7504-0.2501 1.0006 (   410 PWs)   bands (ev):

    -3.2418   0.2161   2.7699   3.3901

          k = 0.6254-0.1251 0.8755 (   399 PWs)   bands (ev):

    -2.3442  -0.7692   2.0465   3.1823

          k = 0.5003-0.0000 0.7504 (   400 PWs)   bands (ev):

    -2.7015  -0.4018   1.8733   3.5693

          k =-0.2501-1.0006 0.0000 (   408 PWs)   bands (ev):

    -1.5830  -1.5830   2.7139   2.7139

          k =-0.5003-1.0006 0.0000 (   396 PWs)   bands (ev):

    -1.4898  -1.4898   2.2562   2.2562

     highest occupied level (ev):     6.2206

!    total energy              =     -19.25941153 Ry
     estimated scf accuracy    <          1.4E-11 Ry

     The total energy is the sum of the following terms:
     one-electron contribution =       5.19740656 Ry
     hartree contribution      =       1.09758470 Ry
     xc contribution           =      -8.64479887 Ry
     ewald contribution        =     -16.90960391 Ry

     convergence has been achieved in   8 iterations

     Forces acting on atoms (cartesian axes, Ry/au):

     atom    1 type  1   force =     0.00000000   -0.00000000    0.00000000
     atom    2 type  1   force =    -0.00000000    0.00000000   -0.00000000

     Total force =     0.000000     Total SCF correction =     0.000000


     Computing stress (Cartesian axis) and pressure

          total   stress  (Ry/bohr**3)                   (kbar)     P=       -0.08
  -0.00000057   0.00000000  -0.00000000           -0.08        0.00       -0.00
   0.00000000  -0.00000057   0.00000000            0.00       -0.08        0.00
  -0.00000000   0.00000000  -0.00000057           -0.00        0.00       -0.08


     Writing all to output data dir ./Si_relax1.save/
 
     init_run     :      4.95s CPU      5.65s WALL (       2 calls)
     electrons    :     19.63s CPU     22.68s WALL (       4 calls)
     update_pot   :      1.94s CPU      1.95s WALL (       2 calls)
     forces       :      3.45s CPU      3.63s WALL (       4 calls)
     stress       :      9.34s CPU      9.42s WALL (       4 calls)

     Called by init_run:
     wfcinit      :      0.39s CPU      0.60s WALL (       2 calls)
     potinit      :      0.35s CPU      0.44s WALL (       2 calls)
     hinit0       :      3.92s CPU      4.08s WALL (       2 calls)

     Called by electrons:
     c_bands      :     11.18s CPU     13.88s WALL (      28 calls)
     sum_band     :      5.24s CPU      5.39s WALL (      28 calls)
     v_of_rho     :      0.44s CPU      0.49s WALL (      29 calls)
     newd         :      3.05s CPU      3.14s WALL (      29 calls)
     mix_rho      :      0.09s CPU      0.10s WALL (      28 calls)

     Called by c_bands:
     init_us_2    :      0.79s CPU      0.91s WALL (    1914 calls)
     init_us_2:cp :      0.75s CPU      0.88s WALL (    1914 calls)
     ccgdiagg     :      8.68s CPU      9.89s WALL (     812 calls)
     wfcrot       :      2.22s CPU      2.51s WALL (     667 calls)

     Called by *cgdiagg:
     h_psi        :      8.46s CPU      9.51s WALL (   10038 calls)
     s_psi        :      0.70s CPU      0.85s WALL (   19409 calls)

     Called by h_psi:
     h_psi:calbec :      0.64s CPU      0.76s WALL (   10038 calls)
     vloc_psi     :      6.97s CPU      7.78s WALL (   10038 calls)
     add_vuspsi   :      0.41s CPU      0.48s WALL (   10038 calls)
     hs_1psi      :      7.34s CPU      8.34s WALL (    9371 calls)
     s_1psi       :      0.93s CPU      1.05s WALL (    9371 calls)

     General routines
     calbec       :      0.92s CPU      1.10s WALL (   20801 calls)
     fft          :      0.25s CPU      0.29s WALL (     203 calls)
     ffts         :      0.02s CPU      0.02s WALL (      57 calls)
     fftw         :      6.76s CPU      7.50s WALL (   27790 calls)
     interpolate  :      0.06s CPU      0.06s WALL (      29 calls)
 
     Parallel routines
 
     PWSCF        :     40.24s CPU     45.86s WALL

 
   This run was terminated on:  12:59:16   6Mar2022            

=------------------------------------------------------------------------------=
   JOB DONE.
=------------------------------------------------------------------------------=
