
     Program PWSCF v.7.0 starts on 14Mar2022 at 18: 0:13 

     This program is part of the open-source Quantum ESPRESSO suite
     for quantum simulation of materials; please cite
         "P. Giannozzi et al., J. Phys.:Condens. Matter 21 395502 (2009);
         "P. Giannozzi et al., J. Phys.:Condens. Matter 29 465901 (2017);
         "P. Giannozzi et al., J. Chem. Phys. 152 154105 (2020);
          URL http://www.quantum-espresso.org", 
     in publications or presentations arising from this work. More details at
     http://www.quantum-espresso.org/quote

     Parallel version (MPI), running on     1 processors

     MPI processes distributed on     1 nodes
     91786 MiB available memory on the printing compute node when the environment starts
 
     Waiting for input...
     Reading input from standard input
     Message from routine read_cards :
     DEPRECATED: no units specified in ATOMIC_POSITIONS card
     Message from routine read_cards :
     ATOMIC_POSITIONS: units set to alat

     Current dimensions of program PWSCF are:
     Max number of different atomic species (ntypx) = 10
     Max number of k-points (npk) =  40000
     Max angular momentum in pseudopotentials (lmaxx) =  4

     Subspace diagonalization in iterative solution of the eigenvalue problem:
     a serial algorithm will be used

 
     G-vector sticks info
     --------------------
     sticks:   dense  smooth     PW     G-vecs:    dense   smooth      PW
     Sum         253     253     85                 2637     2637     531
 
     Using Slab Decomposition
 


     bravais-lattice index     =            2
     lattice parameter (alat)  =       6.6740  a.u.
     unit-cell volume          =      74.3188 (a.u.)^3
     number of atoms/cell      =            2
     number of atomic types    =            1
     number of electrons       =         8.00
     number of Kohn-Sham states=            4
     kinetic-energy cutoff     =      40.0000  Ry
     charge density cutoff     =     160.0000  Ry
     scf convergence threshold =      1.0E-08
     mixing beta               =       0.7000
     number of iterations used =            8  plain     mixing
     energy convergence thresh.=      1.0E-04
     force convergence thresh. =      1.0E-03
     press convergence thresh. =      5.0E-01
     Exchange-correlation= SLA  PZ   NOGX NOGC
                           (   1   1   0   0   0   0   0)
     nstep                     =           50


     celldm(1)=   6.674000  celldm(2)=   0.000000  celldm(3)=   0.000000
     celldm(4)=   0.000000  celldm(5)=   0.000000  celldm(6)=   0.000000

     crystal axes: (cart. coord. in units of alat)
               a(1) = (  -0.500000   0.000000   0.500000 )  
               a(2) = (   0.000000   0.500000   0.500000 )  
               a(3) = (  -0.500000   0.500000   0.000000 )  

     reciprocal axes: (cart. coord. in units 2 pi/alat)
               b(1) = ( -1.000000 -1.000000  1.000000 )  
               b(2) = (  1.000000  1.000000  1.000000 )  
               b(3) = ( -1.000000  1.000000 -1.000000 )  


     PseudoPot. # 1 for C  read from file:
     ../../C_LDA.UPF
     MD5 check sum: 407c1fe918d93b14b177d5600f28733c
     Pseudo is Ultrasoft + core correction, Zval =  4.0
     Generated by new atomic code, or converted to UPF format
     Using radial grid of  721 points,  4 beta functions with: 
                l(1) =   0
                l(2) =   0
                l(3) =   1
                l(4) =   1
     Q(r) pseudized with  8 coefficients,  rinner =    1.100   1.100   1.100


     atomic species   valence    mass     pseudopotential
        C              4.00    12.01100     C ( 1.00)

     48 Sym. Ops., with inversion, found (24 have fractional translation)



   Cartesian axes

     site n.     atom                  positions (alat units)
         1           C   tau(   1) = (   0.0000000   0.0000000   0.0000000  )
         2           C   tau(   2) = (   0.2500000   0.2500000   0.2500000  )

     number of k points=    16
                       cart. coord. in units 2pi/alat
        k(    1) = (   0.0000000   0.0000000   0.0000000), wk =   0.0092593
        k(    2) = (  -0.1666667   0.1666667  -0.1666667), wk =   0.0740741
        k(    3) = (  -0.3333333   0.3333333  -0.3333333), wk =   0.0740741
        k(    4) = (   0.5000000  -0.5000000   0.5000000), wk =   0.0370370
        k(    5) = (   0.0000000   0.3333333   0.0000000), wk =   0.0555556
        k(    6) = (  -0.1666667   0.5000000  -0.1666667), wk =   0.2222222
        k(    7) = (   0.6666667  -0.3333333   0.6666667), wk =   0.2222222
        k(    8) = (   0.5000000  -0.1666667   0.5000000), wk =   0.2222222
        k(    9) = (   0.3333333  -0.0000000   0.3333333), wk =   0.1111111
        k(   10) = (   0.0000000   0.6666667   0.0000000), wk =   0.0555556
        k(   11) = (   0.8333333  -0.1666667   0.8333333), wk =   0.2222222
        k(   12) = (   0.6666667  -0.0000000   0.6666667), wk =   0.1111111
        k(   13) = (   0.0000000  -1.0000000   0.0000000), wk =   0.0277778
        k(   14) = (   0.6666667  -0.3333333   1.0000000), wk =   0.2222222
        k(   15) = (   0.5000000  -0.1666667   0.8333333), wk =   0.2222222
        k(   16) = (  -0.3333333  -1.0000000   0.0000000), wk =   0.1111111

     Dense  grid:     2637 G-vectors     FFT dimensions: (  20,  20,  20)

     Estimated max dynamical RAM per process >       4.64 MB

     Initial potential from superposition of free atoms

     starting charge       7.9999, renormalised to       8.0000
     Starting wfcs are    8 randomized atomic wfcs

     total cpu time spent up to now is        1.8 secs

     Self-consistent Calculation

     iteration #  1     ecut=    40.00 Ry     beta= 0.70
     CG style diagonalization
     ethr =  1.00E-02,  avg # of iterations =  3.0

     total cpu time spent up to now is        2.0 secs

     total energy              =     -23.03928843 Ry
     estimated scf accuracy    <       0.14151257 Ry

     iteration #  2     ecut=    40.00 Ry     beta= 0.70
     CG style diagonalization
     ethr =  1.77E-03,  avg # of iterations =  3.5

     total cpu time spent up to now is        2.3 secs

     total energy              =     -23.05576799 Ry
     estimated scf accuracy    <       0.00145973 Ry

     iteration #  3     ecut=    40.00 Ry     beta= 0.70
     CG style diagonalization
     ethr =  1.82E-05,  avg # of iterations =  4.0

     total cpu time spent up to now is        2.6 secs

     total energy              =     -23.05626097 Ry
     estimated scf accuracy    <       0.00004699 Ry

     iteration #  4     ecut=    40.00 Ry     beta= 0.70
     CG style diagonalization
     ethr =  5.87E-07,  avg # of iterations =  4.0

     total cpu time spent up to now is        2.9 secs

     total energy              =     -23.05627747 Ry
     estimated scf accuracy    <       0.00000208 Ry

     iteration #  5     ecut=    40.00 Ry     beta= 0.70
     CG style diagonalization
     ethr =  2.60E-08,  avg # of iterations =  4.0

     total cpu time spent up to now is        3.1 secs

     total energy              =     -23.05627821 Ry
     estimated scf accuracy    <       0.00000002 Ry

     iteration #  6     ecut=    40.00 Ry     beta= 0.70
     CG style diagonalization
     ethr =  1.91E-10,  avg # of iterations =  4.7

     total cpu time spent up to now is        3.5 secs

     End of self-consistent calculation

          k = 0.0000 0.0000 0.0000 (   331 PWs)   bands (ev):

    -8.0762  13.6322  13.6322  13.6322

          k =-0.1667 0.1667-0.1667 (   320 PWs)   bands (ev):

    -7.2953   9.8307  12.5802  12.5802

          k =-0.3333 0.3333-0.3333 (   308 PWs)   bands (ev):

    -4.9968   4.1325  11.2553  11.2553

          k = 0.5000-0.5000 0.5000 (   332 PWs)   bands (ev):

    -2.0674  -0.0554  10.7648  10.7648

          k = 0.0000 0.3333 0.0000 (   315 PWs)   bands (ev):

    -7.0357  10.9811  10.9811  11.4577

          k =-0.1667 0.5000-0.1667 (   322 PWs)   bands (ev):

    -5.2432   6.3339   9.6881  10.1869

          k = 0.6667-0.3333 0.6667 (   321 PWs)   bands (ev):

    -2.1595   1.4123   8.5804   9.5590

          k = 0.5000-0.1667 0.5000 (   314 PWs)   bands (ev):

    -3.2798   2.9471   7.8651  10.5961

          k = 0.3333-0.0000 0.3333 (   317 PWs)   bands (ev):

    -6.0076   7.9113   8.6976  12.2257

          k = 0.0000 0.6667 0.0000 (   323 PWs)   bands (ev):

    -3.9782   6.5104   8.1715   8.1715

          k = 0.8333-0.1667 0.8333 (   318 PWs)   bands (ev):

    -1.3288   3.4230   5.7524   7.8383

          k = 0.6667-0.0000 0.6667 (   323 PWs)   bands (ev):

    -0.4381   2.6513   3.9649   8.8186

          k = 0.0000-1.0000 0.0000 (   326 PWs)   bands (ev):

     0.8147   0.8147   7.1596   7.1596

          k = 0.6667-0.3333 1.0000 (   318 PWs)   bands (ev):

    -3.0137   4.9394   6.1294   8.6978

          k = 0.5000-0.1667 0.8333 (   318 PWs)   bands (ev):

    -0.2750   1.7301   5.6850   7.5161

          k =-0.3333-1.0000 0.0000 (   320 PWs)   bands (ev):

     1.4133   1.4133   5.5729   5.5729

     highest occupied level (ev):    13.6322

!    total energy              =     -23.05627823 Ry
     estimated scf accuracy    <          1.7E-10 Ry

     The total energy is the sum of the following terms:
     one-electron contribution =       8.27646842 Ry
     hartree contribution      =       1.88931323 Ry
     xc contribution           =      -7.39384014 Ry
     ewald contribution        =     -25.82821974 Ry

     convergence has been achieved in   6 iterations

     Forces acting on atoms (cartesian axes, Ry/au):

     atom    1 type  1   force =     0.00000000    0.00000000    0.00000000
     atom    2 type  1   force =     0.00000000    0.00000000    0.00000000

     Total force =     0.000000     Total SCF correction =     0.000000


     Computing stress (Cartesian axis) and pressure

          total   stress  (Ry/bohr**3)                   (kbar)     P=       -0.07
  -0.00000050  -0.00000000   0.00000000           -0.07       -0.00        0.00
  -0.00000000  -0.00000050  -0.00000000           -0.00       -0.07       -0.00
  -0.00000000  -0.00000000  -0.00000050           -0.00       -0.00       -0.07


     BFGS Geometry Optimization
     Energy error            =      0.0E+00 Ry
     Gradient error          =      0.0E+00 Ry/Bohr
     Cell gradient error     =      1.7E-01 kbar

     bfgs converged in   1 scf cycles and   0 bfgs steps
     (criteria: energy <  1.0E-04 Ry, force <  1.0E-03Ry/Bohr, cell <  5.0E-01kbar)

     End of BFGS Geometry Optimization

     Final enthalpy           =     -23.0562277050 Ry
Begin final coordinates
     new unit-cell volume =     74.31879 a.u.^3 (    11.01291 Ang^3 )
     density =      3.62207 g/cm^3

CELL_PARAMETERS (alat=  6.67400000)
  -0.500000000   0.000000000   0.500000000
   0.000000000   0.500000000   0.500000000
  -0.500000000   0.500000000   0.000000000

ATOMIC_POSITIONS (alat)
C             0.0000000000        0.0000000000        0.0000000000
C             0.2500000000        0.2500000000        0.2500000000
End final coordinates



     Writing config-only to output data dir ./Diamond.save/

     Final scf calculation at the relaxed structure.
     The G-vectors are recalculated for the final unit cell
     Results may differ from those at the preceding step.
 
     G-vector sticks info
     --------------------
     sticks:   dense  smooth     PW     G-vecs:    dense   smooth      PW
     Sum         253     253     85                 2637     2637     531
 
     Using Slab Decomposition
 


     bravais-lattice index     =            2
     lattice parameter (alat)  =       6.6740  a.u.
     unit-cell volume          =      74.3188 (a.u.)^3
     number of atoms/cell      =            2
     number of atomic types    =            1
     number of electrons       =         8.00
     number of Kohn-Sham states=            4
     kinetic-energy cutoff     =      40.0000  Ry
     charge density cutoff     =     160.0000  Ry
     scf convergence threshold =      1.0E-08
     mixing beta               =       0.7000
     number of iterations used =            8  plain     mixing
     press convergence thresh. =      5.0E-01
     Exchange-correlation= SLA  PZ   NOGX NOGC
                           (   1   1   0   0   0   0   0)

     celldm(1)=   6.674000  celldm(2)=   0.000000  celldm(3)=   0.000000
     celldm(4)=   0.000000  celldm(5)=   0.000000  celldm(6)=   0.000000

     crystal axes: (cart. coord. in units of alat)
               a(1) = (  -0.500000   0.000000   0.500000 )  
               a(2) = (   0.000000   0.500000   0.500000 )  
               a(3) = (  -0.500000   0.500000   0.000000 )  

     reciprocal axes: (cart. coord. in units 2 pi/alat)
               b(1) = ( -1.000000 -1.000000  1.000000 )  
               b(2) = (  1.000000  1.000000  1.000000 )  
               b(3) = ( -1.000000  1.000000 -1.000000 )  


     PseudoPot. # 1 for C  read from file:
     ../../C_LDA.UPF
     MD5 check sum: 407c1fe918d93b14b177d5600f28733c
     Pseudo is Ultrasoft + core correction, Zval =  4.0
     Generated by new atomic code, or converted to UPF format
     Using radial grid of  721 points,  4 beta functions with: 
                l(1) =   0
                l(2) =   0
                l(3) =   1
                l(4) =   1
     Q(r) pseudized with  8 coefficients,  rinner =    1.100   1.100   1.100


     atomic species   valence    mass     pseudopotential
        C              4.00    12.01100     C ( 1.00)

     48 Sym. Ops., with inversion, found (24 have fractional translation)



   Cartesian axes

     site n.     atom                  positions (alat units)
         1           C   tau(   1) = (   0.0000000   0.0000000   0.0000000  )
         2           C   tau(   2) = (   0.2500000   0.2500000   0.2500000  )

     number of k points=    16
                       cart. coord. in units 2pi/alat
        k(    1) = (   0.0000000   0.0000000   0.0000000), wk =   0.0092593
        k(    2) = (  -0.1666667   0.1666667  -0.1666667), wk =   0.0740741
        k(    3) = (  -0.3333333   0.3333333  -0.3333333), wk =   0.0740741
        k(    4) = (   0.5000000  -0.5000000   0.5000000), wk =   0.0370370
        k(    5) = (   0.0000000   0.3333333   0.0000000), wk =   0.0555556
        k(    6) = (  -0.1666667   0.5000000  -0.1666667), wk =   0.2222222
        k(    7) = (   0.6666667  -0.3333333   0.6666667), wk =   0.2222222
        k(    8) = (   0.5000000  -0.1666667   0.5000000), wk =   0.2222222
        k(    9) = (   0.3333333  -0.0000000   0.3333333), wk =   0.1111111
        k(   10) = (   0.0000000   0.6666667   0.0000000), wk =   0.0555556
        k(   11) = (   0.8333333  -0.1666667   0.8333333), wk =   0.2222222
        k(   12) = (   0.6666667  -0.0000000   0.6666667), wk =   0.1111111
        k(   13) = (   0.0000000  -1.0000000   0.0000000), wk =   0.0277778
        k(   14) = (   0.6666667  -0.3333333   1.0000000), wk =   0.2222222
        k(   15) = (   0.5000000  -0.1666667   0.8333333), wk =   0.2222222
        k(   16) = (  -0.3333333  -1.0000000   0.0000000), wk =   0.1111111

     Dense  grid:     2637 G-vectors     FFT dimensions: (  20,  20,  20)

     Estimated max dynamical RAM per process >       4.66 MB

     Initial potential from superposition of free atoms

     starting charge       7.9999, renormalised to       8.0000
     Starting wfcs are    8 randomized atomic wfcs

     total cpu time spent up to now is        4.7 secs

     Self-consistent Calculation

     iteration #  1     ecut=    40.00 Ry     beta= 0.70
     CG style diagonalization
     ethr =  1.00E-06,  avg # of iterations =  6.9

     total cpu time spent up to now is        5.2 secs

     total energy              =     -23.04394982 Ry
     estimated scf accuracy    <       0.13481065 Ry

     iteration #  2     ecut=    40.00 Ry     beta= 0.70
     CG style diagonalization
     ethr =  1.69E-03,  avg # of iterations =  3.2

     total cpu time spent up to now is        5.5 secs

     total energy              =     -23.05552818 Ry
     estimated scf accuracy    <       0.00197541 Ry

     iteration #  3     ecut=    40.00 Ry     beta= 0.70
     CG style diagonalization
     ethr =  2.47E-05,  avg # of iterations =  4.1

     total cpu time spent up to now is        5.8 secs

     total energy              =     -23.05624899 Ry
     estimated scf accuracy    <       0.00002877 Ry

     iteration #  4     ecut=    40.00 Ry     beta= 0.70
     CG style diagonalization
     ethr =  3.60E-07,  avg # of iterations =  4.4

     total cpu time spent up to now is        6.1 secs

     total energy              =     -23.05627764 Ry
     estimated scf accuracy    <       0.00000170 Ry

     iteration #  5     ecut=    40.00 Ry     beta= 0.70
     CG style diagonalization
     ethr =  2.13E-08,  avg # of iterations =  3.7

     total cpu time spent up to now is        6.4 secs

     End of self-consistent calculation

          k = 0.0000 0.0000 0.0000 (   331 PWs)   bands (ev):

    -8.0763  13.6320  13.6320  13.6320

          k =-0.1667 0.1667-0.1667 (   320 PWs)   bands (ev):

    -7.2954   9.8306  12.5801  12.5801

          k =-0.3333 0.3333-0.3333 (   308 PWs)   bands (ev):

    -4.9969   4.1324  11.2552  11.2552

          k = 0.5000-0.5000 0.5000 (   332 PWs)   bands (ev):

    -2.0675  -0.0555  10.7647  10.7647

          k = 0.0000 0.3333 0.0000 (   315 PWs)   bands (ev):

    -7.0358  10.9810  10.9810  11.4575

          k =-0.1667 0.5000-0.1667 (   322 PWs)   bands (ev):

    -5.2433   6.3338   9.6880  10.1868

          k = 0.6667-0.3333 0.6667 (   321 PWs)   bands (ev):

    -2.1596   1.4122   8.5803   9.5589

          k = 0.5000-0.1667 0.5000 (   314 PWs)   bands (ev):

    -3.2799   2.9470   7.8650  10.5960

          k = 0.3333-0.0000 0.3333 (   317 PWs)   bands (ev):

    -6.0077   7.9112   8.6975  12.2256

          k = 0.0000 0.6667 0.0000 (   323 PWs)   bands (ev):

    -3.9783   6.5102   8.1714   8.1714

          k = 0.8333-0.1667 0.8333 (   318 PWs)   bands (ev):

    -1.3289   3.4229   5.7523   7.8381

          k = 0.6667-0.0000 0.6667 (   323 PWs)   bands (ev):

    -0.4382   2.6512   3.9648   8.8185

          k = 0.0000-1.0000 0.0000 (   326 PWs)   bands (ev):

     0.8146   0.8146   7.1595   7.1595

          k = 0.6667-0.3333 1.0000 (   318 PWs)   bands (ev):

    -3.0138   4.9393   6.1293   8.6977

          k = 0.5000-0.1667 0.8333 (   318 PWs)   bands (ev):

    -0.2751   1.7300   5.6848   7.5160

          k =-0.3333-1.0000 0.0000 (   320 PWs)   bands (ev):

     1.4131   1.4131   5.5728   5.5728

     highest occupied level (ev):    13.6320

!    total energy              =     -23.05627821 Ry
     estimated scf accuracy    <          6.4E-09 Ry

     The total energy is the sum of the following terms:
     one-electron contribution =       8.27641935 Ry
     hartree contribution      =       1.88938909 Ry
     xc contribution           =      -7.39386692 Ry
     ewald contribution        =     -25.82821974 Ry

     convergence has been achieved in   5 iterations

     Forces acting on atoms (cartesian axes, Ry/au):

     atom    1 type  1   force =    -0.00000000    0.00000000   -0.00000000
     atom    2 type  1   force =     0.00000000    0.00000000    0.00000000

     Total force =     0.000000     Total SCF correction =     0.000000


     Computing stress (Cartesian axis) and pressure

          total   stress  (Ry/bohr**3)                   (kbar)     P=        0.23
   0.00000157   0.00000000  -0.00000000            0.23        0.00       -0.00
   0.00000000   0.00000157  -0.00000000            0.00        0.23       -0.00
  -0.00000000  -0.00000000   0.00000157           -0.00       -0.00        0.23


     Writing all to output data dir ./Diamond.save/
 
     init_run     :      1.34s CPU      1.62s WALL (       2 calls)
     electrons    :      2.90s CPU      3.47s WALL (       2 calls)
     forces       :      0.14s CPU      0.19s WALL (       2 calls)
     stress       :      0.31s CPU      0.35s WALL (       2 calls)

     Called by init_run:
     wfcinit      :      0.22s CPU      0.29s WALL (       2 calls)
     potinit      :      0.04s CPU      0.07s WALL (       2 calls)
     hinit0       :      1.06s CPU      1.14s WALL (       2 calls)

     Called by electrons:
     c_bands      :      2.48s CPU      2.92s WALL (      11 calls)
     sum_band     :      0.34s CPU      0.38s WALL (      11 calls)
     v_of_rho     :      0.03s CPU      0.04s WALL (      13 calls)
     newd         :      0.04s CPU      0.06s WALL (      13 calls)
     mix_rho      :      0.01s CPU      0.01s WALL (      11 calls)

     Called by c_bands:
     init_us_2    :      0.09s CPU      0.11s WALL (     448 calls)
     init_us_2:cp :      0.08s CPU      0.10s WALL (     448 calls)
     ccgdiagg     :      1.96s CPU      2.20s WALL (     176 calls)
     wfcrot       :      0.63s CPU      0.73s WALL (     176 calls)

     Called by *cgdiagg:
     h_psi        :      2.13s CPU      2.36s WALL (    2514 calls)
     s_psi        :      0.09s CPU      0.11s WALL (    4852 calls)

     Called by h_psi:
     h_psi:calbec :      0.09s CPU      0.11s WALL (    2514 calls)
     vloc_psi     :      1.89s CPU      2.09s WALL (    2514 calls)
     add_vuspsi   :      0.05s CPU      0.06s WALL (    2514 calls)
     hs_1psi      :      1.72s CPU      1.92s WALL (    2338 calls)
     s_1psi       :      0.15s CPU      0.17s WALL (    2338 calls)

     General routines
     calbec       :      0.11s CPU      0.13s WALL (    5188 calls)
     fft          :      0.03s CPU      0.07s WALL (      68 calls)
     ffts         :      0.00s CPU      0.00s WALL (      11 calls)
     fftw         :      1.92s CPU      2.11s WALL (    7044 calls)
 
     Parallel routines
 
     PWSCF        :      5.08s CPU      6.93s WALL

 
   This run was terminated on:  18: 0:20  14Mar2022            

=------------------------------------------------------------------------------=
   JOB DONE.
=------------------------------------------------------------------------------=
