
     Program PWSCF v.7.0 starts on  6Apr2022 at 12:51:29 

     This program is part of the open-source Quantum ESPRESSO suite
     for quantum simulation of materials; please cite
         "P. Giannozzi et al., J. Phys.:Condens. Matter 21 395502 (2009);
         "P. Giannozzi et al., J. Phys.:Condens. Matter 29 465901 (2017);
         "P. Giannozzi et al., J. Chem. Phys. 152 154105 (2020);
          URL http://www.quantum-espresso.org", 
     in publications or presentations arising from this work. More details at
     http://www.quantum-espresso.org/quote

     Parallel version (MPI), running on     1 processors

     MPI processes distributed on     1 nodes
     88867 MiB available memory on the printing compute node when the environment starts
 
     Waiting for input...
     Reading input from standard input

     Current dimensions of program PWSCF are:
     Max number of different atomic species (ntypx) = 10
     Max number of k-points (npk) =  40000
     Max angular momentum in pseudopotentials (lmaxx) =  4
     Message from routine setup:
     using ibrav=0 with symmetry is DISCOURAGED, use correct ibrav instead

     Subspace diagonalization in iterative solution of the eigenvalue problem:
     a serial algorithm will be used

 
     G-vector sticks info
     --------------------
     sticks:   dense  smooth     PW     G-vecs:    dense   smooth      PW
     Sum        2161     869    261                79447    20063    3391
 
     Using Slab Decomposition
 


     bravais-lattice index     =            0
     lattice parameter (alat)  =       7.3699  a.u.
     unit-cell volume          =     420.8329 (a.u.)^3
     number of atoms/cell      =            5
     number of atomic types    =            3
     number of electrons       =        44.00
     number of Kohn-Sham states=           22
     kinetic-energy cutoff     =      50.0000  Ry
     charge density cutoff     =     500.0000  Ry
     scf convergence threshold =      1.0E-08
     mixing beta               =       0.7000
     number of iterations used =            8  plain     mixing
     energy convergence thresh.=      1.0E-04
     force convergence thresh. =      1.0E-03
     press convergence thresh. =      5.0E-01
     Exchange-correlation= SLA  PZ   NOGX NOGC
                           (   1   1   0   0   0   0   0)
     nstep                     =           50


     celldm(1)=   7.369932  celldm(2)=   0.000000  celldm(3)=   0.000000
     celldm(4)=   0.000000  celldm(5)=   0.000000  celldm(6)=   0.000000

     crystal axes: (cart. coord. in units of alat)
               a(1) = (   1.000000   0.000000   0.000000 )  
               a(2) = (   0.000000   1.000000   0.000000 )  
               a(3) = (   0.000000   0.000000   1.051282 )  

     reciprocal axes: (cart. coord. in units 2 pi/alat)
               b(1) = (  1.000000  0.000000  0.000000 )  
               b(2) = (  0.000000  1.000000  0.000000 )  
               b(3) = (  0.000000  0.000000  0.951220 )  


     PseudoPot. # 1 for Pb read from file:
     ./Pb_LDA.UPF
     MD5 check sum: 062a37469794d955244864f8fe2e5624
     Pseudo is Ultrasoft + core correction, Zval = 14.0
     Generated by new atomic code, or converted to UPF format
     Using radial grid of  899 points,  6 beta functions with: 
                l(1) =   0
                l(2) =   0
                l(3) =   1
                l(4) =   1
                l(5) =   2
                l(6) =   2
     Q(r) pseudized with  6 coefficients,  rinner =    1.000   1.000   1.000
                                                       1.000   1.000

     PseudoPot. # 2 for Ti read from file:
     ./Ti_LDA.UPF
     MD5 check sum: 0d9f225c038fe889ca2a701dcc8d72cb
     Pseudo is Ultrasoft + core correction, Zval = 12.0
     Generated by new atomic code, or converted to UPF format
     Using radial grid of  851 points,  6 beta functions with: 
                l(1) =   0
                l(2) =   0
                l(3) =   1
                l(4) =   1
                l(5) =   2
                l(6) =   2
     Q(r) pseudized with  6 coefficients,  rinner =    1.000   1.000   1.000
                                                       1.000   1.000

     PseudoPot. # 3 for O  read from file:
     ./O_LDA.UPF
     MD5 check sum: 194b818514d2a7dbb603bb78519a4f40
     Pseudo is Ultrasoft + core correction, Zval =  6.0
     Generated by new atomic code, or converted to UPF format
     Using radial grid of  737 points,  5 beta functions with: 
                l(1) =   0
                l(2) =   0
                l(3) =   1
                l(4) =   1
                l(5) =   2
     Q(r) pseudized with  8 coefficients,  rinner =    0.900   0.900   0.900
                                                       0.900   0.900

     atomic species   valence    mass     pseudopotential
        Pb            14.00   207.20000     Pb( 1.00)
        Ti            12.00    47.88000     Ti( 1.00)
        O              6.00    16.00000     O ( 1.00)

      8 Sym. Ops. (no inversion) found



   Cartesian axes

     site n.     atom                  positions (alat units)
         1           Pb  tau(   1) = (   0.0000000   0.0000000   1.0580339  )
         2           Ti  tau(   2) = (   0.5000000   0.5000000   0.5681377  )
         3           O   tau(   3) = (   0.5000000   0.5000000   0.1036357  )
         4           O   tau(   4) = (   0.5000000   0.0000000   0.6422586  )
         5           O   tau(   5) = (   0.0000000   0.5000000   0.6422586  )

     number of k points=    30
                       cart. coord. in units 2pi/alat
        k(    1) = (   0.0000000   0.0000000   0.0000000), wk =   0.0138889
        k(    2) = (   0.0000000   0.0000000   0.2378049), wk =   0.0277778
        k(    3) = (   0.0000000   0.0000000  -0.4756098), wk =   0.0138889
        k(    4) = (   0.0000000   0.1666667   0.0000000), wk =   0.0555556
        k(    5) = (   0.0000000   0.1666667   0.2378049), wk =   0.1111111
        k(    6) = (   0.0000000   0.1666667  -0.4756098), wk =   0.0555556
        k(    7) = (   0.0000000   0.3333333   0.0000000), wk =   0.0555556
        k(    8) = (   0.0000000   0.3333333   0.2378049), wk =   0.1111111
        k(    9) = (   0.0000000   0.3333333  -0.4756098), wk =   0.0555556
        k(   10) = (   0.0000000  -0.5000000   0.0000000), wk =   0.0277778
        k(   11) = (   0.0000000  -0.5000000   0.2378049), wk =   0.0555556
        k(   12) = (   0.0000000  -0.5000000  -0.4756098), wk =   0.0277778
        k(   13) = (   0.1666667   0.1666667   0.0000000), wk =   0.0555556
        k(   14) = (   0.1666667   0.1666667   0.2378049), wk =   0.1111111
        k(   15) = (   0.1666667   0.1666667  -0.4756098), wk =   0.0555556
        k(   16) = (   0.1666667   0.3333333   0.0000000), wk =   0.1111111
        k(   17) = (   0.1666667   0.3333333   0.2378049), wk =   0.2222222
        k(   18) = (   0.1666667   0.3333333  -0.4756098), wk =   0.1111111
        k(   19) = (   0.1666667  -0.5000000   0.0000000), wk =   0.0555556
        k(   20) = (   0.1666667  -0.5000000   0.2378049), wk =   0.1111111
        k(   21) = (   0.1666667  -0.5000000  -0.4756098), wk =   0.0555556
        k(   22) = (   0.3333333   0.3333333   0.0000000), wk =   0.0555556
        k(   23) = (   0.3333333   0.3333333   0.2378049), wk =   0.1111111
        k(   24) = (   0.3333333   0.3333333  -0.4756098), wk =   0.0555556
        k(   25) = (   0.3333333  -0.5000000   0.0000000), wk =   0.0555556
        k(   26) = (   0.3333333  -0.5000000   0.2378049), wk =   0.1111111
        k(   27) = (   0.3333333  -0.5000000  -0.4756098), wk =   0.0555556
        k(   28) = (  -0.5000000  -0.5000000   0.0000000), wk =   0.0138889
        k(   29) = (  -0.5000000  -0.5000000   0.2378049), wk =   0.0277778
        k(   30) = (  -0.5000000  -0.5000000  -0.4756098), wk =   0.0138889

     Dense  grid:    79447 G-vectors     FFT dimensions: (  54,  54,  60)

     Smooth grid:    20063 G-vectors     FFT dimensions: (  36,  36,  36)

     Estimated max dynamical RAM per process >     332.90 MB

     Check: negative core charge=   -0.000004

     Initial potential from superposition of free atoms

     starting charge      42.9982, renormalised to      44.0000

     negative rho (up, down):  1.690E-02 0.000E+00
     Starting wfcs are   31 randomized atomic wfcs

     total cpu time spent up to now is       20.7 secs

     Self-consistent Calculation

     iteration #  1     ecut=    50.00 Ry     beta= 0.70
     CG style diagonalization
     ethr =  1.00E-02,  avg # of iterations =  2.1

     negative rho (up, down):  1.406E-02 0.000E+00

     total cpu time spent up to now is       31.4 secs

     total energy              =    -380.04591184 Ry
     estimated scf accuracy    <       1.03482581 Ry

     iteration #  2     ecut=    50.00 Ry     beta= 0.70
     CG style diagonalization
     ethr =  2.35E-03,  avg # of iterations =  4.9

     negative rho (up, down):  1.454E-02 0.000E+00

     total cpu time spent up to now is       50.1 secs

     total energy              =    -379.55436743 Ry
     estimated scf accuracy    <       5.13269192 Ry

     iteration #  3     ecut=    50.00 Ry     beta= 0.70
     CG style diagonalization
     ethr =  2.35E-03,  avg # of iterations =  4.4

     negative rho (up, down):  1.524E-02 0.000E+00

     total cpu time spent up to now is       67.0 secs

     total energy              =    -380.53132845 Ry
     estimated scf accuracy    <       0.37023355 Ry

     iteration #  4     ecut=    50.00 Ry     beta= 0.70
     CG style diagonalization
     ethr =  8.41E-04,  avg # of iterations =  3.4

     negative rho (up, down):  1.523E-02 0.000E+00

     total cpu time spent up to now is       80.3 secs

     total energy              =    -380.55339457 Ry
     estimated scf accuracy    <       0.06995396 Ry

     iteration #  5     ecut=    50.00 Ry     beta= 0.70
     CG style diagonalization
     ethr =  1.59E-04,  avg # of iterations =  3.7

     negative rho (up, down):  1.523E-02 0.000E+00

     total cpu time spent up to now is       94.6 secs

     total energy              =    -380.56593453 Ry
     estimated scf accuracy    <       0.01004011 Ry

     iteration #  6     ecut=    50.00 Ry     beta= 0.70
     CG style diagonalization
     ethr =  2.28E-05,  avg # of iterations =  4.0

     negative rho (up, down):  1.524E-02 0.000E+00

     total cpu time spent up to now is      110.2 secs

     total energy              =    -380.57055411 Ry
     estimated scf accuracy    <       0.00631468 Ry

     iteration #  7     ecut=    50.00 Ry     beta= 0.70
     CG style diagonalization
     ethr =  1.44E-05,  avg # of iterations =  3.2

     negative rho (up, down):  1.524E-02 0.000E+00

     total cpu time spent up to now is      122.8 secs

     total energy              =    -380.57040330 Ry
     estimated scf accuracy    <       0.00216354 Ry

     iteration #  8     ecut=    50.00 Ry     beta= 0.70
     CG style diagonalization
     ethr =  4.92E-06,  avg # of iterations =  3.6

     negative rho (up, down):  1.526E-02 0.000E+00

     total cpu time spent up to now is      136.8 secs

     total energy              =    -380.57078010 Ry
     estimated scf accuracy    <       0.00001422 Ry

     iteration #  9     ecut=    50.00 Ry     beta= 0.70
     CG style diagonalization
     c_bands:  1 eigenvalues not converged
     c_bands:  1 eigenvalues not converged
     ethr =  3.23E-08,  avg # of iterations =  7.4

     negative rho (up, down):  1.530E-02 0.000E+00

     total cpu time spent up to now is      164.7 secs

     total energy              =    -380.57085109 Ry
     estimated scf accuracy    <       0.00003031 Ry

     iteration # 10     ecut=    50.00 Ry     beta= 0.70
     CG style diagonalization
     ethr =  3.23E-08,  avg # of iterations =  3.3

     negative rho (up, down):  1.539E-02 0.000E+00

     total cpu time spent up to now is      178.2 secs

     total energy              =    -380.57084565 Ry
     estimated scf accuracy    <       0.00001567 Ry

     iteration # 11     ecut=    50.00 Ry     beta= 0.70
     CG style diagonalization
     ethr =  3.23E-08,  avg # of iterations =  3.8

     negative rho (up, down):  1.539E-02 0.000E+00

     total cpu time spent up to now is      193.4 secs

     total energy              =    -380.57084976 Ry
     estimated scf accuracy    <       0.00000340 Ry

     iteration # 12     ecut=    50.00 Ry     beta= 0.70
     CG style diagonalization
     ethr =  7.72E-09,  avg # of iterations =  4.4

     negative rho (up, down):  1.539E-02 0.000E+00

     total cpu time spent up to now is      211.8 secs

     total energy              =    -380.57085110 Ry
     estimated scf accuracy    <       0.00000005 Ry

     iteration # 13     ecut=    50.00 Ry     beta= 0.70
     CG style diagonalization
     c_bands:  1 eigenvalues not converged
     c_bands:  1 eigenvalues not converged
     c_bands:  1 eigenvalues not converged
     c_bands:  1 eigenvalues not converged
     c_bands:  1 eigenvalues not converged
     c_bands:  2 eigenvalues not converged
     c_bands:  1 eigenvalues not converged
     c_bands:  1 eigenvalues not converged
     c_bands:  1 eigenvalues not converged
     ethr =  1.05E-10,  avg # of iterations = 12.1

     negative rho (up, down):  1.539E-02 0.000E+00

     total cpu time spent up to now is      256.3 secs

     total energy              =    -380.57085210 Ry
     estimated scf accuracy    <       0.00000003 Ry

     iteration # 14     ecut=    50.00 Ry     beta= 0.70
     CG style diagonalization
     ethr =  7.28E-11,  avg # of iterations =  3.8

     negative rho (up, down):  1.541E-02 0.000E+00

     total cpu time spent up to now is      271.5 secs

     total energy              =    -380.57085207 Ry
     estimated scf accuracy    <       0.00000004 Ry

     iteration # 15     ecut=    50.00 Ry     beta= 0.70
     CG style diagonalization
     ethr =  7.28E-11,  avg # of iterations =  4.3

     negative rho (up, down):  1.541E-02 0.000E+00

     total cpu time spent up to now is      288.4 secs

     total energy              =    -380.57085208 Ry
     estimated scf accuracy    <       0.00000001 Ry

     iteration # 16     ecut=    50.00 Ry     beta= 0.70
     CG style diagonalization
     ethr =  2.92E-11,  avg # of iterations =  4.4

     negative rho (up, down):  1.541E-02 0.000E+00

     total cpu time spent up to now is      305.6 secs

     End of self-consistent calculation

          k = 0.0000 0.0000 0.0000 (  2525 PWs)   bands (ev):

   -45.8572 -22.4920 -22.4299 -22.4299  -7.5140  -6.4344  -6.2012  -5.0267
    -5.0267  -4.9917  -4.8705  -4.7660   4.2243   6.3079   6.3079   6.6265
     8.2751   8.2751   8.4917   8.7798   8.9403   8.9403

          k = 0.0000 0.0000 0.2378 (  2517 PWs)   bands (ev):

   -45.8569 -22.5115 -22.4291 -22.4291  -7.3211  -6.3756  -6.1434  -5.0419
    -5.0419  -4.9905  -4.8627  -4.8372   3.4625   6.3773   6.3773   6.7886
     8.0085   8.0085   8.4075   8.8280   9.0464   9.0464

          k = 0.0000 0.0000-0.4756 (  2530 PWs)   bands (ev):

   -45.8567 -22.5308 -22.4283 -22.4283  -7.1105  -6.3108  -6.0935  -5.0570
    -5.0570  -4.9892  -4.9143  -4.8569   2.9647   6.1483   6.4337   6.4337
     7.8246   7.8246   8.3271   9.1166   9.1166   9.9991

          k = 0.0000 0.1667 0.0000 (  2525 PWs)   bands (ev):

   -45.8569 -22.4913 -22.4470 -22.4291  -7.3790  -6.4051  -6.1723  -5.0474
    -5.0254  -5.0045  -4.8755  -4.7568   3.7958   6.3513   6.4169   6.6734
     8.1867   8.2988   8.4919   8.5701   8.6714   9.0388

          k = 0.0000 0.1667 0.2378 (  2521 PWs)   bands (ev):

   -45.8566 -22.5107 -22.4462 -22.4284  -7.2019  -6.3620  -6.1092  -5.0455
    -5.0410  -5.0037  -4.8726  -4.7933   3.2511   6.1632   6.4936   6.8889
     7.6647   7.9993   8.2723   8.6932   8.7205   9.3669

          k = 0.0000 0.1667-0.4756 (  2516 PWs)   bands (ev):

   -45.8563 -22.5299 -22.4453 -22.4276  -7.0180  -6.3130  -6.0450  -5.0566
    -5.0410  -5.0029  -4.8803  -4.8264   2.8361   5.8589   6.5529   6.5790
     7.4670   7.8275   8.3384   8.7476   8.7951   9.9282

          k = 0.0000 0.3333 0.0000 (  2514 PWs)   bands (ev):

   -45.8562 -22.4902 -22.4808 -22.4277  -7.0855  -6.3421  -6.1285  -5.0804
    -5.0300  -5.0225  -4.8732  -4.7649   3.2190   5.9809   6.6730   6.7027
     7.8550   7.8763   8.3462   8.4088   8.7764   9.6140

          k = 0.0000 0.3333 0.2378 (  2507 PWs)   bands (ev):

   -45.8560 -22.5090 -22.4801 -22.4269  -6.9711  -6.3032  -6.0457  -5.0506
    -5.0393  -5.0300  -4.8695  -4.7390   2.8953   5.8687   6.5592   6.8000
     7.3096   7.7481   7.8613   8.4058   8.9374   9.6824

          k = 0.0000 0.3333-0.4756 (  2518 PWs)   bands (ev):

   -45.8557 -22.5279 -22.4791 -22.4261  -6.8863  -6.2407  -5.9354  -5.0557
    -5.0301  -5.0126  -4.9062  -4.6899   2.6072   5.5747   6.3167   6.8549
     7.2012   7.3661   7.6893   8.4126   9.3287   9.5166

          k = 0.0000-0.5000 0.0000 (  2488 PWs)   bands (ev):

   -45.8559 -22.4984 -22.4889 -22.4270  -6.9229  -6.2953  -6.1300  -5.0958
    -5.0425  -5.0212  -4.8470  -4.7989   3.0109   5.6185   6.9605   6.9709
     7.3502   7.4690   8.2693   8.4493   8.8125  10.3567

          k = 0.0000-0.5000 0.2378 (  2506 PWs)   bands (ev):

   -45.8557 -22.5079 -22.4972 -22.4262  -6.8710  -6.2242  -6.0375  -5.0633
    -5.0431  -5.0383  -4.8399  -4.7351   2.7519   5.5907   6.5919   6.8582
     7.1648   7.3167   7.9706   8.3941   8.9305   9.8625

          k = 0.0000-0.5000-0.4756 (  2516 PWs)   bands (ev):

   -45.8554 -22.5267 -22.4960 -22.4254  -6.8562  -6.1478  -5.8835  -5.0552
    -5.0436  -5.0235  -4.8928  -4.6340   2.5128   5.4247   6.0402   6.9195
     7.1690   7.3710   7.3748   8.3577   9.1476   9.6538

          k = 0.1667 0.1667 0.0000 (  2498 PWs)   bands (ev):

   -45.8566 -22.4907 -22.4464 -22.4461  -7.2468  -6.3749  -6.1648  -5.0529
    -5.0395  -5.0067  -4.8542  -4.7480   3.4997   6.2929   6.5225   6.7215
     7.7676   7.8516   8.5450   8.5681   8.8874   9.2666

          k = 0.1667 0.1667 0.2378 (  2513 PWs)   bands (ev):

   -45.8563 -22.5099 -22.4455 -22.4453  -7.0807  -6.3510  -6.1024  -5.0554
    -5.0349  -5.0000  -4.8456  -4.7623   3.1380   6.1083   6.1889   6.8520
     7.5509   7.5533   8.3754   8.7473   8.9721   9.3183

          k = 0.1667 0.1667-0.4756 (  2522 PWs)   bands (ev):

   -45.8560 -22.5290 -22.4446 -22.4445  -6.9147  -6.3270  -6.0297  -5.0665
    -5.0162  -4.9770  -4.8531  -4.7818   2.8093   5.9089   5.9193   6.5857
     7.4565   7.4711   8.2682   8.8174   9.0321   9.6361

          k = 0.1667 0.3333 0.0000 (  2515 PWs)   bands (ev):

   -45.8559 -22.4895 -22.4799 -22.4447  -6.9621  -6.3131  -6.1641  -5.0752
    -5.0297  -4.9901  -4.8314  -4.7555   3.0307   5.9855   6.5409   6.8254
     7.2118   7.8049   8.0613   8.7221   8.8999   9.6950

          k = 0.1667 0.3333 0.2378 (  2507 PWs)   bands (ev):

   -45.8557 -22.5082 -22.4793 -22.4439  -6.8454  -6.3063  -6.0949  -5.0533
    -5.0303  -4.9667  -4.8135  -4.7151   2.9031   5.8356   6.0050   6.4896
     6.9300   7.5766   8.4108   8.7022   9.0267   9.4117

          k = 0.1667 0.3333-0.4756 (  2514 PWs)   bands (ev):

   -45.8554 -22.5270 -22.4783 -22.4430  -6.7636  -6.2862  -5.9905  -5.0502
    -5.0075  -4.9278  -4.8258  -4.6642   2.7384   5.5164   5.9217   6.2227
     6.4321   7.4294   8.5149   8.7405   8.9217   9.4501

          k = 0.1667-0.5000 0.0000 (  2520 PWs)   bands (ev):

   -45.8556 -22.4974 -22.4882 -22.4439  -6.8060  -6.2683  -6.1870  -5.0783
    -5.0226  -4.9683  -4.8121  -4.7900   2.8443   5.6350   6.6966   6.8509
     7.1895   7.4655   7.9761   8.7815   8.8797   9.9768

          k = 0.1667-0.5000 0.2378 (  2512 PWs)   bands (ev):

   -45.8553 -22.5071 -22.4963 -22.4431  -6.7447  -6.2372  -6.1157  -5.0521
    -5.0181  -4.9441  -4.7949  -4.7085   2.7942   5.5965   5.9124   6.2781
     6.8770   7.7200   8.1793   8.7170   9.0179   9.3834

          k = 0.1667-0.5000-0.4756 (  2520 PWs)   bands (ev):

   -45.8551 -22.5259 -22.4952 -22.4423  -6.7330  -6.2075  -5.9757  -5.0455
    -4.9808  -4.9206  -4.8103  -4.6088   2.7039   5.3943   5.7826   5.8878
     6.3063   7.5408   8.3021   8.6582   8.6658   9.6618

          k = 0.3333 0.3333 0.0000 (  2522 PWs)   bands (ev):

   -45.8553 -22.4883 -22.4785 -22.4779  -6.7183  -6.2557  -6.2175  -5.0576
    -5.0120  -4.9219  -4.7588  -4.7524   2.6719   5.9494   6.0853   6.9501
     7.0875   7.2649   7.8806   8.5190   9.3854   9.4064

          k = 0.3333 0.3333 0.2378 (  2512 PWs)   bands (ev):

   -45.8550 -22.5065 -22.4776 -22.4776  -6.5955  -6.3043  -6.1832  -5.0214
    -5.0054  -4.8621  -4.7082  -4.6818   2.8541   5.5999   5.6632   5.9396
     6.6065   7.0676   8.3846   8.9914   9.0204   9.4016

          k = 0.3333 0.3333-0.4756 (  2502 PWs)   bands (ev):

   -45.8548 -22.5253 -22.4768 -22.4767  -6.5338  -6.3490  -6.0775  -4.9991
    -4.9851  -4.7973  -4.6634  -4.6075   3.0207   5.2164   5.2359   5.7016
     6.3525   6.5137   7.6507   9.3567   9.3705   9.5322

          k = 0.3333-0.5000 0.0000 (  2520 PWs)   bands (ev):

   -45.8550 -22.4955 -22.4869 -22.4773  -6.6079  -6.2339  -6.2191  -5.0504
    -4.9905  -4.8602  -4.7917  -4.7186   2.5048   5.6148   6.1206   6.7803
     7.3022   7.4049   7.4998   8.4943   9.0791   9.5732

          k = 0.3333-0.5000 0.2378 (  2514 PWs)   bands (ev):

   -45.8547 -22.5055 -22.4946 -22.4768  -6.4884  -6.2665  -6.2393  -5.0134
    -4.9801  -4.7722  -4.7110  -4.6493   2.7976   5.4976   5.5744   5.6829
     6.3898   7.1415   7.9047   8.9879   9.0189   9.5539

          k = 0.3333-0.5000-0.4756 (  2496 PWs)   bands (ev):

   -45.8545 -22.5242 -22.4936 -22.4760  -6.4825  -6.3103  -6.1155  -4.9853
    -4.9625  -4.7091  -4.6301  -4.5548   3.1666   4.9606   5.1466   5.4572
     6.1414   6.5289   6.8813   9.4565   9.5258   9.6836

          k =-0.5000-0.5000 0.0000 (  2496 PWs)   bands (ev):

   -45.8547 -22.4946 -22.4946 -22.4856  -6.5576  -6.1973  -6.1973  -5.0408
    -4.9487  -4.8092  -4.8092  -4.6714   2.3356   5.4598   5.9632   6.9995
     6.9995   7.5189   7.5189   8.2490   8.5817   9.8307

          k =-0.5000-0.5000 0.2378 (  2508 PWs)   bands (ev):

   -45.8544 -22.5045 -22.4937 -22.4937  -6.3674  -6.2823  -6.2823  -5.0027
    -4.9468  -4.6709  -4.6709  -4.6375   2.7455   5.4133   5.6168   5.6168
     5.9693   7.0822   7.2562   9.0197   9.0197   9.8152

          k =-0.5000-0.5000-0.4756 (  2504 PWs)   bands (ev):

   -45.8542 -22.5233 -22.4928 -22.4928  -6.3558  -6.3558  -6.1732  -4.9645
    -4.9450  -4.5926  -4.5421  -4.5421   3.4113   4.9828   4.9828   5.2903
     5.8881   5.9755   6.2469   9.6944   9.6944   9.7998

     highest occupied level (ev):    10.3567

!    total energy              =    -380.57085208 Ry
     estimated scf accuracy    <          1.9E-09 Ry

     The total energy is the sum of the following terms:
     one-electron contribution =     -84.08366555 Ry
     hartree contribution      =      71.16911117 Ry
     xc contribution           =    -102.54213825 Ry
     ewald contribution        =    -265.11415945 Ry

     convergence has been achieved in  16 iterations

     negative rho (up, down):  1.541E-02 0.000E+00

     Forces acting on atoms (cartesian axes, Ry/au):

     atom    1 type  1   force =     0.00000000    0.00000000   -0.00777486
     atom    2 type  2   force =     0.00000000    0.00000000   -0.01233387
     atom    3 type  3   force =     0.00000000    0.00000000    0.02035350
     atom    4 type  3   force =     0.00000000    0.00000000   -0.00012239
     atom    5 type  3   force =     0.00000000    0.00000000   -0.00012239

     Total force =     0.025037     Total SCF correction =     0.000178


     Computing stress (Cartesian axis) and pressure


     negative rho (up, down):  1.541E-02 0.000E+00
          total   stress  (Ry/bohr**3)                   (kbar)     P=      -65.39
  -0.00043293   0.00000000   0.00000000          -63.69        0.00        0.00
   0.00000000  -0.00043293   0.00000000            0.00      -63.69        0.00
   0.00000000   0.00000000  -0.00046759            0.00        0.00      -68.78


     BFGS Geometry Optimization
     Energy error            =      0.0E+00 Ry
     Gradient error          =      2.0E-02 Ry/Bohr
     Cell gradient error     =      6.9E+01 kbar

     number of scf cycles    =   1
     number of bfgs steps    =   0

     enthalpy           new  =    -380.5708520846 Ry

     new trust radius        =       0.0479609927 bohr
     new conv_thr            =       0.0000000100 Ry

     new unit-cell volume =    406.95917 a.u.^3 (    60.30513 Ang^3 )
     density =      8.34550 g/cm^3

CELL_PARAMETERS (angstrom)
   3.857789515   0.000000000   0.000000000
   0.000000000   3.857789515   0.000000000
   0.000000000   0.000000000   4.052072234

ATOMIC_POSITIONS (crystal)
Pb            0.0000000000        0.0000000000        1.0054190256
Ti            0.5000000000        0.5000000000        0.5388317940
O             0.5000000000        0.5000000000        0.1012072789
O             0.5000000000        0.0000000000        0.6109130947
O             0.0000000000        0.5000000000        0.6109130947



     Writing config-only to output data dir ./PTO_give.save/
     NEW-OLD atomic charge density approx. for the potential

     Check: negative core charge=   -0.000004

     negative rho (up, down):  1.467E-02 0.000E+00
     extrapolated charge   42.53414, renormalised to   44.00000

     total cpu time spent up to now is      350.2 secs

     Self-consistent Calculation

     iteration #  1     ecut=    50.00 Ry     beta= 0.70
     CG style diagonalization
     c_bands:  5 eigenvalues not converged
     c_bands:  3 eigenvalues not converged
     c_bands:  3 eigenvalues not converged
     c_bands:  3 eigenvalues not converged
     c_bands:  2 eigenvalues not converged
     c_bands:  2 eigenvalues not converged
     c_bands:  4 eigenvalues not converged
     c_bands:  4 eigenvalues not converged
     c_bands:  4 eigenvalues not converged
     c_bands:  4 eigenvalues not converged
     c_bands:  3 eigenvalues not converged
     c_bands:  4 eigenvalues not converged
     c_bands:  4 eigenvalues not converged
     c_bands:  5 eigenvalues not converged
     c_bands:  4 eigenvalues not converged
     c_bands:  5 eigenvalues not converged
     c_bands:  2 eigenvalues not converged
     ethr =  1.00E-06,  avg # of iterations = 13.5

     negative rho (up, down):  1.442E-02 0.000E+00

     total cpu time spent up to now is      399.6 secs

     total energy              =    -380.27181755 Ry
     estimated scf accuracy    <       0.24000899 Ry

     iteration #  2     ecut=    50.00 Ry     beta= 0.70
     CG style diagonalization
     ethr =  5.45E-04,  avg # of iterations =  4.9

     negative rho (up, down):  1.446E-02 0.000E+00

     total cpu time spent up to now is      418.4 secs

     total energy              =    -380.52936024 Ry
     estimated scf accuracy    <       0.86638353 Ry

     iteration #  3     ecut=    50.00 Ry     beta= 0.70
     CG style diagonalization
     ethr =  5.45E-04,  avg # of iterations =  4.0

     negative rho (up, down):  1.443E-02 0.000E+00

     total cpu time spent up to now is      433.8 secs

     total energy              =    -380.58624196 Ry
     estimated scf accuracy    <       0.12027855 Ry

     iteration #  4     ecut=    50.00 Ry     beta= 0.70
     CG style diagonalization
     ethr =  2.73E-04,  avg # of iterations =  3.1

     negative rho (up, down):  1.442E-02 0.000E+00

     total cpu time spent up to now is      446.3 secs

     total energy              =    -380.57708130 Ry
     estimated scf accuracy    <       0.07082554 Ry

     iteration #  5     ecut=    50.00 Ry     beta= 0.70
     CG style diagonalization
     ethr =  1.61E-04,  avg # of iterations =  3.1

     negative rho (up, down):  1.443E-02 0.000E+00

     total cpu time spent up to now is      458.6 secs

     total energy              =    -380.57165332 Ry
     estimated scf accuracy    <       0.03287213 Ry

     iteration #  6     ecut=    50.00 Ry     beta= 0.70
     CG style diagonalization
     ethr =  7.47E-05,  avg # of iterations =  3.5

     negative rho (up, down):  1.445E-02 0.000E+00

     total cpu time spent up to now is      472.2 secs

     total energy              =    -380.57497620 Ry
     estimated scf accuracy    <       0.00633448 Ry

     iteration #  7     ecut=    50.00 Ry     beta= 0.70
     CG style diagonalization
     ethr =  1.44E-05,  avg # of iterations =  3.3

     negative rho (up, down):  1.455E-02 0.000E+00

     total cpu time spent up to now is      485.3 secs

     total energy              =    -380.57518374 Ry
     estimated scf accuracy    <       0.00529732 Ry

     iteration #  8     ecut=    50.00 Ry     beta= 0.70
     CG style diagonalization
     ethr =  1.20E-05,  avg # of iterations =  3.2

     negative rho (up, down):  1.475E-02 0.000E+00

     total cpu time spent up to now is      498.0 secs

     total energy              =    -380.57539125 Ry
     estimated scf accuracy    <       0.00415843 Ry

     iteration #  9     ecut=    50.00 Ry     beta= 0.70
     CG style diagonalization
     ethr =  9.45E-06,  avg # of iterations =  3.0

     negative rho (up, down):  1.618E-02 0.000E+00

     total cpu time spent up to now is      510.0 secs

     total energy              =    -380.57432688 Ry
     estimated scf accuracy    <       0.00388872 Ry

     iteration # 10     ecut=    50.00 Ry     beta= 0.70
     CG style diagonalization
     ethr =  8.84E-06,  avg # of iterations =  3.1

     negative rho (up, down):  1.625E-02 0.000E+00

     total cpu time spent up to now is      522.2 secs

     total energy              =    -380.57393862 Ry
     estimated scf accuracy    <       0.00160148 Ry

     iteration # 11     ecut=    50.00 Ry     beta= 0.70
     CG style diagonalization
     ethr =  3.64E-06,  avg # of iterations =  3.5

     negative rho (up, down):  1.625E-02 0.000E+00

     total cpu time spent up to now is      536.0 secs

     total energy              =    -380.57422599 Ry
     estimated scf accuracy    <       0.00039209 Ry

     iteration # 12     ecut=    50.00 Ry     beta= 0.70
     CG style diagonalization
     ethr =  8.91E-07,  avg # of iterations =  3.3

     negative rho (up, down):  1.654E-02 0.000E+00

     total cpu time spent up to now is      548.9 secs

     total energy              =    -380.57430485 Ry
     estimated scf accuracy    <       0.00035708 Ry

     iteration # 13     ecut=    50.00 Ry     beta= 0.70
     CG style diagonalization
     ethr =  8.12E-07,  avg # of iterations =  3.0

     negative rho (up, down):  1.694E-02 0.000E+00

     total cpu time spent up to now is      560.9 secs

     total energy              =    -380.57442680 Ry
     estimated scf accuracy    <       0.00040355 Ry

     iteration # 14     ecut=    50.00 Ry     beta= 0.70
     CG style diagonalization
     ethr =  8.12E-07,  avg # of iterations =  3.1

     negative rho (up, down):  1.662E-02 0.000E+00

     total cpu time spent up to now is      573.2 secs

     total energy              =    -380.57429377 Ry
     estimated scf accuracy    <       0.00068863 Ry

     iteration # 15     ecut=    50.00 Ry     beta= 0.70
     CG style diagonalization
     ethr =  8.12E-07,  avg # of iterations =  3.0

     negative rho (up, down):  1.606E-02 0.000E+00

     total cpu time spent up to now is      585.3 secs

     total energy              =    -380.57419575 Ry
     estimated scf accuracy    <       0.00039336 Ry

     iteration # 16     ecut=    50.00 Ry     beta= 0.70
     CG style diagonalization
     ethr =  8.12E-07,  avg # of iterations =  3.3

     negative rho (up, down):  1.520E-02 0.000E+00

     total cpu time spent up to now is      598.2 secs

     total energy              =    -380.57417147 Ry
     estimated scf accuracy    <       0.00008078 Ry

     iteration # 17     ecut=    50.00 Ry     beta= 0.70
     CG style diagonalization
     ethr =  1.84E-07,  avg # of iterations =  4.3

     negative rho (up, down):  1.526E-02 0.000E+00

     total cpu time spent up to now is      614.7 secs

     total energy              =    -380.57418873 Ry
     estimated scf accuracy    <       0.00004957 Ry

     iteration # 18     ecut=    50.00 Ry     beta= 0.70
     CG style diagonalization
     ethr =  1.13E-07,  avg # of iterations =  3.7

     negative rho (up, down):  1.527E-02 0.000E+00

     total cpu time spent up to now is      629.0 secs

     total energy              =    -380.57419857 Ry
     estimated scf accuracy    <       0.00000283 Ry

     iteration # 19     ecut=    50.00 Ry     beta= 0.70
     CG style diagonalization
     ethr =  6.44E-09,  avg # of iterations =  6.2

     negative rho (up, down):  1.530E-02 0.000E+00

     total cpu time spent up to now is      651.9 secs

     total energy              =    -380.57420405 Ry
     estimated scf accuracy    <       0.00000678 Ry

     iteration # 20     ecut=    50.00 Ry     beta= 0.70
     CG style diagonalization
     ethr =  6.44E-09,  avg # of iterations =  4.2

     negative rho (up, down):  1.532E-02 0.000E+00

     total cpu time spent up to now is      667.7 secs

     total energy              =    -380.57420528 Ry
     estimated scf accuracy    <       0.00000006 Ry

     iteration # 21     ecut=    50.00 Ry     beta= 0.70
     CG style diagonalization
     ethr =  1.27E-10,  avg # of iterations =  6.1

     negative rho (up, down):  1.532E-02 0.000E+00

     total cpu time spent up to now is      689.8 secs

     total energy              =    -380.57420553 Ry
     estimated scf accuracy    <       0.00000003 Ry

     iteration # 22     ecut=    50.00 Ry     beta= 0.70
     CG style diagonalization
     ethr =  6.34E-11,  avg # of iterations =  4.5

     negative rho (up, down):  1.532E-02 0.000E+00

     total cpu time spent up to now is      706.5 secs

     total energy              =    -380.57420553 Ry
     estimated scf accuracy    <       0.00000005 Ry

     iteration # 23     ecut=    50.00 Ry     beta= 0.70
     CG style diagonalization
     ethr =  6.34E-11,  avg # of iterations =  3.9

     negative rho (up, down):  1.532E-02 0.000E+00

     total cpu time spent up to now is      721.2 secs

     End of self-consistent calculation

          k = 0.0000 0.0000 0.0000 (  2525 PWs)   bands (ev):

   -45.1701 -21.8650 -21.7649 -21.7649  -7.1700  -6.0180  -5.7805  -4.4409
    -4.4409  -4.4036  -4.2856  -4.1709   4.8117   6.7293   6.7293   7.1059
     8.6586   8.6586   8.9435   9.2399   9.4373   9.4373

          k = 0.0000 0.0000 0.2406 (  2517 PWs)   bands (ev):

   -45.1697 -21.8885 -21.7639 -21.7639  -6.9599  -5.9554  -5.7124  -4.4586
    -4.4586  -4.4021  -4.2739  -4.2486   3.9487   6.7811   6.7811   7.2943
     8.4164   8.4164   8.8595   9.3473   9.5530   9.5530

          k = 0.0000 0.0000-0.4812 (  2530 PWs)   bands (ev):

   -45.1694 -21.9117 -21.7630 -21.7630  -6.7309  -5.8868  -5.6518  -4.4761
    -4.4761  -4.4006  -4.3324  -4.2640   3.4017   6.5983   6.8108   6.8108
     8.2674   8.2674   8.7794   9.6291   9.6291  10.6348

          k = 0.0000 0.1685 0.0000 (  2525 PWs)   bands (ev):

   -45.1697 -21.8642 -21.7851 -21.7640  -7.0257  -5.9839  -5.7498  -4.4655
    -4.4393  -4.4183  -4.2881  -4.1595   4.3289   6.7908   6.8400   7.1333
     8.6320   8.6799   8.9336   9.0602   9.1468   9.5303

          k = 0.0000 0.1685 0.2406 (  2521 PWs)   bands (ev):

   -45.1693 -21.8875 -21.7841 -21.7631  -6.8320  -5.9378  -5.6761  -4.4642
    -4.4576  -4.4174  -4.2828  -4.1993   3.7196   6.5694   6.9030   7.3807
     8.0961   8.4012   8.7508   9.1407   9.2208   9.9134

          k = 0.0000 0.1685-0.4812 (  2516 PWs)   bands (ev):

   -45.1690 -21.9105 -21.7830 -21.7621  -6.6313  -5.8852  -5.6003  -4.4757
    -4.4607  -4.4166  -4.2879  -4.2347   3.2624   6.2452   6.9381   7.0301
     7.9042   8.2604   8.8278   9.1975   9.3036  10.5538

          k = 0.0000 0.3370 0.0000 (  2514 PWs)   bands (ev):

   -45.1689 -21.8624 -21.8254 -21.7623  -6.7122  -5.9107  -5.7041  -4.5028
    -4.4476  -4.4359  -4.2823  -4.1652   3.7044   6.4243   7.0792   7.1235
     8.3121   8.3480   8.7946   8.8010   9.2549  10.1810

          k = 0.0000 0.3370 0.2406 (  2507 PWs)   bands (ev):

   -45.1686 -21.8853 -21.8241 -21.7613  -6.5846  -5.8688  -5.6096  -4.4699
    -4.4557  -4.4477  -4.2755  -4.1385   3.3386   6.2902   6.9863   7.2194
     7.7440   8.1642   8.3240   8.8739   9.4030  10.2641

          k = 0.0000 0.3370-0.4812 (  2518 PWs)   bands (ev):

   -45.1682 -21.9080 -21.8229 -21.7603  -6.4902  -5.8001  -5.4848  -4.4749
    -4.4482  -4.4289  -4.3122  -4.0845   3.0175   5.9562   6.7524   7.2564
     7.6321   7.8092   8.1080   8.9138   9.8199  10.1060

          k = 0.0000-0.5055 0.0000 (  2488 PWs)   bands (ev):

   -45.1685 -21.8613 -21.8456 -21.7615  -6.5389  -5.8544  -5.7096  -4.5187
    -4.4620  -4.4344  -4.2560  -4.1979   3.4851   6.0440   7.3347   7.3690
     7.8294   7.9667   8.7156   8.8349   9.2858  10.9817

          k = 0.0000-0.5055 0.2406 (  2506 PWs)   bands (ev):

   -45.1682 -21.8841 -21.8441 -21.7604  -6.4771  -5.7778  -5.6056  -4.4819
    -4.4629  -4.4545  -4.2413  -4.1340   3.1881   6.0139   7.0134   7.2556
     7.5774   7.7575   8.4354   8.8424   9.4091  10.4567

          k = 0.0000-0.5055-0.4812 (  2516 PWs)   bands (ev):

   -45.1679 -21.9067 -21.8427 -21.7594  -6.4580  -5.6957  -5.4320  -4.4744
    -4.4638  -4.4372  -4.2975  -4.0222   2.9193   5.8219   6.4358   7.3230
     7.5723   7.8034   7.8213   8.8464   9.7579  10.1302

          k = 0.1685 0.1685 0.0000 (  2498 PWs)   bands (ev):

   -45.1693 -21.8633 -21.7844 -21.7840  -6.8841  -5.9488  -5.7408  -4.4715
    -4.4558  -4.4212  -4.2646  -4.1489   4.0009   6.7183   6.9643   7.1838
     8.1497   8.2942   9.0329   9.0367   9.3729   9.7517

          k = 0.1685 0.1685 0.2406 (  2513 PWs)   bands (ev):

   -45.1690 -21.8864 -21.7833 -21.7830  -6.7014  -5.9225  -5.6681  -4.4746
    -4.4513  -4.4147  -4.2541  -4.1647   3.5985   6.4888   6.5956   7.3209
     7.9959   8.0283   8.8064   9.2115   9.4479   9.8779

          k = 0.1685 0.1685-0.4812 (  2522 PWs)   bands (ev):

   -45.1686 -21.9094 -21.7822 -21.7820  -6.5192  -5.8961  -5.5830  -4.4878
    -4.4308  -4.3902  -4.2600  -4.1865   3.2321   6.2684   6.3141   7.0210
     7.9186   7.9474   8.7122   9.2866   9.5051  10.2482

          k = 0.1685 0.3370 0.0000 (  2515 PWs)   bands (ev):

   -45.1685 -21.8615 -21.8243 -21.7824  -6.5800  -5.8771  -5.7366  -4.4958
    -4.4449  -4.4059  -4.2400  -4.1547   3.4913   6.4244   6.9592   7.2613
     7.6427   8.1925   8.5355   9.2001   9.3901  10.2560

          k = 0.1685 0.3370 0.2406 (  2507 PWs)   bands (ev):

   -45.1682 -21.8843 -21.8231 -21.7813  -6.4479  -5.8684  -5.6575  -4.4717
    -4.4457  -4.3823  -4.2185  -4.1126   3.3445   6.2388   6.3686   6.9270
     7.3698   8.0587   8.8786   9.1558   9.4961   9.9746

          k = 0.1685 0.3370-0.4812 (  2514 PWs)   bands (ev):

   -45.1679 -21.9070 -21.8219 -21.7803  -6.3556  -5.8443  -5.5383  -4.4695
    -4.4205  -4.3404  -4.2313  -4.0573   3.1528   5.8755   6.3036   6.6235
     6.8714   7.9254   8.9669   9.2171   9.4801   9.9288

          k = 0.1685-0.5055 0.0000 (  2520 PWs)   bands (ev):

   -45.1681 -21.8604 -21.8444 -21.7814  -6.4137  -5.8234  -5.7617  -4.4988
    -4.4370  -4.3848  -4.2209  -4.1885   3.2923   6.0627   7.0660   7.3176
     7.6101   7.9518   8.3530   9.2431   9.3803  10.5956

          k = 0.1685-0.5055 0.2406 (  2512 PWs)   bands (ev):

   -45.1678 -21.8831 -21.8431 -21.7804  -6.3393  -5.7885  -5.6814  -4.4698
    -4.4319  -4.3618  -4.1943  -4.1068   3.2277   6.0178   6.2643   6.6689
     7.3322   8.1985   8.6547   9.1586   9.5118   9.9307

          k = 0.1685-0.5055-0.4812 (  2520 PWs)   bands (ev):

   -45.1675 -21.9057 -21.8417 -21.7794  -6.3224  -5.7550  -5.5216  -4.4640
    -4.3877  -4.3397  -4.2129  -3.9960   3.1156   5.7710   6.1401   6.2855
     6.7166   8.0396   8.8475   9.1038   9.1532  10.1414

          k = 0.3370 0.3370 0.0000 (  2522 PWs)   bands (ev):

   -45.1678 -21.8597 -21.8223 -21.8220  -6.3213  -5.8096  -5.7816  -4.4755
    -4.4262  -4.3335  -4.1602  -4.1577   3.0896   6.4051   6.5104   7.3540
     7.5184   7.6300   8.3444   9.0396   9.8760   9.9939

          k = 0.3370 0.3370 0.2406 (  2512 PWs)   bands (ev):

   -45.1674 -21.8823 -21.8212 -21.8210  -6.1771  -5.8590  -5.7439  -4.4336
    -4.4194  -4.2732  -4.1114  -4.0757   3.2783   5.9441   6.0166   6.4011
     7.0407   7.5340   8.9375   9.4579   9.4905   9.8906

          k = 0.3370 0.3370-0.4812 (  2502 PWs)   bands (ev):

   -45.1671 -21.9048 -21.8200 -21.8199  -6.1026  -5.9048  -5.6236  -4.4124
    -4.3919  -4.2085  -4.0602  -3.9963   3.4415   5.5364   5.5671   6.1443
     6.7899   6.9637   8.1800   9.8237   9.8647  10.0068

          k = 0.3370-0.5055 0.0000 (  2520 PWs)   bands (ev):

   -45.1674 -21.8585 -21.8421 -21.8211  -6.2072  -5.7913  -5.7666  -4.4672
    -4.4025  -4.2686  -4.1919  -4.1258   2.9044   6.0540   6.5559   7.1590
     7.6794   7.8342   7.9518   9.0136   9.6825  10.0830

          k = 0.3370-0.5055 0.2406 (  2514 PWs)   bands (ev):

   -45.1670 -21.8811 -21.8409 -21.8201  -6.0615  -5.8143  -5.8004  -4.4244
    -4.3908  -4.1802  -4.1068  -4.0475   3.2073   5.8337   5.9917   6.0630
     6.8254   7.6022   8.4676   9.4517   9.4784  10.0520

          k = 0.3370-0.5055-0.4812 (  2496 PWs)   bands (ev):

   -45.1667 -21.9036 -21.8397 -21.8190  -6.0456  -5.8586  -5.6612  -4.3947
    -4.3676  -4.1193  -4.0209  -3.9404   3.5872   5.2762   5.4608   5.9073
     6.5557   6.9702   7.3957   9.9262  10.0258  10.1652

          k =-0.5055-0.5055 0.0000 (  2496 PWs)   bands (ev):

   -45.1670 -21.8573 -21.8410 -21.8410  -6.1576  -5.7411  -5.7411  -4.4563
    -4.3552  -4.2134  -4.2134  -4.0769   2.7135   5.9013   6.3889   7.3675
     7.3675   7.9497   7.9497   8.7793   9.2135  10.3443

          k =-0.5055-0.5055 0.2406 (  2508 PWs)   bands (ev):

   -45.1667 -21.8800 -21.8399 -21.8399  -5.9420  -5.8288  -5.8288  -4.4120
    -4.3530  -4.0651  -4.0651  -4.0431   3.1331   5.8592   5.9519   5.9519
     6.3955   7.5438   7.8143   9.4817   9.4817  10.3266

          k =-0.5055-0.5055-0.4812 (  2504 PWs)   bands (ev):

   -45.1663 -21.9025 -21.8388 -21.8388  -5.9050  -5.9050  -5.7197  -4.3677
    -4.3509  -3.9979  -3.9257  -3.9257   3.8161   5.2926   5.2926   5.7424
     6.3877   6.4022   6.6475  10.1769  10.1769  10.3091

     highest occupied level (ev):    10.9817

!    total energy              =    -380.57420554 Ry
     estimated scf accuracy    <          1.9E-09 Ry

     The total energy is the sum of the following terms:
     one-electron contribution =     -79.92033132 Ry
     hartree contribution      =      70.01080424 Ry
     xc contribution           =    -102.67741181 Ry
     ewald contribution        =    -267.98726665 Ry

     convergence has been achieved in  23 iterations

     negative rho (up, down):  1.532E-02 0.000E+00

     Forces acting on atoms (cartesian axes, Ry/au):

     atom    1 type  1   force =     0.00000000    0.00000000   -0.00128511
     atom    2 type  2   force =     0.00000000    0.00000000    0.00549232
     atom    3 type  3   force =     0.00000000    0.00000000   -0.00701211
     atom    4 type  3   force =     0.00000000    0.00000000    0.00140245
     atom    5 type  3   force =     0.00000000    0.00000000    0.00140245

     Total force =     0.009215     Total SCF correction =     0.000025


     Computing stress (Cartesian axis) and pressure


     negative rho (up, down):  1.532E-02 0.000E+00
          total   stress  (Ry/bohr**3)                   (kbar)     P=        0.59
  -0.00001297   0.00000000   0.00000000           -1.91        0.00        0.00
   0.00000000  -0.00001297   0.00000000            0.00       -1.91        0.00
   0.00000000   0.00000000   0.00003797            0.00        0.00        5.59

     Energy error            =      3.4E-03 Ry
     Gradient error          =      7.0E-03 Ry/Bohr
     Cell gradient error     =      5.6E+00 kbar

     number of scf cycles    =   2
     number of bfgs steps    =   1

     enthalpy           old  =    -380.5708520846 Ry
     enthalpy           new  =    -380.5742055382 Ry

     CASE: enthalpy          _new < enthalpy          _old

     new trust radius        =       0.0063482942 bohr
     new conv_thr            =       0.0000000007 Ry

     new unit-cell volume =    406.90846 a.u.^3 (    60.29761 Ang^3 )
     density =      8.34654 g/cm^3

CELL_PARAMETERS (angstrom)
   3.856083393   0.000000000   0.000000000
   0.000000000   3.856083393   0.000000000
   0.000000000   0.000000000   4.055153379

ATOMIC_POSITIONS (crystal)
Pb            0.0000000000        0.0000000000        1.0052489403
Ti            0.5000000000        0.5000000000        0.5394868486
O             0.5000000000        0.5000000000        0.1003782284
O             0.5000000000        0.0000000000        0.6110851354
O             0.0000000000        0.5000000000        0.6110851354



     Writing config-only to output data dir ./PTO_give.save/
     NEW-OLD atomic charge density approx. for the potential

     Check: negative core charge=   -0.000004

     negative rho (up, down):  1.531E-02 0.000E+00
     extrapolated charge   43.99464, renormalised to   44.00000

     total cpu time spent up to now is      763.3 secs

     Self-consistent Calculation

     iteration #  1     ecut=    50.00 Ry     beta= 0.70
     CG style diagonalization
     c_bands:  1 eigenvalues not converged
     ethr =  1.00E-06,  avg # of iterations =  4.6

     Threshold (ethr) on eigenvalues was too large:
     Diagonalizing with lowered threshold

     CG style diagonalization
     c_bands:  1 eigenvalues not converged
     c_bands:  1 eigenvalues not converged
     c_bands:  1 eigenvalues not converged
     c_bands:  1 eigenvalues not converged
     ethr =  8.08E-08,  avg # of iterations =  4.5

     negative rho (up, down):  1.532E-02 0.000E+00

     total cpu time spent up to now is      799.4 secs

     total energy              =    -380.57424963 Ry
     estimated scf accuracy    <       0.00003058 Ry

     iteration #  2     ecut=    50.00 Ry     beta= 0.70
     CG style diagonalization
     ethr =  6.95E-08,  avg # of iterations =  4.5

     negative rho (up, down):  1.531E-02 0.000E+00

     total cpu time spent up to now is      816.2 secs

     total energy              =    -380.57424882 Ry
     estimated scf accuracy    <       0.00005332 Ry

     iteration #  3     ecut=    50.00 Ry     beta= 0.70
     CG style diagonalization
     ethr =  6.95E-08,  avg # of iterations =  4.2

     negative rho (up, down):  1.531E-02 0.000E+00

     total cpu time spent up to now is      831.8 secs

     total energy              =    -380.57426091 Ry
     estimated scf accuracy    <       0.00000786 Ry

     iteration #  4     ecut=    50.00 Ry     beta= 0.70
     CG style diagonalization
     ethr =  1.79E-08,  avg # of iterations =  3.6

     negative rho (up, down):  1.531E-02 0.000E+00

     total cpu time spent up to now is      845.5 secs

     total energy              =    -380.57426259 Ry
     estimated scf accuracy    <       0.00000043 Ry

     iteration #  5     ecut=    50.00 Ry     beta= 0.70
     CG style diagonalization
     ethr =  9.84E-10,  avg # of iterations =  4.9

     negative rho (up, down):  1.531E-02 0.000E+00

     total cpu time spent up to now is      863.7 secs

     total energy              =    -380.57426300 Ry
     estimated scf accuracy    <       0.00000024 Ry

     iteration #  6     ecut=    50.00 Ry     beta= 0.70
     CG style diagonalization
     ethr =  5.44E-10,  avg # of iterations =  3.7

     negative rho (up, down):  1.531E-02 0.000E+00

     total cpu time spent up to now is      877.7 secs

     total energy              =    -380.57426303 Ry
     estimated scf accuracy    <       0.00000006 Ry

     iteration #  7     ecut=    50.00 Ry     beta= 0.70
     CG style diagonalization
     ethr =  1.44E-10,  avg # of iterations =  3.9

     negative rho (up, down):  1.531E-02 0.000E+00

     total cpu time spent up to now is      892.4 secs

     total energy              =    -380.57426304 Ry
     estimated scf accuracy    <       0.00000001 Ry

     iteration #  8     ecut=    50.00 Ry     beta= 0.70
     CG style diagonalization
     ethr =  3.31E-11,  avg # of iterations =  4.9

     negative rho (up, down):  1.531E-02 0.000E+00

     total cpu time spent up to now is      910.4 secs

     total energy              =    -380.57426305 Ry
     estimated scf accuracy    <          8.0E-09 Ry

     iteration #  9     ecut=    50.00 Ry     beta= 0.70
     CG style diagonalization
     ethr =  1.82E-11,  avg # of iterations =  3.9

     negative rho (up, down):  1.531E-02 0.000E+00

     total cpu time spent up to now is      925.0 secs

     total energy              =    -380.57426305 Ry
     estimated scf accuracy    <          7.4E-10 Ry

     iteration # 10     ecut=    50.00 Ry     beta= 0.70
     CG style diagonalization
     ethr =  1.69E-12,  avg # of iterations =  5.8

     negative rho (up, down):  1.531E-02 0.000E+00

     total cpu time spent up to now is      946.2 secs

     End of self-consistent calculation

          k = 0.0000 0.0000 0.0000 (  2525 PWs)   bands (ev):

   -45.1826 -21.8666 -21.7786 -21.7786  -7.1742  -6.0244  -5.7736  -4.4354
    -4.4354  -4.3966  -4.2781  -4.1671   4.8154   6.7286   6.7286   7.0981
     8.6866   8.6866   8.9395   9.2616   9.4331   9.4331

          k = 0.0000 0.0000 0.2404 (  2517 PWs)   bands (ev):

   -45.1823 -21.8898 -21.7777 -21.7777  -6.9669  -5.9626  -5.7051  -4.4530
    -4.4530  -4.3951  -4.2666  -4.2440   3.9565   6.7839   6.7839   7.2948
     8.4358   8.4358   8.8566   9.3537   9.5496   9.5496

          k = 0.0000 0.0000-0.4809 (  2530 PWs)   bands (ev):

   -45.1820 -21.9128 -21.7767 -21.7767  -6.7414  -5.8949  -5.6435  -4.4704
    -4.4704  -4.3936  -4.3268  -4.2568   3.4137   6.6028   6.8184   6.8184
     8.2789   8.2789   8.7774   9.6252   9.6252  10.6297

          k = 0.0000 0.1686 0.0000 (  2525 PWs)   bands (ev):

   -45.1822 -21.8658 -21.7990 -21.7777  -7.0294  -5.9902  -5.7427  -4.4599
    -4.4338  -4.4114  -4.2810  -4.1553   4.3319   6.7870   6.8387   7.1296
     8.6473   8.7083   8.9354   9.0559   9.1533   9.5399

          k = 0.0000 0.1686 0.2404 (  2521 PWs)   bands (ev):

   -45.1819 -21.8888 -21.7979 -21.7768  -6.8386  -5.9444  -5.6685  -4.4585
    -4.4520  -4.4105  -4.2758  -4.1946   3.7256   6.5722   6.9051   7.3786
     8.1080   8.4196   8.7512   9.1462   9.2186   9.9137

          k = 0.0000 0.1686-0.4809 (  2516 PWs)   bands (ev):

   -45.1816 -21.9116 -21.7969 -21.7758  -6.6411  -5.8925  -5.5917  -4.4700
    -4.4550  -4.4096  -4.2812  -4.2294   3.2717   6.2549   6.9454   7.0286
     7.9118   8.2714   8.8226   9.2048   9.3000  10.5503

          k = 0.0000 0.3371 0.0000 (  2514 PWs)   bands (ev):

   -45.1815 -21.8641 -21.8393 -21.7760  -6.7152  -5.9158  -5.6966  -4.4971
    -4.4408  -4.4305  -4.2759  -4.1603   3.7073   6.4177   7.0770   7.1201
     8.3110   8.3471   8.7918   8.8286   9.2676  10.1931

          k = 0.0000 0.3371 0.2404 (  2507 PWs)   bands (ev):

   -45.1811 -21.8867 -21.8381 -21.7750  -6.5907  -5.8737  -5.6011  -4.4642
    -4.4501  -4.4409  -4.2692  -4.1337   3.3423   6.2880   6.9861   7.2194
     7.7458   8.1717   8.3262   8.8853   9.4063  10.2723

          k = 0.0000 0.3371-0.4809 (  2518 PWs)   bands (ev):

   -45.1808 -21.9091 -21.8369 -21.7740  -6.4985  -5.8059  -5.4754  -4.4692
    -4.4414  -4.4235  -4.3056  -4.0802   3.0225   5.9653   6.7478   7.2633
     7.6343   7.8045   8.1117   8.9181   9.8402  10.1008

          k = 0.0000-0.5057 0.0000 (  2488 PWs)   bands (ev):

   -45.1811 -21.8629 -21.8597 -21.7752  -6.5421  -5.8587  -5.7017  -4.5130
    -4.4553  -4.4289  -4.2500  -4.1923   3.4884   6.0337   7.3383   7.3625
     7.8199   7.9665   8.7132   8.8653   9.2985  10.9948

          k = 0.0000-0.5057 0.2404 (  2506 PWs)   bands (ev):

   -45.1808 -21.8854 -21.8582 -21.7742  -6.4834  -5.7827  -5.5953  -4.4765
    -4.4562  -4.4490  -4.2355  -4.1292   3.1913   6.0056   7.0159   7.2575
     7.5694   7.7669   8.4364   8.8603   9.4074  10.4732

          k = 0.0000-0.5057-0.4809 (  2516 PWs)   bands (ev):

   -45.1804 -21.9078 -21.8568 -21.7732  -6.4655  -5.7012  -5.4215  -4.4688
    -4.4571  -4.4321  -4.2911  -4.0182   2.9225   5.8251   6.4355   7.3219
     7.5871   7.7936   7.8172   8.8568   9.7692  10.1398

          k = 0.1686 0.1686 0.0000 (  2498 PWs)   bands (ev):

   -45.1818 -21.8650 -21.7982 -21.7978  -6.8871  -5.9549  -5.7338  -4.4658
    -4.4502  -4.4147  -4.2573  -4.1444   4.0035   6.7143   6.9591   7.1841
     8.1695   8.2939   9.0298   9.0535   9.3698   9.7712

          k = 0.1686 0.1686 0.2404 (  2513 PWs)   bands (ev):

   -45.1815 -21.8878 -21.7971 -21.7968  -6.7073  -5.9290  -5.6601  -4.4688
    -4.4454  -4.4084  -4.2469  -4.1601   3.6034   6.4913   6.5969   7.3217
     8.0028   8.0284   8.8252   9.2111   9.4478   9.8809

          k = 0.1686 0.1686-0.4809 (  2522 PWs)   bands (ev):

   -45.1812 -21.9105 -21.7961 -21.7959  -6.5283  -5.9029  -5.5740  -4.4818
    -4.4243  -4.3851  -4.2526  -4.1817   3.2399   6.2752   6.3236   7.0154
     7.9208   7.9479   8.7286   9.2864   9.5063  10.2469

          k = 0.1686 0.3371 0.0000 (  2515 PWs)   bands (ev):

   -45.1811 -21.8632 -21.8382 -21.7962  -6.5814  -5.8824  -5.7305  -4.4901
    -4.4392  -4.3991  -4.2328  -4.1496   3.4935   6.4165   6.9602   7.2551
     7.6409   8.2147   8.5311   9.2051   9.3924  10.2711

          k = 0.1686 0.3371 0.2404 (  2507 PWs)   bands (ev):

   -45.1808 -21.8857 -21.8371 -21.7951  -6.4529  -5.8733  -5.6496  -4.4659
    -4.4399  -4.3756  -4.2119  -4.1078   3.3474   6.2375   6.3686   6.9256
     7.3730   8.0610   8.8825   9.1630   9.4994   9.9831

          k = 0.1686 0.3371-0.4809 (  2514 PWs)   bands (ev):

   -45.1804 -21.9081 -21.8359 -21.7941  -6.3630  -5.8497  -5.5292  -4.4635
    -4.4145  -4.3343  -4.2248  -4.0529   3.1571   5.8838   6.3024   6.6266
     6.8656   7.9227   8.9860   9.2136   9.4874   9.9339

          k = 0.1686-0.5057 0.0000 (  2520 PWs)   bands (ev):

   -45.1807 -21.8620 -21.8585 -21.7952  -6.4145  -5.8279  -5.7562  -4.4931
    -4.4313  -4.3776  -4.2143  -4.1829   3.2947   6.0524   7.0720   7.3099
     7.6012   7.9468   8.3818   9.2430   9.3866  10.6039

          k = 0.1686-0.5057 0.2404 (  2512 PWs)   bands (ev):

   -45.1804 -21.8845 -21.8572 -21.7942  -6.3443  -5.7932  -5.6724  -4.4640
    -4.4262  -4.3541  -4.1888  -4.1015   3.2301   6.0101   6.2631   6.6712
     7.3359   8.2028   8.6513   9.1713   9.5089   9.9456

          k = 0.1686-0.5057-0.4809 (  2520 PWs)   bands (ev):

   -45.1801 -21.9068 -21.8558 -21.7932  -6.3290  -5.7597  -5.5124  -4.4581
    -4.3824  -4.3316  -4.2075  -3.9918   3.1182   5.7769   6.1350   6.2822
     6.7214   8.0355   8.8550   9.1193   9.1527  10.1495

          k = 0.3371 0.3371 0.0000 (  2522 PWs)   bands (ev):

   -45.1803 -21.8614 -21.8361 -21.8360  -6.3180  -5.8151  -5.7796  -4.4698
    -4.4200  -4.3270  -4.1522  -4.1515   3.0909   6.4002   6.4982   7.3606
     7.5131   7.6524   8.3312   9.0446   9.8740  10.0020

          k = 0.3371 0.3371 0.2404 (  2512 PWs)   bands (ev):

   -45.1800 -21.8837 -21.8351 -21.8350  -6.1791  -5.8639  -5.7376  -4.4280
    -4.4129  -4.2663  -4.1037  -4.0711   3.2792   5.9453   6.0180   6.3970
     7.0353   7.5380   8.9414   9.4606   9.5019   9.8894

          k = 0.3371 0.3371-0.4809 (  2502 PWs)   bands (ev):

   -45.1797 -21.9059 -21.8340 -21.8339  -6.1081  -5.9092  -5.6154  -4.4059
    -4.3865  -4.2008  -4.0538  -3.9924   3.4429   5.5421   5.5646   6.1463
     6.7912   6.9531   8.1910   9.8356   9.8608  10.0158

          k = 0.3371-0.5057 0.0000 (  2520 PWs)   bands (ev):

   -45.1799 -21.8602 -21.8562 -21.8350  -6.2002  -5.7931  -5.7715  -4.4614
    -4.3960  -4.2621  -4.1862  -4.1165   2.9055   6.0455   6.5434   7.1704
     7.6993   7.8250   7.9458   9.0154   9.6841  10.0793

          k = 0.3371-0.5057 0.2404 (  2514 PWs)   bands (ev):

   -45.1796 -21.8825 -21.8550 -21.8340  -6.0620  -5.8185  -5.7955  -4.4188
    -4.3843  -4.1721  -4.1021  -4.0406   3.2071   5.8365   5.9895   6.0595
     6.8190   7.6083   8.4685   9.4573   9.4857  10.0494

          k = 0.3371-0.5057-0.4809 (  2496 PWs)   bands (ev):

   -45.1793 -21.9047 -21.8538 -21.8330  -6.0502  -5.8624  -5.6535  -4.3886
    -4.3618  -4.1096  -4.0169  -3.9358   3.5857   5.2751   5.4684   5.9019
     6.5536   6.9664   7.4057   9.9375  10.0221  10.1737

          k =-0.5057-0.5057 0.0000 (  2496 PWs)   bands (ev):

   -45.1795 -21.8589 -21.8550 -21.8550  -6.1468  -5.7462  -5.7462  -4.4505
    -4.3483  -4.2077  -4.2077  -4.0659   2.7141   5.8941   6.3729   7.3841
     7.3841   7.9418   7.9418   8.7823   9.2055  10.3409

          k =-0.5057-0.5057 0.2404 (  2508 PWs)   bands (ev):

   -45.1792 -21.8813 -21.8539 -21.8539  -5.9329  -5.8329  -5.8329  -4.4064
    -4.3461  -4.0606  -4.0606  -4.0318   3.1313   5.8518   5.9590   5.9590
     6.3795   7.5502   7.8128   9.4864   9.4864  10.3233

          k =-0.5057-0.5057-0.4809 (  2504 PWs)   bands (ev):

   -45.1789 -21.9036 -21.8529 -21.8529  -5.9083  -5.9083  -5.7126  -4.3623
    -4.3440  -3.9862  -3.9221  -3.9221   3.8083   5.2998   5.2998   5.7361
     6.3861   6.3947   6.6557  10.1855  10.1855  10.3059

     highest occupied level (ev):    10.9948

!    total energy              =    -380.57426305 Ry
     estimated scf accuracy    <          6.0E-11 Ry

     The total energy is the sum of the following terms:
     one-electron contribution =     -79.88393456 Ry
     hartree contribution      =      69.99225764 Ry
     xc contribution           =    -102.67509792 Ry
     ewald contribution        =    -268.00748821 Ry

     convergence has been achieved in  10 iterations

     negative rho (up, down):  1.531E-02 0.000E+00

     Forces acting on atoms (cartesian axes, Ry/au):

     atom    1 type  1   force =     0.00000000    0.00000000   -0.00036859
     atom    2 type  2   force =     0.00000000    0.00000000    0.00075486
     atom    3 type  3   force =     0.00000000    0.00000000   -0.00215512
     atom    4 type  3   force =     0.00000000    0.00000000    0.00088443
     atom    5 type  3   force =     0.00000000    0.00000000    0.00088443

     Total force =     0.002630     Total SCF correction =     0.000042


     Computing stress (Cartesian axis) and pressure


     negative rho (up, down):  1.531E-02 0.000E+00
          total   stress  (Ry/bohr**3)                   (kbar)     P=       -0.75
  -0.00000626   0.00000000   0.00000000           -0.92        0.00        0.00
   0.00000000  -0.00000626   0.00000000            0.00       -0.92        0.00
   0.00000000   0.00000000  -0.00000273            0.00        0.00       -0.40

     Energy error            =      5.8E-05 Ry
     Gradient error          =      2.2E-03 Ry/Bohr
     Cell gradient error     =      9.2E-01 kbar

     number of scf cycles    =   3
     number of bfgs steps    =   2

     enthalpy           old  =    -380.5742055382 Ry
     enthalpy           new  =    -380.5742630538 Ry

     CASE: enthalpy          _new < enthalpy          _old

     new trust radius        =       0.0029933324 bohr
     new conv_thr            =            1.0E-10 Ry

     new unit-cell volume =    406.64866 a.u.^3 (    60.25911 Ang^3 )
     density =      8.35187 g/cm^3

CELL_PARAMETERS (angstrom)
   3.855039807   0.000000000   0.000000000
   0.000000000   3.855039807   0.000000000
   0.000000000   0.000000000   4.054758621

ATOMIC_POSITIONS (crystal)
Pb            0.0000000000        0.0000000000        1.0051745397
Ti            0.5000000000        0.5000000000        0.5396401037
O             0.5000000000        0.5000000000        0.0999876135
O             0.5000000000        0.0000000000        0.6112410155
O             0.0000000000        0.5000000000        0.6112410155



     Writing config-only to output data dir ./PTO_give.save/
     NEW-OLD atomic charge density approx. for the potential

     Check: negative core charge=   -0.000004

     negative rho (up, down):  1.529E-02 0.000E+00
     extrapolated charge   43.97253, renormalised to   44.00000

     total cpu time spent up to now is      988.2 secs

     Self-consistent Calculation

     iteration #  1     ecut=    50.00 Ry     beta= 0.70
     CG style diagonalization
     ethr =  1.00E-06,  avg # of iterations =  3.0

     Threshold (ethr) on eigenvalues was too large:
     Diagonalizing with lowered threshold

     CG style diagonalization
     c_bands:  1 eigenvalues not converged
     c_bands:  1 eigenvalues not converged
     ethr =  8.84E-08,  avg # of iterations =  3.8

     negative rho (up, down):  1.531E-02 0.000E+00

     total cpu time spent up to now is     1016.4 secs

     total energy              =    -380.57420483 Ry
     estimated scf accuracy    <       0.00004095 Ry

     iteration #  2     ecut=    50.00 Ry     beta= 0.70
     CG style diagonalization
     ethr =  9.31E-08,  avg # of iterations =  5.0

     negative rho (up, down):  1.531E-02 0.000E+00

     total cpu time spent up to now is     1035.0 secs

     total energy              =    -380.57425921 Ry
     estimated scf accuracy    <       0.00016884 Ry

     iteration #  3     ecut=    50.00 Ry     beta= 0.70
     CG style diagonalization
     ethr =  9.31E-08,  avg # of iterations =  4.1

     negative rho (up, down):  1.531E-02 0.000E+00

     total cpu time spent up to now is     1050.4 secs

     total energy              =    -380.57427192 Ry
     estimated scf accuracy    <       0.00002110 Ry

     iteration #  4     ecut=    50.00 Ry     beta= 0.70
     CG style diagonalization
     ethr =  4.80E-08,  avg # of iterations =  3.2

     negative rho (up, down):  1.530E-02 0.000E+00

     total cpu time spent up to now is     1062.7 secs

     total energy              =    -380.57427042 Ry
     estimated scf accuracy    <       0.00001156 Ry

     iteration #  5     ecut=    50.00 Ry     beta= 0.70
     CG style diagonalization
     ethr =  2.63E-08,  avg # of iterations =  3.1

     negative rho (up, down):  1.530E-02 0.000E+00

     total cpu time spent up to now is     1074.7 secs

     total energy              =    -380.57426911 Ry
     estimated scf accuracy    <       0.00000526 Ry

     iteration #  6     ecut=    50.00 Ry     beta= 0.70
     CG style diagonalization
     ethr =  1.20E-08,  avg # of iterations =  3.3

     negative rho (up, down):  1.530E-02 0.000E+00

     total cpu time spent up to now is     1087.4 secs

     total energy              =    -380.57426930 Ry
     estimated scf accuracy    <       0.00000087 Ry

     iteration #  7     ecut=    50.00 Ry     beta= 0.70
     CG style diagonalization
     ethr =  1.97E-09,  avg # of iterations =  3.8

     negative rho (up, down):  1.530E-02 0.000E+00

     total cpu time spent up to now is     1101.9 secs

     total energy              =    -380.57426951 Ry
     estimated scf accuracy    <       0.00000029 Ry

     iteration #  8     ecut=    50.00 Ry     beta= 0.70
     CG style diagonalization
     ethr =  6.63E-10,  avg # of iterations =  3.5

     negative rho (up, down):  1.530E-02 0.000E+00

     total cpu time spent up to now is     1115.3 secs

     total energy              =    -380.57426954 Ry
     estimated scf accuracy    <       0.00000007 Ry

     iteration #  9     ecut=    50.00 Ry     beta= 0.70
     CG style diagonalization
     ethr =  1.50E-10,  avg # of iterations =  3.9

     negative rho (up, down):  1.530E-02 0.000E+00

     total cpu time spent up to now is     1130.1 secs

     total energy              =    -380.57426956 Ry
     estimated scf accuracy    <       0.00000001 Ry

     iteration # 10     ecut=    50.00 Ry     beta= 0.70
     CG style diagonalization
     ethr =  3.04E-11,  avg # of iterations =  4.4

     negative rho (up, down):  1.530E-02 0.000E+00

     total cpu time spent up to now is     1146.3 secs

     total energy              =    -380.57426956 Ry
     estimated scf accuracy    <          3.2E-09 Ry

     iteration # 11     ecut=    50.00 Ry     beta= 0.70
     CG style diagonalization
     ethr =  7.16E-12,  avg # of iterations =  4.3

     negative rho (up, down):  1.530E-02 0.000E+00

     total cpu time spent up to now is     1162.4 secs

     total energy              =    -380.57426957 Ry
     estimated scf accuracy    <          3.0E-09 Ry

     iteration # 12     ecut=    50.00 Ry     beta= 0.70
     CG style diagonalization
     ethr =  6.81E-12,  avg # of iterations =  3.5

     negative rho (up, down):  1.530E-02 0.000E+00

     total cpu time spent up to now is     1175.6 secs

     total energy              =    -380.57426957 Ry
     estimated scf accuracy    <          1.9E-09 Ry

     iteration # 13     ecut=    50.00 Ry     beta= 0.70
     CG style diagonalization
     ethr =  4.39E-12,  avg # of iterations =  3.9

     negative rho (up, down):  1.531E-02 0.000E+00

     total cpu time spent up to now is     1190.2 secs

     total energy              =    -380.57426957 Ry
     estimated scf accuracy    <          1.7E-09 Ry

     iteration # 14     ecut=    50.00 Ry     beta= 0.70
     CG style diagonalization
     ethr =  3.92E-12,  avg # of iterations =  3.4

     negative rho (up, down):  1.531E-02 0.000E+00

     total cpu time spent up to now is     1203.1 secs

     total energy              =    -380.57426957 Ry
     estimated scf accuracy    <          8.5E-10 Ry

     iteration # 15     ecut=    50.00 Ry     beta= 0.70
     CG style diagonalization
     ethr =  1.92E-12,  avg # of iterations =  3.5

     negative rho (up, down):  1.531E-02 0.000E+00

     total cpu time spent up to now is     1216.5 secs

     total energy              =    -380.57426957 Ry
     estimated scf accuracy    <          1.1E-10 Ry

     iteration # 16     ecut=    50.00 Ry     beta= 0.70
     CG style diagonalization
     ethr =  2.48E-13,  avg # of iterations =  4.7

     negative rho (up, down):  1.531E-02 0.000E+00

     total cpu time spent up to now is     1233.9 secs

     End of self-consistent calculation

          k = 0.0000 0.0000 0.0000 (  2525 PWs)   bands (ev):

   -45.1756 -21.8566 -21.7722 -21.7722  -7.1698  -6.0192  -5.7634  -4.4225
    -4.4225  -4.3830  -4.2647  -4.1540   4.8286   6.7346   6.7346   7.1040
     8.7039   8.7039   8.9460   9.2787   9.4395   9.4395

          k = 0.0000 0.0000 0.2405 (  2517 PWs)   bands (ev):

   -45.1753 -21.8798 -21.7713 -21.7713  -6.9630  -5.9576  -5.6943  -4.4401
    -4.4401  -4.3815  -4.2530  -4.2307   3.9690   6.7905   6.7905   7.3031
     8.4507   8.4507   8.8633   9.3664   9.5569   9.5569

          k = 0.0000 0.0000-0.4809 (  2530 PWs)   bands (ev):

   -45.1749 -21.9029 -21.7704 -21.7704  -6.7382  -5.8901  -5.6320  -4.4576
    -4.4576  -4.3800  -4.3134  -4.2430   3.4267   6.6107   6.8257   6.8257
     8.2922   8.2922   8.7844   9.6325   9.6325  10.6408

          k = 0.0000 0.1686 0.0000 (  2525 PWs)   bands (ev):

   -45.1752 -21.8558 -21.7927 -21.7714  -7.0247  -5.9849  -5.7324  -4.4470
    -4.4209  -4.3978  -4.2676  -4.1421   4.3432   6.7941   6.8446   7.1364
     8.6609   8.7256   8.9437   9.0623   9.1640   9.5531

          k = 0.0000 0.1686 0.2405 (  2521 PWs)   bands (ev):

   -45.1749 -21.8788 -21.7916 -21.7704  -6.8344  -5.9392  -5.6576  -4.4456
    -4.4391  -4.3969  -4.2623  -4.1813   3.7369   6.5798   6.9116   7.3862
     8.1201   8.4337   8.7601   9.1560   9.2266   9.9245

          k = 0.0000 0.1686-0.4809 (  2516 PWs)   bands (ev):

   -45.1746 -21.9017 -21.7906 -21.7695  -6.6375  -5.8874  -5.5801  -4.4572
    -4.4419  -4.3961  -4.2676  -4.2161   3.2834   6.2638   6.9527   7.0350
     7.9231   8.2841   8.8291   9.2150   9.3077  10.5619

          k = 0.0000 0.3372 0.0000 (  2514 PWs)   bands (ev):

   -45.1744 -21.8541 -21.8331 -21.7697  -6.7100  -5.9102  -5.6862  -4.4842
    -4.4274  -4.4176  -4.2626  -4.1469   3.7171   6.4239   7.0852   7.1256
     8.3200   8.3543   8.7984   8.8458   9.2811  10.2075

          k = 0.0000 0.3372 0.2405 (  2507 PWs)   bands (ev):

   -45.1741 -21.8767 -21.8320 -21.7687  -6.5860  -5.8679  -5.5900  -4.4512
    -4.4372  -4.4275  -4.2558  -4.1204   3.3520   6.2951   6.9943   7.2256
     7.7546   8.1810   8.3350   8.8986   9.4165  10.2858

          k = 0.0000 0.3372-0.4809 (  2518 PWs)   bands (ev):

   -45.1738 -21.8992 -21.8307 -21.7677  -6.4942  -5.8004  -5.4635  -4.4564
    -4.4280  -4.4104  -4.2921  -4.0670   3.0322   5.9745   6.7550   7.2709
     7.6423   7.8102   8.1207   8.9295   9.8553  10.1116

          k = 0.0000-0.5058 0.0000 (  2488 PWs)   bands (ev):

   -45.1740 -21.8536 -21.8528 -21.7688  -6.5366  -5.8529  -5.6912  -4.5002
    -4.4419  -4.4160  -4.2365  -4.1790   3.4981   6.0388   7.3489   7.3672
     7.8259   7.9739   8.7198   8.8834   9.3120  11.0105

          k = 0.0000-0.5058 0.2405 (  2506 PWs)   bands (ev):

   -45.1737 -21.8754 -21.8522 -21.7678  -6.4786  -5.7770  -5.5837  -4.4636
    -4.4428  -4.4361  -4.2220  -4.1159   3.2008   6.0112   7.0248   7.2658
     7.5740   7.7760   8.4448   8.8757   9.4165  10.4894

          k = 0.0000-0.5058-0.4809 (  2516 PWs)   bands (ev):

   -45.1734 -21.8978 -21.8507 -21.7668  -6.4609  -5.6957  -5.4093  -4.4559
    -4.4437  -4.4191  -4.2775  -4.0050   2.9317   5.8330   6.4437   7.3284
     7.5972   7.7981   7.8231   8.8705   9.7844  10.1524

          k = 0.1686 0.1686 0.0000 (  2498 PWs)   bands (ev):

   -45.1748 -21.8550 -21.7919 -21.7915  -6.8820  -5.9496  -5.7235  -4.4528
    -4.4372  -4.4014  -4.2437  -4.1311   4.0136   6.7196   6.9663   7.1923
     8.1843   8.3015   9.0369   9.0688   9.3773   9.7875

          k = 0.1686 0.1686 0.2405 (  2513 PWs)   bands (ev):

   -45.1745 -21.8778 -21.7909 -21.7905  -6.7028  -5.9237  -5.6491  -4.4558
    -4.4323  -4.3952  -4.2333  -4.1467   3.6139   6.4978   6.6044   7.3299
     8.0144   8.0365   8.8399   9.2189   9.4561   9.8932

          k = 0.1686 0.1686-0.4809 (  2522 PWs)   bands (ev):

   -45.1742 -21.9005 -21.7898 -21.7896  -6.5244  -5.8976  -5.5622  -4.4687
    -4.4109  -4.3721  -4.2389  -4.1684   3.2509   6.2826   6.3327   7.0212
     7.9287   7.9579   8.7427   9.2942   9.5149  10.2589

          k = 0.1686 0.3372 0.0000 (  2515 PWs)   bands (ev):

   -45.1741 -21.8533 -21.8320 -21.7898  -6.5756  -5.8768  -5.7206  -4.4772
    -4.4262  -4.3857  -4.2192  -4.1361   3.5025   6.4221   6.9679   7.2621
     7.6481   8.2305   8.5391   9.2151   9.4023  10.2866

          k = 0.1686 0.3372 0.2405 (  2507 PWs)   bands (ev):

   -45.1737 -21.8757 -21.8309 -21.7888  -6.4478  -5.8676  -5.6388  -4.4528
    -4.4269  -4.3622  -4.1984  -4.0944   3.3567   6.2444   6.3753   6.9326
     7.3823   8.0713   8.8928   9.1737   9.5091   9.9966

          k = 0.1686 0.3372-0.4809 (  2514 PWs)   bands (ev):

   -45.1734 -21.8981 -21.8297 -21.7878  -6.3584  -5.8440  -5.5175  -4.4504
    -4.4013  -4.3210  -4.2112  -4.0397   3.1666   5.8925   6.3085   6.6341
     6.8721   7.9311   9.0006   9.2205   9.5005   9.9448

          k = 0.1686-0.5058 0.0000 (  2520 PWs)   bands (ev):

   -45.1737 -21.8524 -21.8520 -21.7889  -6.4083  -5.8222  -5.7464  -4.4802
    -4.4182  -4.3640  -4.2007  -4.1695   3.3034   6.0576   7.0816   7.3147
     7.6074   7.9547   8.3996   9.2505   9.3983  10.6183

          k = 0.1686-0.5058 0.2405 (  2512 PWs)   bands (ev):

   -45.1733 -21.8745 -21.8511 -21.7879  -6.3390  -5.7874  -5.6613  -4.4510
    -4.4132  -4.3404  -4.1755  -4.0881   3.2389   6.0158   6.2694   6.6789
     7.3449   8.2138   8.6596   9.1837   9.5171   9.9606

          k = 0.1686-0.5058-0.4809 (  2520 PWs)   bands (ev):

   -45.1730 -21.8968 -21.8497 -21.7869  -6.3240  -5.7539  -5.5006  -4.4450
    -4.3693  -4.3178  -4.1942  -3.9786   3.1271   5.7853   6.1397   6.2889
     6.7295   8.0437   8.8675   9.1323   9.1614  10.1616

          k = 0.3372 0.3372 0.0000 (  2522 PWs)   bands (ev):

   -45.1733 -21.8515 -21.8299 -21.8298  -6.3104  -5.8095  -5.7710  -4.4569
    -4.4067  -4.3135  -4.1386  -4.1373   3.0984   6.4069   6.5021   7.3705
     7.5211   7.6679   8.3361   9.0570   9.8814  10.0161

          k = 0.3372 0.3372 0.2405 (  2512 PWs)   bands (ev):

   -45.1730 -21.8737 -21.8289 -21.8288  -6.1728  -5.8581  -5.7274  -4.4150
    -4.3996  -4.2528  -4.0898  -4.0577   3.2869   5.9524   6.0249   6.4038
     7.0428   7.5481   8.9542   9.4705   9.5147   9.8971

          k = 0.3372 0.3372-0.4809 (  2502 PWs)   bands (ev):

   -45.1726 -21.8960 -21.8278 -21.8278  -6.1027  -5.9032  -5.6039  -4.3926
    -4.3733  -4.1870  -4.0401  -3.9793   3.4512   5.5498   5.5699   6.1536
     6.8002   6.9592   8.2051   9.8483   9.8676  10.0275

          k = 0.3372-0.5058 0.0000 (  2520 PWs)   bands (ev):

   -45.1729 -21.8502 -21.8501 -21.8287  -6.1911  -5.7860  -5.7657  -4.4485
    -4.3827  -4.2485  -4.1727  -4.1022   2.9124   6.0513   6.5476   7.1818
     7.7132   7.8313   7.9537   9.0263   9.6967  10.0866

          k = 0.3372-0.5058 0.2405 (  2514 PWs)   bands (ev):

   -45.1726 -21.8725 -21.8489 -21.8278  -6.0550  -5.8125  -5.7858  -4.4057
    -4.3709  -4.1581  -4.0888  -4.0267   3.2139   5.8442   5.9962   6.0658
     6.8260   7.6190   8.4803   9.4685   9.4972  10.0567

          k = 0.3372-0.5058-0.4809 (  2496 PWs)   bands (ev):

   -45.1723 -21.8947 -21.8477 -21.8268  -6.0443  -5.8561  -5.6422  -4.3753
    -4.3485  -4.0951  -4.0039  -3.9223   3.5927   5.2807   5.4768   5.9076
     6.5609   6.9742   7.4192   9.9499  10.0291  10.1858

          k =-0.5058-0.5058 0.0000 (  2496 PWs)   bands (ev):

   -45.1725 -21.8489 -21.8489 -21.8488  -6.1360  -5.7404  -5.7404  -4.4375
    -4.3347  -4.1942  -4.1942  -4.0511   2.7202   5.9002   6.3767   7.3965
     7.3965   7.9489   7.9489   8.7937   9.2164  10.3481

          k =-0.5058-0.5058 0.2405 (  2508 PWs)   bands (ev):

   -45.1722 -21.8713 -21.8478 -21.8478  -5.9220  -5.8267  -5.8267  -4.3933
    -4.3325  -4.0475  -4.0475  -4.0168   3.1368   5.8577   5.9680   5.9680
     6.3832   7.5609   7.8240   9.4974   9.4974  10.3305

          k =-0.5058-0.5058-0.4809 (  2504 PWs)   bands (ev):

   -45.1719 -21.8936 -21.8468 -21.8468  -5.9019  -5.9019  -5.7015  -4.3491
    -4.3304  -3.9709  -3.9092  -3.9092   3.8121   5.3083   5.3083   5.7417
     6.3898   6.4074   6.6659  10.1976  10.1976  10.3131

     highest occupied level (ev):    11.0105

!    total energy              =    -380.57426957 Ry
     estimated scf accuracy    <          2.7E-11 Ry

     The total energy is the sum of the following terms:
     one-electron contribution =     -79.79049136 Ry
     hartree contribution      =      69.96189203 Ry
     xc contribution           =    -102.67648575 Ry
     ewald contribution        =    -268.06918449 Ry

     convergence has been achieved in  16 iterations

     negative rho (up, down):  1.531E-02 0.000E+00

     Forces acting on atoms (cartesian axes, Ry/au):

     atom    1 type  1   force =     0.00000000    0.00000000    0.00003683
     atom    2 type  2   force =     0.00000000    0.00000000   -0.00041049
     atom    3 type  3   force =     0.00000000    0.00000000   -0.00070738
     atom    4 type  3   force =     0.00000000    0.00000000    0.00054052
     atom    5 type  3   force =     0.00000000    0.00000000    0.00054052

     Total force =     0.001120     Total SCF correction =     0.000009


     Computing stress (Cartesian axis) and pressure


     negative rho (up, down):  1.531E-02 0.000E+00
          total   stress  (Ry/bohr**3)                   (kbar)     P=       -0.16
   0.00000211   0.00000000   0.00000000            0.31        0.00        0.00
   0.00000000   0.00000211   0.00000000            0.00        0.31        0.00
   0.00000000   0.00000000  -0.00000752            0.00        0.00       -1.11

     Energy error            =      6.5E-06 Ry
     Gradient error          =      7.1E-04 Ry/Bohr
     Cell gradient error     =      1.1E+00 kbar

     number of scf cycles    =   4
     number of bfgs steps    =   3

     enthalpy           old  =    -380.5742630538 Ry
     enthalpy           new  =    -380.5742695654 Ry

     CASE: enthalpy          _new < enthalpy          _old

     new trust radius        =       0.0017680795 bohr
     new conv_thr            =            1.0E-10 Ry

     new unit-cell volume =    406.54658 a.u.^3 (    60.24399 Ang^3 )
     density =      8.35397 g/cm^3

CELL_PARAMETERS (angstrom)
   3.855019762   0.000000000   0.000000000
   0.000000000   3.855019762   0.000000000
   0.000000000   0.000000000   4.053782934

ATOMIC_POSITIONS (crystal)
Pb            0.0000000000        0.0000000000        1.0051589057
Ti            0.5000000000        0.5000000000        0.5396261758
O             0.5000000000        0.5000000000        0.0997568655
O             0.5000000000        0.0000000000        0.6113711705
O             0.0000000000        0.5000000000        0.6113711705



     Writing config-only to output data dir ./PTO_give.save/
     NEW-OLD atomic charge density approx. for the potential

     Check: negative core charge=   -0.000004

     negative rho (up, down):  1.530E-02 0.000E+00
     extrapolated charge   43.98920, renormalised to   44.00000

     total cpu time spent up to now is     1276.0 secs

     Self-consistent Calculation

     iteration #  1     ecut=    50.00 Ry     beta= 0.70
     CG style diagonalization
     ethr =  1.00E-06,  avg # of iterations =  2.5

     Threshold (ethr) on eigenvalues was too large:
     Diagonalizing with lowered threshold

     CG style diagonalization
     ethr =  1.32E-08,  avg # of iterations =  3.9

     negative rho (up, down):  1.531E-02 0.000E+00

     total cpu time spent up to now is     1302.9 secs

     total energy              =    -380.57426210 Ry
     estimated scf accuracy    <       0.00000627 Ry

     iteration #  2     ecut=    50.00 Ry     beta= 0.70
     CG style diagonalization
     ethr =  1.42E-08,  avg # of iterations =  5.0

     negative rho (up, down):  1.531E-02 0.000E+00

     total cpu time spent up to now is     1321.3 secs

     total energy              =    -380.57427058 Ry
     estimated scf accuracy    <       0.00002184 Ry

     iteration #  3     ecut=    50.00 Ry     beta= 0.70
     CG style diagonalization
     ethr =  1.42E-08,  avg # of iterations =  4.1

     negative rho (up, down):  1.531E-02 0.000E+00

     total cpu time spent up to now is     1336.6 secs

     total energy              =    -380.57427206 Ry
     estimated scf accuracy    <       0.00000277 Ry

     iteration #  4     ecut=    50.00 Ry     beta= 0.70
     CG style diagonalization
     ethr =  6.28E-09,  avg # of iterations =  3.2

     negative rho (up, down):  1.530E-02 0.000E+00

     total cpu time spent up to now is     1348.7 secs

     total energy              =    -380.57427167 Ry
     estimated scf accuracy    <       0.00000144 Ry

     iteration #  5     ecut=    50.00 Ry     beta= 0.70
     CG style diagonalization
     ethr =  3.28E-09,  avg # of iterations =  3.2

     negative rho (up, down):  1.530E-02 0.000E+00

     total cpu time spent up to now is     1361.2 secs

     total energy              =    -380.57427170 Ry
     estimated scf accuracy    <       0.00000034 Ry

     iteration #  6     ecut=    50.00 Ry     beta= 0.70
     CG style diagonalization
     ethr =  7.70E-10,  avg # of iterations =  3.5

     negative rho (up, down):  1.530E-02 0.000E+00

     total cpu time spent up to now is     1374.5 secs

     total energy              =    -380.57427172 Ry
     estimated scf accuracy    <       0.00000006 Ry

     iteration #  7     ecut=    50.00 Ry     beta= 0.70
     CG style diagonalization
     ethr =  1.30E-10,  avg # of iterations =  3.8

     negative rho (up, down):  1.530E-02 0.000E+00

     total cpu time spent up to now is     1389.0 secs

     total energy              =    -380.57427173 Ry
[...]
        k(   17) = (   0.1685766   0.3371533   0.2406562), wk =   0.2222222
        k(   18) = (   0.1685766   0.3371533  -0.4813123), wk =   0.1111111
        k(   19) = (   0.1685766  -0.5057299   0.0000000), wk =   0.0555556
        k(   20) = (   0.1685766  -0.5057299   0.2406562), wk =   0.1111111
        k(   21) = (   0.1685766  -0.5057299  -0.4813123), wk =   0.0555556
        k(   22) = (   0.3371533   0.3371533   0.0000000), wk =   0.0555556
        k(   23) = (   0.3371533   0.3371533   0.2406562), wk =   0.1111111
        k(   24) = (   0.3371533   0.3371533  -0.4813123), wk =   0.0555556
        k(   25) = (   0.3371533  -0.5057299   0.0000000), wk =   0.0555556
        k(   26) = (   0.3371533  -0.5057299   0.2406562), wk =   0.1111111
        k(   27) = (   0.3371533  -0.5057299  -0.4813123), wk =   0.0555556
        k(   28) = (  -0.5057299  -0.5057299   0.0000000), wk =   0.0138889
        k(   29) = (  -0.5057299  -0.5057299   0.2406562), wk =   0.0277778
        k(   30) = (  -0.5057299  -0.5057299  -0.4813123), wk =   0.0138889

     Dense  grid:    76747 G-vectors     FFT dimensions: (  54,  54,  60)

     Smooth grid:    19447 G-vectors     FFT dimensions: (  36,  36,  36)

     Estimated max dynamical RAM per process >     324.18 MB

     Check: negative core charge=   -0.000004

     Initial potential from superposition of free atoms

     starting charge      42.9982, renormalised to      44.0000

     negative rho (up, down):  1.669E-02 0.000E+00
     Starting wfcs are   31 randomized atomic wfcs

     total cpu time spent up to now is     1863.2 secs

     Self-consistent Calculation

     iteration #  1     ecut=    50.00 Ry     beta= 0.70
     CG style diagonalization
     c_bands:  1 eigenvalues not converged
     c_bands:  1 eigenvalues not converged
     c_bands:  1 eigenvalues not converged
     c_bands:  2 eigenvalues not converged
     c_bands:  1 eigenvalues not converged
     c_bands:  1 eigenvalues not converged
     c_bands:  1 eigenvalues not converged
     c_bands:  1 eigenvalues not converged
     c_bands:  1 eigenvalues not converged
     c_bands:  1 eigenvalues not converged
     c_bands:  1 eigenvalues not converged
     c_bands:  1 eigenvalues not converged
     c_bands:  2 eigenvalues not converged
     c_bands:  1 eigenvalues not converged
     c_bands:  3 eigenvalues not converged
     ethr =  1.00E-06,  avg # of iterations =  9.2

     negative rho (up, down):  1.438E-02 0.000E+00

     total cpu time spent up to now is     1896.6 secs

     total energy              =    -380.14306815 Ry
     estimated scf accuracy    <       0.93734538 Ry

     iteration #  2     ecut=    50.00 Ry     beta= 0.70
     CG style diagonalization
     ethr =  2.13E-03,  avg # of iterations =  4.6

     negative rho (up, down):  1.512E-02 0.000E+00

     total cpu time spent up to now is     1913.5 secs

     total energy              =    -379.98742459 Ry
     estimated scf accuracy    <       2.60086948 Ry

     iteration #  3     ecut=    50.00 Ry     beta= 0.70
     CG style diagonalization
     ethr =  2.13E-03,  avg # of iterations =  4.2

     negative rho (up, down):  1.564E-02 0.000E+00

     total cpu time spent up to now is     1928.8 secs

     total energy              =    -380.53548772 Ry
     estimated scf accuracy    <       0.28664074 Ry

     iteration #  4     ecut=    50.00 Ry     beta= 0.70
     CG style diagonalization
     ethr =  6.51E-04,  avg # of iterations =  3.4

     negative rho (up, down):  1.565E-02 0.000E+00

     total cpu time spent up to now is     1941.8 secs

     total energy              =    -380.56282834 Ry
     estimated scf accuracy    <       0.02392946 Ry

     iteration #  5     ecut=    50.00 Ry     beta= 0.70
     CG style diagonalization
     ethr =  5.44E-05,  avg # of iterations =  4.1

     negative rho (up, down):  1.562E-02 0.000E+00

     total cpu time spent up to now is     1956.9 secs

     total energy              =    -380.57271401 Ry
     estimated scf accuracy    <       0.00743789 Ry

     iteration #  6     ecut=    50.00 Ry     beta= 0.70
     CG style diagonalization
     ethr =  1.69E-05,  avg # of iterations =  3.7

     negative rho (up, down):  1.559E-02 0.000E+00

     total cpu time spent up to now is     1970.6 secs

     total energy              =    -380.57385123 Ry
     estimated scf accuracy    <       0.00538198 Ry

     iteration #  7     ecut=    50.00 Ry     beta= 0.70
     CG style diagonalization
     ethr =  1.22E-05,  avg # of iterations =  3.2

     negative rho (up, down):  1.555E-02 0.000E+00

     total cpu time spent up to now is     1982.7 secs

     total energy              =    -380.57349891 Ry
     estimated scf accuracy    <       0.00212557 Ry

     iteration #  8     ecut=    50.00 Ry     beta= 0.70
     CG style diagonalization
     ethr =  4.83E-06,  avg # of iterations =  3.6

     negative rho (up, down):  1.553E-02 0.000E+00

     total cpu time spent up to now is     1996.3 secs

     total energy              =    -380.57399972 Ry
     estimated scf accuracy    <       0.00005933 Ry

     iteration #  9     ecut=    50.00 Ry     beta= 0.70
     CG style diagonalization
     ethr =  1.35E-07,  avg # of iterations =  4.5

     negative rho (up, down):  1.545E-02 0.000E+00

     total cpu time spent up to now is     2012.7 secs

     total energy              =    -380.57404225 Ry
     estimated scf accuracy    <       0.00003167 Ry

     iteration # 10     ecut=    50.00 Ry     beta= 0.70
     CG style diagonalization
     ethr =  7.20E-08,  avg # of iterations =  3.4

     negative rho (up, down):  1.532E-02 0.000E+00

     total cpu time spent up to now is     2025.4 secs

     total energy              =    -380.57404043 Ry
     estimated scf accuracy    <       0.00001490 Ry

     iteration # 11     ecut=    50.00 Ry     beta= 0.70
     CG style diagonalization
     ethr =  3.39E-08,  avg # of iterations =  3.8

     negative rho (up, down):  1.532E-02 0.000E+00

     total cpu time spent up to now is     2039.5 secs

     total energy              =    -380.57404451 Ry
     estimated scf accuracy    <       0.00000035 Ry

     iteration # 12     ecut=    50.00 Ry     beta= 0.70
     CG style diagonalization
     ethr =  7.94E-10,  avg # of iterations =  8.9

     negative rho (up, down):  1.532E-02 0.000E+00

     total cpu time spent up to now is     2070.2 secs

     total energy              =    -380.57404657 Ry
     estimated scf accuracy    <       0.00000024 Ry

     iteration # 13     ecut=    50.00 Ry     beta= 0.70
     CG style diagonalization
     ethr =  5.53E-10,  avg # of iterations =  4.0

     negative rho (up, down):  1.531E-02 0.000E+00

     total cpu time spent up to now is     2085.0 secs

     total energy              =    -380.57404663 Ry
     estimated scf accuracy    <       0.00000004 Ry

     iteration # 14     ecut=    50.00 Ry     beta= 0.70
     CG style diagonalization
     ethr =  9.66E-11,  avg # of iterations =  5.7

     negative rho (up, down):  1.531E-02 0.000E+00

     total cpu time spent up to now is     2105.2 secs

     total energy              =    -380.57404667 Ry
     estimated scf accuracy    <          1.8E-09 Ry

     iteration # 15     ecut=    50.00 Ry     beta= 0.70
     CG style diagonalization
     ethr =  4.05E-12,  avg # of iterations = 10.4

     negative rho (up, down):  1.531E-02 0.000E+00

     total cpu time spent up to now is     2140.9 secs

     total energy              =    -380.57404670 Ry
     estimated scf accuracy    <          4.5E-10 Ry

     iteration # 16     ecut=    50.00 Ry     beta= 0.70
     CG style diagonalization
     ethr =  1.01E-12,  avg # of iterations =  5.8

     negative rho (up, down):  1.531E-02 0.000E+00

     total cpu time spent up to now is     2161.5 secs

     End of self-consistent calculation

          k = 0.0000 0.0000 0.0000 (  2421 PWs)   bands (ev):

   -45.1710 -21.8512 -21.7674 -21.7674  -7.1663  -6.0140  -5.7571  -4.4132
    -4.4132  -4.3734  -4.2562  -4.1423   4.8414   6.7355   6.7355   7.1100
     8.7127   8.7127   8.9516   9.2899   9.4418   9.4418

          k = 0.0000 0.0000 0.2407 (  2429 PWs)   bands (ev):

   -45.1706 -21.8747 -21.7665 -21.7665  -6.9586  -5.9522  -5.6872  -4.4310
    -4.4310  -4.3719  -4.2440  -4.2193   3.9795   6.7902   6.7902   7.3056
     8.4591   8.4591   8.8682   9.3776   9.5609   9.5609

          k = 0.0000 0.0000-0.4813 (  2410 PWs)   bands (ev):

   -45.1703 -21.8979 -21.7655 -21.7655  -6.7329  -5.8845  -5.6238  -4.4486
    -4.4486  -4.3704  -4.3023  -4.2334   3.4363   6.6087   6.8240   6.8240
     8.3019   8.3019   8.7889   9.6371   9.6371  10.6543

          k = 0.0000 0.1686 0.0000 (  2423 PWs)   bands (ev):

   -45.1706 -21.8504 -21.7878 -21.7665  -7.0214  -5.9799  -5.7264  -4.4377
    -4.4116  -4.3883  -4.2591  -4.1307   4.3524   6.8015   6.8458   7.1423
     8.6688   8.7341   8.9480   9.0653   9.1708   9.5631

          k = 0.0000 0.1686 0.2407 (  2428 PWs)   bands (ev):

   -45.1703 -21.8737 -21.7867 -21.7656  -6.8301  -5.9341  -5.6508  -4.4361
    -4.4300  -4.3874  -4.2532  -4.1703   3.7460   6.5827   6.9117   7.3908
     8.1261   8.4411   8.7661   9.1617   9.2319   9.9347

          k = 0.0000 0.1686-0.4813 (  2426 PWs)   bands (ev):

   -45.1699 -21.8967 -21.7857 -21.7646  -6.6324  -5.8822  -5.5722  -4.4482
    -4.4324  -4.3865  -4.2578  -4.2056   3.2923   6.2634   6.9513   7.0359
     7.9310   8.2930   8.8333   9.2194   9.3134  10.5754

          k = 0.0000 0.3372 0.0000 (  2422 PWs)   bands (ev):

   -45.1698 -21.8488 -21.8281 -21.7648  -6.7067  -5.9060  -5.6808  -4.4749
    -4.4178  -4.4083  -4.2535  -4.1362   3.7242   6.4319   7.0970   7.1278
     8.3301   8.3569   8.8028   8.8540   9.2901  10.2145

          k = 0.0000 0.3372 0.2407 (  2423 PWs)   bands (ev):

   -45.1695 -21.8715 -21.8269 -21.7638  -6.5816  -5.8637  -5.5840  -4.4416
    -4.4281  -4.4180  -4.2465  -4.1098   3.3598   6.3017   7.0015   7.2269
     7.7610   8.1844   8.3395   8.9072   9.4259  10.2933

          k = 0.0000 0.3372-0.4813 (  2430 PWs)   bands (ev):

   -45.1692 -21.8943 -21.8256 -21.7628  -6.4890  -5.7963  -5.4562  -4.4474
    -4.4184  -4.4004  -4.2825  -4.0564   3.0403   5.9767   6.7632   7.2702
     7.6459   7.8130   8.1264   8.9382   9.8598  10.1250

          k = 0.0000-0.5057 0.0000 (  2436 PWs)   bands (ev):

   -45.1694 -21.8485 -21.8475 -21.7640  -6.5330  -5.8497  -5.6859  -4.4910
    -4.4323  -4.4067  -4.2267  -4.1692   3.5047   6.0481   7.3634   7.3711
     7.8345   7.9745   8.7241   8.8918   9.3210  11.0174

          k = 0.0000-0.5057 0.2407 (  2430 PWs)   bands (ev):

   -45.1691 -21.8703 -21.8471 -21.7630  -6.4738  -5.7737  -5.5780  -4.4540
    -4.4332  -4.4270  -4.2122  -4.1056   3.2083   6.0197   7.0315   7.2728
     7.5790   7.7751   8.4496   8.8849   9.4277  10.4949

          k = 0.0000-0.5057-0.4813 (  2432 PWs)   bands (ev):

   -45.1688 -21.8929 -21.8456 -21.7619  -6.4555  -5.6923  -5.4024  -4.4470
    -4.4342  -4.4091  -4.2677  -3.9943   2.9397   5.8372   6.4517   7.3320
     7.5951   7.8042   7.8256   8.8803   9.7939  10.1607

          k = 0.1686 0.1686 0.0000 (  2425 PWs)   bands (ev):

   -45.1702 -21.8496 -21.7870 -21.7866  -6.8789  -5.9448  -5.7177  -4.4436
    -4.4278  -4.3918  -4.2351  -4.1199   4.0211   6.7217   6.9759   7.1982
     8.1943   8.3064   9.0424   9.0769   9.3822   9.7969

          k = 0.1686 0.1686 0.2407 (  2423 PWs)   bands (ev):

   -45.1699 -21.8727 -21.7859 -21.7856  -6.6987  -5.9188  -5.6425  -4.4464
    -4.4229  -4.3857  -4.2243  -4.1357   3.6222   6.4994   6.6087   7.3344
     8.0241   8.0405   8.8472   9.2239   9.4610   9.9042

          k = 0.1686 0.1686-0.4813 (  2444 PWs)   bands (ev):

   -45.1695 -21.8956 -21.7848 -21.7847  -6.5196  -5.8926  -5.5545  -4.4594
    -4.4013  -4.3626  -4.2295  -4.1577   3.2593   6.2835   6.3317   7.0263
     7.9305   7.9678   8.7495   9.2989   9.5191  10.2715

          k = 0.1686 0.3372 0.0000 (  2426 PWs)   bands (ev):

   -45.1694 -21.8479 -21.8270 -21.7850  -6.5727  -5.8726  -5.7152  -4.4680
    -4.4168  -4.3761  -4.2103  -4.1255   3.5080   6.4294   6.9735   7.2724
     7.6541   8.2411   8.5480   9.2205   9.4095  10.2944

          k = 0.1686 0.3372 0.2407 (  2428 PWs)   bands (ev):

   -45.1691 -21.8706 -21.8259 -21.7839  -6.4438  -5.8634  -5.6326  -4.4434
    -4.4176  -4.3526  -4.1891  -4.0839   3.3636   6.2503   6.3807   6.9365
     7.3885   8.0796   8.9014   9.1793   9.5163  10.0040

          k = 0.1686 0.3372-0.4813 (  2422 PWs)   bands (ev):

   -45.1688 -21.8932 -21.8247 -21.7829  -6.3536  -5.8399  -5.5100  -4.4411
    -4.3917  -4.3113  -4.2017  -4.0291   3.1744   5.8953   6.3121   6.6356
     6.8796   7.9384   9.0061   9.2248   9.5088   9.9530

          k = 0.1686-0.5057 0.0000 (  2428 PWs)   bands (ev):

   -45.1690 -21.8473 -21.8466 -21.7840  -6.4051  -5.8189  -5.7410  -4.4711
    -4.4089  -4.3544  -4.1911  -4.1596   3.3084   6.0668   7.0905   7.3178
     7.6188   7.9638   8.4093   9.2539   9.4072  10.6269

          k = 0.1686-0.5057 0.2407 (  2426 PWs)   bands (ev):

   -45.1687 -21.8693 -21.8460 -21.7830  -6.3346  -5.7840  -5.6554  -4.4416
    -4.4039  -4.3310  -4.1656  -4.0780   3.2454   6.0242   6.2755   6.6836
     7.3487   8.2225   8.6687   9.1897   9.5257   9.9664

          k = 0.1686-0.5057-0.4813 (  2416 PWs)   bands (ev):

   -45.1684 -21.8919 -21.8446 -21.7820  -6.3190  -5.7504  -5.4934  -4.4357
    -4.3597  -4.3084  -4.1843  -3.9680   3.1346   5.7896   6.1444   6.2959
     6.7307   8.0515   8.8753   9.1369   9.1665  10.1705

          k = 0.3372 0.3372 0.0000 (  2438 PWs)   bands (ev):

   -45.1687 -21.8462 -21.8248 -21.8248  -6.3078  -5.8056  -5.7659  -4.4479
    -4.3973  -4.3038  -4.1286  -4.1282   3.1018   6.4135   6.5093   7.3794
     7.5328   7.6776   8.3457   9.0679   9.8848  10.0263

          k = 0.3372 0.3372 0.2407 (  2424 PWs)   bands (ev):

   -45.1683 -21.8686 -21.8239 -21.8238  -6.1693  -5.8540  -5.7214  -4.4056
    -4.3902  -4.2432  -4.0806  -4.0473   3.2916   5.9589   6.0299   6.4095
     7.0534   7.5544   8.9671   9.4792   9.5217   9.9008

          k = 0.3372 0.3372-0.4813 (  2428 PWs)   bands (ev):

   -45.1680 -21.8910 -21.8228 -21.8227  -6.0987  -5.8991  -5.5965  -4.3832
    -4.3637  -4.1776  -4.0304  -3.9688   3.4578   5.5539   5.5750   6.1539
     6.8069   6.9698   8.2138   9.8553   9.8710  10.0346

          k = 0.3372-0.5057 0.0000 (  2454 PWs)   bands (ev):

   -45.1683 -21.8450 -21.8448 -21.8237  -6.1881  -5.7812  -5.7623  -4.4395
    -4.3732  -4.2386  -4.1627  -4.0935   2.9149   6.0598   6.5552   7.1906
     7.7211   7.8430   7.9651   9.0362   9.7089  10.0907

          k = 0.3372-0.5057 0.2407 (  2430 PWs)   bands (ev):

   -45.1680 -21.8674 -21.8438 -21.8228  -6.0511  -5.8090  -5.7801  -4.3964
    -4.3615  -4.1487  -4.0789  -4.0172   3.2175   5.8511   6.0033   6.0717
     6.8354   7.6251   8.4928   9.4780   9.5062  10.0601

          k = 0.3372-0.5057-0.4813 (  2420 PWs)   bands (ev):

   -45.1676 -21.8898 -21.8426 -21.8218  -6.0403  -5.8525  -5.6348  -4.3658
    -4.3389  -4.0859  -3.9939  -3.9121   3.5983   5.2859   5.4815   5.9112
     6.5674   6.9828   7.4279   9.9567  10.0323  10.1946

          k =-0.5057-0.5057 0.0000 (  2480 PWs)   bands (ev):

   -45.1679 -21.8439 -21.8439 -21.8435  -6.1322  -5.7370  -5.7370  -4.4285
    -4.3253  -4.1843  -4.1843  -4.0427   2.7217   5.9082   6.3874   7.4031
     7.4031   7.9609   7.9609   8.8033   9.2332  10.3511

          k =-0.5057-0.5057 0.2407 (  2432 PWs)   bands (ev):

   -45.1676 -21.8662 -21.8427 -21.8427  -5.9165  -5.8231  -5.8231  -4.3840
    -4.3231  -4.0374  -4.0374  -4.0082   3.1391   5.8649   5.9745   5.9745
     6.3941   7.5661   7.8374   9.5079   9.5079  10.3335

          k =-0.5057-0.5057-0.4813 (  2400 PWs)   bands (ev):

   -45.1672 -21.8886 -21.8416 -21.8416  -5.8983  -5.8983  -5.6942  -4.3395
    -4.3209  -3.9620  -3.8990  -3.8990   3.8156   5.3137   5.3137   5.7458
     6.4009   6.4178   6.6700  10.2063  10.2063  10.3160

     highest occupied level (ev):    11.0174

!    total energy              =    -380.57404670 Ry
     estimated scf accuracy    <          3.4E-11 Ry

     The total energy is the sum of the following terms:
     one-electron contribution =     -79.70673843 Ry
     hartree contribution      =      69.93120339 Ry
     xc contribution           =    -102.67701356 Ry
     ewald contribution        =    -268.12149809 Ry

     convergence has been achieved in  16 iterations

     negative rho (up, down):  1.531E-02 0.000E+00

     Forces acting on atoms (cartesian axes, Ry/au):

     atom    1 type  1   force =     0.00000000    0.00000000    0.00011166
     atom    2 type  2   force =     0.00000000    0.00000000    0.00009092
     atom    3 type  3   force =     0.00000000    0.00000000    0.00002654
     atom    4 type  3   force =     0.00000000    0.00000000   -0.00011456
     atom    5 type  3   force =     0.00000000    0.00000000   -0.00011456

     Total force =     0.000218     Total SCF correction =     0.000005


     Computing stress (Cartesian axis) and pressure


     negative rho (up, down):  1.531E-02 0.000E+00
          total   stress  (Ry/bohr**3)                   (kbar)     P=       -0.09
   0.00000021   0.00000000   0.00000000            0.03        0.00        0.00
   0.00000000   0.00000021   0.00000000            0.00        0.03        0.00
   0.00000000   0.00000000  -0.00000232            0.00        0.00       -0.34


     Writing all to output data dir ./PTO_give.save/
 
     init_run     :     35.46s CPU     36.39s WALL (       2 calls)
     electrons    :   1728.81s CPU   1836.96s WALL (       8 calls)
     update_pot   :     59.23s CPU     59.34s WALL (       6 calls)
     forces       :     68.70s CPU     69.77s WALL (       8 calls)
     stress       :    177.90s CPU    180.49s WALL (       8 calls)

     Called by init_run:
     wfcinit      :      5.95s CPU      6.25s WALL (       2 calls)
     potinit      :      3.15s CPU      3.24s WALL (       2 calls)
     hinit0       :     24.55s CPU     24.75s WALL (       2 calls)

     Called by electrons:
     c_bands      :   1413.88s CPU   1497.34s WALL (     112 calls)
     sum_band     :    220.30s CPU    234.12s WALL (     112 calls)
     v_of_rho     :      4.86s CPU      4.97s WALL (     115 calls)
     newd         :     93.91s CPU    104.98s WALL (     115 calls)
     mix_rho      :      1.67s CPU      1.71s WALL (     112 calls)

     Called by c_bands:
     init_us_2    :     32.90s CPU     33.61s WALL (    7260 calls)
     init_us_2:cp :     32.66s CPU     33.47s WALL (    7260 calls)
     ccgdiagg     :   1223.75s CPU   1296.43s WALL (    3367 calls)
     wfcrot       :    177.17s CPU    182.33s WALL (    3037 calls)

     Called by *cgdiagg:
     h_psi        :    961.59s CPU   1004.82s WALL (  257240 calls)
     s_psi        :    215.52s CPU    239.17s WALL (  511443 calls)

     Called by h_psi:
     h_psi:calbec :    118.67s CPU    123.65s WALL (  257240 calls)
     vloc_psi     :    713.11s CPU    742.58s WALL (  257240 calls)
     add_vuspsi   :    110.07s CPU    121.04s WALL (  257240 calls)
     hs_1psi      :    927.88s CPU    974.41s WALL (  254203 calls)
     s_1psi       :    222.85s CPU    240.41s WALL (  254203 calls)

     General routines
     calbec       :    216.95s CPU    236.97s WALL (  516003 calls)
     fft          :      2.99s CPU      3.04s WALL (     749 calls)
     ffts         :      0.22s CPU      0.23s WALL (     227 calls)
     fftw         :    665.68s CPU    693.31s WALL (  717034 calls)
     interpolate  :      0.69s CPU      0.72s WALL (     115 calls)
 
     Parallel routines
 
     PWSCF        :  34m36.76s CPU  36m32.27s WALL

 
   This run was terminated on:  13:28: 2   6Apr2022            

=------------------------------------------------------------------------------=
   JOB DONE.
=------------------------------------------------------------------------------=
