
     Program PWSCF v.7.0 starts on 10Apr2022 at  8:35:47 

     This program is part of the open-source Quantum ESPRESSO suite
     for quantum simulation of materials; please cite
         "P. Giannozzi et al., J. Phys.:Condens. Matter 21 395502 (2009);
         "P. Giannozzi et al., J. Phys.:Condens. Matter 29 465901 (2017);
         "P. Giannozzi et al., J. Chem. Phys. 152 154105 (2020);
          URL http://www.quantum-espresso.org", 
     in publications or presentations arising from this work. More details at
     http://www.quantum-espresso.org/quote

     Parallel version (MPI), running on     1 processors

     MPI processes distributed on     1 nodes
     90711 MiB available memory on the printing compute node when the environment starts
 
     Waiting for input...
     Reading input from standard input
Warning: card &CELL ignored
Warning: card  CELL_DYNAMICS = 'BFGS', ignored
Warning: card  PRESS=0.1D0, ignored
Warning: card / ignored

     Current dimensions of program PWSCF are:
     Max number of different atomic species (ntypx) = 10
     Max number of k-points (npk) =  40000
     Max angular momentum in pseudopotentials (lmaxx) =  4

     Subspace diagonalization in iterative solution of the eigenvalue problem:
     a serial algorithm will be used

 
     G-vector sticks info
     --------------------
     sticks:   dense  smooth     PW     G-vecs:    dense   smooth      PW
     Sum        1735     685    211                47447    12039    2085
 
     Using Slab Decomposition
 


     bravais-lattice index     =            2
     lattice parameter (alat)  =      10.0213  a.u.
     unit-cell volume          =     251.6009 (a.u.)^3
     number of atoms/cell      =            2
     number of atomic types    =            1
     number of electrons       =         8.00
     number of Kohn-Sham states=            4
     kinetic-energy cutoff     =      50.0000  Ry
     charge density cutoff     =     500.0000  Ry
     scf convergence threshold =      1.0E-08
     mixing beta               =       0.7000
     number of iterations used =            8  plain     mixing
     Exchange-correlation= SLA  PZ   NOGX NOGC
                           (   1   1   0   0   0   0   0)

     celldm(1)=  10.021300  celldm(2)=   0.000000  celldm(3)=   0.000000
     celldm(4)=   0.000000  celldm(5)=   0.000000  celldm(6)=   0.000000

     crystal axes: (cart. coord. in units of alat)
               a(1) = (  -0.500000   0.000000   0.500000 )  
               a(2) = (   0.000000   0.500000   0.500000 )  
               a(3) = (  -0.500000   0.500000   0.000000 )  

     reciprocal axes: (cart. coord. in units 2 pi/alat)
               b(1) = ( -1.000000 -1.000000  1.000000 )  
               b(2) = (  1.000000  1.000000  1.000000 )  
               b(3) = ( -1.000000  1.000000 -1.000000 )  


     PseudoPot. # 1 for Si read from file:
     ./Si_LDA.UPF
     MD5 check sum: b5ade7b37ee992b02096e360e546dc2d
     Pseudo is Ultrasoft + core correction, Zval =  4.0
     Generated by new atomic code, or converted to UPF format
     Using radial grid of  899 points,  6 beta functions with: 
                l(1) =   0
                l(2) =   0
                l(3) =   1
                l(4) =   1
                l(5) =   2
                l(6) =   2
     Q(r) pseudized with  8 coefficients,  rinner =    0.900   0.900   0.900
                                                       0.900   0.900

     atomic species   valence    mass     pseudopotential
        Si             4.00    28.08550     Si( 1.00)

     48 Sym. Ops., with inversion, found (24 have fractional translation)



   Cartesian axes

     site n.     atom                  positions (alat units)
         1           Si  tau(   1) = (   0.0000000   0.0000000   0.0000000  )
         2           Si  tau(   2) = (  -0.2500000   0.2500000   0.2500000  )

     number of k points=    35
                       cart. coord. in units 2pi/alat
        k(    1) = (   0.0000000   0.0000000   0.0000000), wk =   0.0027435
        k(    2) = (  -0.1111111   0.1111111  -0.1111111), wk =   0.0219479
        k(    3) = (  -0.2222222   0.2222222  -0.2222222), wk =   0.0219479
        k(    4) = (  -0.3333333   0.3333333  -0.3333333), wk =   0.0219479
        k(    5) = (  -0.4444444   0.4444444  -0.4444444), wk =   0.0219479
        k(    6) = (   0.0000000   0.2222222   0.0000000), wk =   0.0164609
        k(    7) = (  -0.1111111   0.3333333  -0.1111111), wk =   0.0658436
        k(    8) = (  -0.2222222   0.4444444  -0.2222222), wk =   0.0658436
        k(    9) = (  -0.3333333   0.5555556  -0.3333333), wk =   0.0658436
        k(   10) = (   0.5555556  -0.3333333   0.5555556), wk =   0.0658436
        k(   11) = (   0.4444444  -0.2222222   0.4444444), wk =   0.0658436
        k(   12) = (   0.3333333  -0.1111111   0.3333333), wk =   0.0658436
        k(   13) = (   0.2222222  -0.0000000   0.2222222), wk =   0.0329218
        k(   14) = (   0.0000000   0.4444444   0.0000000), wk =   0.0164609
        k(   15) = (  -0.1111111   0.5555556  -0.1111111), wk =   0.0658436
        k(   16) = (  -0.2222222   0.6666667  -0.2222222), wk =   0.0658436
        k(   17) = (   0.6666667  -0.2222222   0.6666667), wk =   0.0658436
        k(   18) = (   0.5555556  -0.1111111   0.5555556), wk =   0.0658436
        k(   19) = (   0.4444444  -0.0000000   0.4444444), wk =   0.0329218
        k(   20) = (   0.0000000   0.6666667   0.0000000), wk =   0.0164609
        k(   21) = (  -0.1111111   0.7777778  -0.1111111), wk =   0.0658436
        k(   22) = (   0.7777778  -0.1111111   0.7777778), wk =   0.0658436
        k(   23) = (   0.6666667  -0.0000000   0.6666667), wk =   0.0329218
        k(   24) = (   0.0000000   0.8888889   0.0000000), wk =   0.0164609
        k(   25) = (   0.8888889   0.0000000   0.8888889), wk =   0.0329218
        k(   26) = (  -0.2222222   0.4444444   0.0000000), wk =   0.0658436
        k(   27) = (  -0.3333333   0.5555556  -0.1111111), wk =   0.1316872
        k(   28) = (   0.5555556  -0.3333333   0.7777778), wk =   0.1316872
        k(   29) = (  -0.2222222   0.6666667   0.0000000), wk =   0.0658436
        k(   30) = (   0.6666667  -0.2222222   0.8888889), wk =   0.1316872
        k(   31) = (   0.5555556  -0.1111111   0.7777778), wk =   0.1316872
        k(   32) = (   0.4444444  -0.0000000   0.6666667), wk =   0.0658436
        k(   33) = (   0.7777778  -0.1111111   1.0000000), wk =   0.0658436
        k(   34) = (   0.6666667  -0.0000000   0.8888889), wk =   0.0658436
        k(   35) = (   0.5555556  -0.1111111   1.0000000), wk =   0.0658436

     Dense  grid:    47447 G-vectors     FFT dimensions: (  60,  60,  60)

     Smooth grid:    12039 G-vectors     FFT dimensions: (  32,  32,  32)

     Estimated max dynamical RAM per process >     185.73 MB

     Initial potential from superposition of free atoms

     starting charge       7.9988, renormalised to       8.0000
     Starting wfcs are    8 randomized atomic wfcs

     total cpu time spent up to now is        3.4 secs

     Self-consistent Calculation

     iteration #  1     ecut=    50.00 Ry     beta= 0.70
     CG style diagonalization
     ethr =  1.00E-02,  avg # of iterations =  3.0

     Threshold (ethr) on eigenvalues was too large:
     Diagonalizing with lowered threshold

     CG style diagonalization
     ethr =  8.05E-04,  avg # of iterations =  2.0

     total cpu time spent up to now is        6.6 secs

     total energy              =     -19.25341751 Ry
     estimated scf accuracy    <       0.06489246 Ry

     iteration #  2     ecut=    50.00 Ry     beta= 0.70
     CG style diagonalization
     ethr =  8.11E-04,  avg # of iterations =  3.0

     total cpu time spent up to now is        8.3 secs

     total energy              =     -19.25708696 Ry
     estimated scf accuracy    <       0.00195624 Ry

     iteration #  3     ecut=    50.00 Ry     beta= 0.70
     CG style diagonalization
     ethr =  2.45E-05,  avg # of iterations =  4.1

     total cpu time spent up to now is       10.4 secs

     total energy              =     -19.25775767 Ry
     estimated scf accuracy    <       0.00007810 Ry

     iteration #  4     ecut=    50.00 Ry     beta= 0.70
     CG style diagonalization
     ethr =  9.76E-07,  avg # of iterations =  4.3

     total cpu time spent up to now is       12.6 secs

     total energy              =     -19.25779596 Ry
     estimated scf accuracy    <       0.00001649 Ry

     iteration #  5     ecut=    50.00 Ry     beta= 0.70
     CG style diagonalization
     ethr =  2.06E-07,  avg # of iterations =  4.0

     total cpu time spent up to now is       14.7 secs

     total energy              =     -19.25779933 Ry
     estimated scf accuracy    <       0.00000006 Ry

     iteration #  6     ecut=    50.00 Ry     beta= 0.70
     CG style diagonalization
     ethr =  7.55E-10,  avg # of iterations =  5.7

     total cpu time spent up to now is       17.3 secs

     End of self-consistent calculation

          k = 0.0000 0.0000 0.0000 (  1459 PWs)   bands (ev):

    -5.6916   6.7745   6.7745   6.7745

          k =-0.1111 0.1111-0.1111 (  1462 PWs)   bands (ev):

    -5.5201   5.3943   6.5183   6.5183

          k =-0.2222 0.2222-0.2222 (  1492 PWs)   bands (ev):

    -5.0149   3.2201   6.0701   6.0701

          k =-0.3333 0.3333-0.3333 (  1501 PWs)   bands (ev):

    -4.2209   1.1983   5.7188   5.7188

          k =-0.4444 0.4444-0.4444 (  1489 PWs)   bands (ev):

    -3.3538  -0.3032   5.5378   5.5378

          k = 0.0000 0.2222 0.0000 (  1479 PWs)   bands (ev):

    -5.4625   5.7067   6.0361   6.0361

          k =-0.1111 0.3333-0.1111 (  1491 PWs)   bands (ev):

    -5.0667   3.9099   5.5328   5.7144

          k =-0.2222 0.4444-0.2222 (  1496 PWs)   bands (ev):

    -4.3607   1.8853   5.1830   5.2156

          k =-0.3333 0.5556-0.3333 (  1493 PWs)   bands (ev):

    -3.4647   0.1822   4.7204   5.1370

          k = 0.5556-0.3333 0.5556 (  1504 PWs)   bands (ev):

    -3.0407  -0.4464   4.4383   5.2935

          k = 0.4444-0.2222 0.4444 (  1505 PWs)   bands (ev):

    -3.7688   0.6954   4.3885   5.6500

          k = 0.3333-0.1111 0.3333 (  1496 PWs)   bands (ev):

    -4.6291   2.5416   4.6143   6.1305

          k = 0.2222-0.0000 0.2222 (  1482 PWs)   bands (ev):

    -5.2365   4.4126   5.2841   6.5478

          k = 0.0000 0.4444 0.0000 (  1487 PWs)   bands (ev):

    -4.7812   3.7674   4.9749   4.9749

          k =-0.1111 0.5556-0.1111 (  1506 PWs)   bands (ev):

    -4.1745   2.3453   4.3121   4.6144

          k =-0.2222 0.6667-0.2222 (  1500 PWs)   bands (ev):

    -3.3152   0.7565   3.5263   4.5155

          k = 0.6667-0.2222 0.6667 (  1507 PWs)   bands (ev):

    -2.5900  -0.2810   2.9702   4.6859

          k = 0.5556-0.1111 0.5556 (  1506 PWs)   bands (ev):

    -3.0460   0.3565   2.7580   5.0972

          k = 0.4444-0.0000 0.4444 (  1510 PWs)   bands (ev):

    -3.9362   1.7037   3.1427   5.6606

          k = 0.0000 0.6667 0.0000 (  1503 PWs)   bands (ev):

    -3.6680   1.6878   4.1881   4.1881

          k =-0.1111 0.7778-0.1111 (  1508 PWs)   bands (ev):

    -2.8788   0.5784   3.3814   4.0234

          k = 0.7778-0.1111 0.7778 (  1509 PWs)   bands (ev):

    -2.0126  -0.3852   2.3834   4.1403

          k = 0.6667-0.0000 0.6667 (  1516 PWs)   bands (ev):

    -2.1873  -0.1959   1.9854   4.5218

          k = 0.0000 0.8889 0.0000 (  1508 PWs)   bands (ev):

    -2.1635  -0.3396   3.7810   3.7810

          k = 0.8889 0.0000 0.8889 (  1506 PWs)   bands (ev):

    -1.3290  -1.1636   3.0822   3.8218

          k =-0.2222 0.4444 0.0000 (  1495 PWs)   bands (ev):

    -4.5664   2.9160   4.2097   5.5408

          k =-0.3333 0.5556-0.1111 (  1499 PWs)   bands (ev):

    -3.7784   1.3216   3.5890   5.0595

          k = 0.5556-0.3333 0.7778 (  1503 PWs)   bands (ev):

    -2.9079  -0.0807   3.4088   4.7025

          k =-0.2222 0.6667 0.0000 (  1510 PWs)   bands (ev):

    -3.4787   1.3594   3.4498   4.1980

          k = 0.6667-0.2222 0.8889 (  1508 PWs)   bands (ev):

    -2.5857   0.2000   2.7342   3.8583

          k = 0.5556-0.1111 0.7778 (  1509 PWs)   bands (ev):

    -2.1772  -0.2737   2.3128   3.9832

          k = 0.4444-0.0000 0.6667 (  1503 PWs)   bands (ev):

    -2.9434   0.5938   2.4611   4.4610

          k = 0.7778-0.1111 1.0000 (  1515 PWs)   bands (ev):

    -2.0317  -0.3466   3.1393   3.3600

          k = 0.6667-0.0000 0.8889 (  1504 PWs)   bands (ev):

    -1.4500  -0.8441   2.3261   3.4574

          k = 0.5556-0.1111 1.0000 (  1501 PWs)   bands (ev):

    -1.7176  -0.4953   2.3728   3.0659

     highest occupied level (ev):     6.7745

!    total energy              =     -19.25779958 Ry
     estimated scf accuracy    <          4.7E-09 Ry

     The total energy is the sum of the following terms:
     one-electron contribution =       5.59958287 Ry
     hartree contribution      =       1.05396615 Ry
     xc contribution           =      -8.71023324 Ry
     ewald contribution        =     -17.20111537 Ry

     convergence has been achieved in   6 iterations

     Forces acting on atoms (cartesian axes, Ry/au):

     atom    1 type  1   force =     0.00000000    0.00000000    0.00000000
     atom    2 type  1   force =     0.00000000    0.00000000    0.00000000

     Total force =     0.000000     Total SCF correction =     0.000000


     Computing stress (Cartesian axis) and pressure

          total   stress  (Ry/bohr**3)                   (kbar)     P=       59.14
   0.00040202   0.00000000   0.00000000           59.14        0.00        0.00
  -0.00000000   0.00040202   0.00000000           -0.00       59.14        0.00
   0.00000000   0.00000000   0.00040202            0.00        0.00       59.14


     Writing all to output data dir ./Si_minus5.save/
 
     init_run     :      1.94s CPU      2.30s WALL (       1 calls)
     electrons    :     12.37s CPU     13.91s WALL (       1 calls)
     forces       :      0.50s CPU      0.58s WALL (       1 calls)
     stress       :      3.47s CPU      3.60s WALL (       1 calls)

     Called by init_run:
     wfcinit      :      0.54s CPU      0.63s WALL (       1 calls)
     potinit      :      0.07s CPU      0.13s WALL (       1 calls)
     hinit0       :      0.99s CPU      1.09s WALL (       1 calls)

     Called by electrons:
     c_bands      :      7.58s CPU      8.59s WALL (       7 calls)
     sum_band     :      2.99s CPU      3.23s WALL (       7 calls)
     v_of_rho     :      0.36s CPU      0.42s WALL (       7 calls)
     newd         :      1.57s CPU      1.78s WALL (       7 calls)
     mix_rho      :      0.07s CPU      0.08s WALL (       7 calls)

     Called by c_bands:
     init_us_2    :      0.90s CPU      0.95s WALL (     595 calls)
     init_us_2:cp :      0.88s CPU      0.94s WALL (     595 calls)
     ccgdiagg     :      6.03s CPU      6.55s WALL (     245 calls)
     wfcrot       :      1.49s CPU      1.62s WALL (     210 calls)

     Called by *cgdiagg:
     h_psi        :      5.53s CPU      5.92s WALL (    3162 calls)
     s_psi        :      0.86s CPU      0.98s WALL (    6114 calls)

     Called by h_psi:
     h_psi:calbec :      0.58s CPU      0.63s WALL (    3162 calls)
     vloc_psi     :      4.26s CPU      4.54s WALL (    3162 calls)
     add_vuspsi   :      0.50s CPU      0.56s WALL (    3162 calls)
     hs_1psi      :      4.84s CPU      5.20s WALL (    2952 calls)
     s_1psi       :      0.91s CPU      1.01s WALL (    2952 calls)

     General routines
     calbec       :      1.00s CPU      1.13s WALL (    6534 calls)
     fft          :      0.22s CPU      0.25s WALL (      49 calls)
     ffts         :      0.01s CPU      0.01s WALL (      14 calls)
     fftw         :      3.65s CPU      3.87s WALL (    8844 calls)
     interpolate  :      0.04s CPU      0.07s WALL (       7 calls)
 
     Parallel routines
 
     PWSCF        :     18.81s CPU     22.63s WALL

 
   This run was terminated on:   8:36: 9  10Apr2022            

=------------------------------------------------------------------------------=
   JOB DONE.
=------------------------------------------------------------------------------=
