
     Program PHONON v.7.0 starts on 10Apr2022 at  8:36:11 

     This program is part of the open-source Quantum ESPRESSO suite
     for quantum simulation of materials; please cite
         "P. Giannozzi et al., J. Phys.:Condens. Matter 21 395502 (2009);
         "P. Giannozzi et al., J. Phys.:Condens. Matter 29 465901 (2017);
         "P. Giannozzi et al., J. Chem. Phys. 152 154105 (2020);
          URL http://www.quantum-espresso.org", 
     in publications or presentations arising from this work. More details at
     http://www.quantum-espresso.org/quote

     Parallel version (MPI), running on     1 processors

     MPI processes distributed on     1 nodes
     90646 MiB available memory on the printing compute node when the environment starts
 
     Waiting for input...
     Reading input from standard input

     Reading xml data from directory:

     ./Si_minus5.save/

     IMPORTANT: XC functional enforced from input :
     Exchange-correlation= PZ
                           (   1   1   0   0   0   0   0)
     Any further DFT definition will be discarded
     Please, verify this is what you really want

 
     G-vector sticks info
     --------------------
     sticks:   dense  smooth     PW     G-vecs:    dense   smooth      PW
     Sum        1735     685    211                47447    12039    2085
 
     Using Slab Decomposition
 
     Reading collected, re-writing distributed wavefunctions


     Dynamical matrices for ( 4, 4, 4)  uniform grid of q-points
     (   8 q-points):
       N         xq(1)         xq(2)         xq(3) 
       1   0.000000000   0.000000000   0.000000000
       2  -0.250000000   0.250000000  -0.250000000
       3   0.500000000  -0.500000000   0.500000000
       4   0.000000000   0.500000000   0.000000000
       5   0.750000000  -0.250000000   0.750000000
       6   0.500000000   0.000000000   0.500000000
       7   0.000000000  -1.000000000   0.000000000
       8  -0.500000000  -1.000000000   0.000000000

     Calculation of q =    0.0000000   0.0000000   0.0000000

     Phonons of Si                                                              

     bravais-lattice index     =            2
     lattice parameter (alat)  =      10.0213  a.u.
     unit-cell volume          =     251.6009 (a.u.)^3
     number of atoms/cell      =            2
     number of atomic types    =            1
     kinetic-energy cut-off    =      50.0000  Ry
     charge density cut-off    =     500.0000  Ry
     convergence threshold     =      1.0E-16
     beta                      =       0.7000
     number of iterations used =            4
     Exchange-correlation= PZ
                           (   1   1   0   0   0   0   0)


     celldm(1)=   10.02130  celldm(2)=    0.00000  celldm(3)=    0.00000
     celldm(4)=    0.00000  celldm(5)=    0.00000  celldm(6)=    0.00000

     crystal axes: (cart. coord. in units of alat)
               a(1) = ( -0.5000  0.0000  0.5000 )  
               a(2) = (  0.0000  0.5000  0.5000 )  
               a(3) = ( -0.5000  0.5000  0.0000 )  

     reciprocal axes: (cart. coord. in units 2 pi/alat)
               b(1) = ( -1.0000 -1.0000  1.0000 )  
               b(2) = (  1.0000  1.0000  1.0000 )  
               b(3) = ( -1.0000  1.0000 -1.0000 )  


     Atoms inside the unit cell: 

     Cartesian axes

     site n.  atom      mass           positions (alat units)
        1     Si  28.0855   tau(    1) = (    0.00000    0.00000    0.00000  )
        2     Si  28.0855   tau(    2) = (   -0.25000    0.25000    0.25000  )

     Computing dynamical matrix for 
                    q = (   0.0000000   0.0000000   0.0000000 )
 
     49 Sym.Ops. (with q -> -q+G )


     G cutoff = 1271.9159  (  47447 G-vectors)     FFT grid: ( 60, 60, 60)
     G cutoff =  508.7664  (  12039 G-vectors)  smooth grid: ( 32, 32, 32)
     number of k points=    35

     PseudoPot. # 1 for Si read from file:
     ./Si_LDA.UPF
     MD5 check sum: b5ade7b37ee992b02096e360e546dc2d
     Pseudo is Ultrasoft + core correction, Zval =  4.0
     Generated by new atomic code, or converted to UPF format
     Using radial grid of  899 points,  6 beta functions with: 
                l(1) =   0
                l(2) =   0
                l(3) =   1
                l(4) =   1
                l(5) =   2
                l(6) =   2
     Q(r) pseudized with  8 coefficients,  rinner =    0.900   0.900   0.900
                                                       0.900   0.900

     Mode symmetry, O_h (m-3m)  point group:


     Electric field:
     Dielectric constant
     Born effective charges in two ways 


     Atomic displacements:
     There are    2 irreducible representations

     Representation     1      3 modes -  To be done

     Representation     2      3 modes -  To be done



     Alpha used in Ewald sum =   2.8000
     PHONON       :     14.01s CPU     16.06s WALL


     Electric Fields Calculation

      iter #   1 total cpu time :    43.9 secs   av.it.:   5.9
      thresh= 1.000E-02 alpha_mix =  0.700 |ddv_scf|^2 =  3.385E-08

      iter #   2 total cpu time :    58.8 secs   av.it.:  12.0
      thresh= 1.840E-05 alpha_mix =  0.700 |ddv_scf|^2 =  1.287E-09

      iter #   3 total cpu time :    73.9 secs   av.it.:  12.0
      thresh= 3.587E-06 alpha_mix =  0.700 |ddv_scf|^2 =  1.691E-11

      iter #   4 total cpu time :    89.2 secs   av.it.:  12.2
      thresh= 4.112E-07 alpha_mix =  0.700 |ddv_scf|^2 =  6.477E-14

      iter #   5 total cpu time :   103.1 secs   av.it.:  11.5
      thresh= 2.545E-08 alpha_mix =  0.700 |ddv_scf|^2 =  6.010E-17

     End of electric fields calculation

          Dielectric constant in cartesian axis 

          (      13.829907383       0.000000000       0.000000000 )
          (       0.000000000      13.829907383       0.000000000 )
          (      -0.000000000       0.000000000      13.829907383 )

          Effective charges (d Force / dE) in cartesian axis without acoustic sum rule applied (asr)

           atom      1   Si Mean Z*:       -0.05212
      Ex  (       -0.05212        0.00000        0.00000 )
      Ey  (        0.00000       -0.05212       -0.00000 )
      Ez  (        0.00000       -0.00000       -0.05212 )
           atom      2   Si Mean Z*:       -0.05212
      Ex  (       -0.05212        0.00000       -0.00000 )
      Ey  (        0.00000       -0.05212       -0.00000 )
      Ez  (        0.00000       -0.00000       -0.05212 )

          Effective charges Sum: Mean:       -0.10424
             -0.10424        0.00000        0.00000
              0.00000       -0.10424       -0.00000
             -0.00000       -0.00000       -0.10424

          Effective charges (d Force / dE) in cartesian axis with asr applied: 
           atom      1   Si Mean Z*:       -0.00000
      E*x (        0.00000       -0.00000        0.00000 )
      E*y (        0.00000       -0.00000        0.00000 )
      E*z (        0.00000       -0.00000        0.00000 )
           atom      2   Si Mean Z*:        0.00000
      E*x (        0.00000        0.00000       -0.00000 )
      E*y (        0.00000        0.00000       -0.00000 )
      E*z (        0.00000        0.00000       -0.00000 )


     Representation #   1 modes #   1   2   3

     Self-consistent Calculation

      iter #   1 total cpu time :   127.3 secs   av.it.:   5.3
      thresh= 1.000E-02 alpha_mix =  0.700 |ddv_scf|^2 =  4.743E-09

      iter #   2 total cpu time :   143.3 secs   av.it.:  12.4
      thresh= 6.887E-06 alpha_mix =  0.700 |ddv_scf|^2 =  1.597E-10

      iter #   3 total cpu time :   159.1 secs   av.it.:  12.2
      thresh= 1.264E-06 alpha_mix =  0.700 |ddv_scf|^2 =  9.723E-12

      iter #   4 total cpu time :   174.9 secs   av.it.:  11.9
      thresh= 3.118E-07 alpha_mix =  0.700 |ddv_scf|^2 =  1.648E-14

      iter #   5 total cpu time :   191.0 secs   av.it.:  12.4
      thresh= 1.284E-08 alpha_mix =  0.700 |ddv_scf|^2 =  1.006E-16

      iter #   6 total cpu time :   206.9 secs   av.it.:  12.4
      thresh= 1.003E-09 alpha_mix =  0.700 |ddv_scf|^2 =  1.639E-18

     End of self-consistent calculation

     Convergence has been achieved 


     Representation #   2 modes #   4   5   6

     Self-consistent Calculation

      iter #   1 total cpu time :   222.7 secs   av.it.:   5.4
      thresh= 1.000E-02 alpha_mix =  0.700 |ddv_scf|^2 =  3.865E-09

      iter #   2 total cpu time :   238.7 secs   av.it.:  12.6
      thresh= 6.217E-06 alpha_mix =  0.700 |ddv_scf|^2 =  1.853E-10

      iter #   3 total cpu time :   254.7 secs   av.it.:  12.3
      thresh= 1.361E-06 alpha_mix =  0.700 |ddv_scf|^2 =  1.085E-11

      iter #   4 total cpu time :   270.7 secs   av.it.:  12.6
      thresh= 3.294E-07 alpha_mix =  0.700 |ddv_scf|^2 =  1.625E-14

      iter #   5 total cpu time :   286.7 secs   av.it.:  12.8
      thresh= 1.275E-08 alpha_mix =  0.700 |ddv_scf|^2 =  5.324E-17

     End of self-consistent calculation

     Convergence has been achieved 
 
     Number of q in the star =    1
     List of q in the star:
          1   0.000000000   0.000000000   0.000000000

          Dielectric constant in cartesian axis 

          (      13.829907383       0.000000000       0.000000000 )
          (       0.000000000      13.829907383       0.000000000 )
          (      -0.000000000       0.000000000      13.829907383 )

          Effective charges (d Force / dE) in cartesian axis without acoustic sum rule applied (asr)

           atom      1   Si Mean Z*:       -0.05212
      Ex  (       -0.05212        0.00000        0.00000 )
      Ey  (        0.00000       -0.05212       -0.00000 )
      Ez  (        0.00000       -0.00000       -0.05212 )
           atom      2   Si Mean Z*:       -0.05212
      Ex  (       -0.05212        0.00000       -0.00000 )
      Ey  (        0.00000       -0.05212       -0.00000 )
      Ez  (        0.00000       -0.00000       -0.05212 )

          Effective charges Sum: Mean:       -0.10424
             -0.10424        0.00000        0.00000
              0.00000       -0.10424       -0.00000
             -0.00000       -0.00000       -0.10424

          Effective charges (d Force / dE) in cartesian axis with asr applied: 
           atom      1   Si Mean Z*:       -0.00000
      E*x (        0.00000       -0.00000        0.00000 )
      E*y (        0.00000       -0.00000        0.00000 )
      E*z (        0.00000       -0.00000        0.00000 )
           atom      2   Si Mean Z*:        0.00000
      E*x (        0.00000        0.00000       -0.00000 )
      E*y (        0.00000        0.00000       -0.00000 )
      E*z (        0.00000        0.00000       -0.00000 )

          Effective charges (d P / du) in cartesian axis 

           atom      1   Si 
      Px  (       -0.05199        0.00000       -0.00000 )
      Py  (        0.00000       -0.05199        0.00000 )
      Pz  (       -0.00000        0.00000       -0.05199 )
           atom      2   Si 
      Px  (       -0.05199        0.00000        0.00000 )
      Py  (        0.00000       -0.05199        0.00000 )
      Pz  (        0.00000        0.00000       -0.05199 )

     Diagonalizing the dynamical matrix

     q = (    0.000000000   0.000000000   0.000000000 ) 

 **************************************************************************
     freq (    1) =      -0.180753 [THz] =      -6.029264 [cm-1]
     freq (    2) =      -0.180753 [THz] =      -6.029264 [cm-1]
     freq (    3) =      -0.180753 [THz] =      -6.029264 [cm-1]
     freq (    4) =      16.266863 [THz] =     542.604160 [cm-1]
     freq (    5) =      16.266863 [THz] =     542.604160 [cm-1]
     freq (    6) =      16.266863 [THz] =     542.604160 [cm-1]
 **************************************************************************

     Mode symmetry, O_h (m-3m)  point group:

     freq (   1-   3) =         -6.0  [cm-1]   --> T_1u G_15  G_4- I  
     freq (   4-   6) =        542.6  [cm-1]   --> T_2g G_25' G_5+ R  

     Calculation of q =   -0.2500000   0.2500000  -0.2500000

     Subspace diagonalization in iterative solution of the eigenvalue problem:
     a serial algorithm will be used

 
     G-vector sticks info
     --------------------
     sticks:   dense  smooth     PW     G-vecs:    dense   smooth      PW
     Sum        1735     685    223                47447    12039    2229
 
     Using Slab Decomposition
 

     Title: 
     Phonons of Si                                                              


     bravais-lattice index     =            2
     lattice parameter (alat)  =      10.0213  a.u.
     unit-cell volume          =     251.6009 (a.u.)^3
     number of atoms/cell      =            2
     number of atomic types    =            1
     number of electrons       =         8.00
     number of Kohn-Sham states=            4
     kinetic-energy cutoff     =      50.0000  Ry
     charge density cutoff     =     500.0000  Ry
     Exchange-correlation= PZ
                           (   1   1   0   0   0   0   0)

     celldm(1)=  10.021300  celldm(2)=   0.000000  celldm(3)=   0.000000
     celldm(4)=   0.000000  celldm(5)=   0.000000  celldm(6)=   0.000000

     crystal axes: (cart. coord. in units of alat)
               a(1) = (  -0.500000   0.000000   0.500000 )  
               a(2) = (   0.000000   0.500000   0.500000 )  
               a(3) = (  -0.500000   0.500000   0.000000 )  

     reciprocal axes: (cart. coord. in units 2 pi/alat)
               b(1) = ( -1.000000 -1.000000  1.000000 )  
               b(2) = (  1.000000  1.000000  1.000000 )  
               b(3) = ( -1.000000  1.000000 -1.000000 )  


     PseudoPot. # 1 for Si read from file:
     ./Si_LDA.UPF
     MD5 check sum: b5ade7b37ee992b02096e360e546dc2d
     Pseudo is Ultrasoft + core correction, Zval =  4.0
     Generated by new atomic code, or converted to UPF format
     Using radial grid of  899 points,  6 beta functions with: 
                l(1) =   0
                l(2) =   0
                l(3) =   1
                l(4) =   1
                l(5) =   2
                l(6) =   2
     Q(r) pseudized with  8 coefficients,  rinner =    0.900   0.900   0.900
                                                       0.900   0.900

     atomic species   valence    mass     pseudopotential
        Si             4.00    28.08550     Si( 1.00)

     48 Sym. Ops., with inversion, found



   Cartesian axes

     site n.     atom                  positions (alat units)
         1           Si  tau(   1) = (   0.0000000   0.0000000   0.0000000  )
         2           Si  tau(   2) = (  -0.2500000   0.2500000   0.2500000  )

     number of k points=   330

     Number of k-points >= 100: set verbosity='high' to print them.

     Dense  grid:    47447 G-vectors     FFT dimensions: (  60,  60,  60)

     Smooth grid:    12039 G-vectors     FFT dimensions: (  32,  32,  32)

     Estimated max dynamical RAM per process >     159.18 MB

     The potential is recalculated from file :
     ./_ph0/Si_minus5.save/charge-density

     Starting wfcs are    8 atomic wfcs

     Band Structure Calculation
     Davidson diagonalization with overlap

     ethr =  1.25E-10,  avg # of iterations = 13.2

     total cpu time spent up to now is       39.0 secs

     End of band structure calculation

     Number of k-points >= 100: set verbosity='high' to print the bands.

     highest occupied level (ev):     6.7744

     Writing config to output data dir ./_ph0/Si_minus5.save/

     Phonons of Si                                                              

     bravais-lattice index     =            2
     lattice parameter (alat)  =      10.0213  a.u.
     unit-cell volume          =     251.6009 (a.u.)^3
     number of atoms/cell      =            2
     number of atomic types    =            1
     kinetic-energy cut-off    =      50.0000  Ry
     charge density cut-off    =     500.0000  Ry
     convergence threshold     =      1.0E-16
     beta                      =       0.7000
     number of iterations used =            4
     Exchange-correlation= PZ
                           (   1   1   0   0   0   0   0)


     celldm(1)=   10.02130  celldm(2)=    0.00000  celldm(3)=    0.00000
     celldm(4)=    0.00000  celldm(5)=    0.00000  celldm(6)=    0.00000

     crystal axes: (cart. coord. in units of alat)
               a(1) = ( -0.5000  0.0000  0.5000 )  
               a(2) = (  0.0000  0.5000  0.5000 )  
               a(3) = ( -0.5000  0.5000  0.0000 )  

     reciprocal axes: (cart. coord. in units 2 pi/alat)
               b(1) = ( -1.0000 -1.0000  1.0000 )  
               b(2) = (  1.0000  1.0000  1.0000 )  
               b(3) = ( -1.0000  1.0000 -1.0000 )  


     Atoms inside the unit cell: 

     Cartesian axes

     site n.  atom      mass           positions (alat units)
        1     Si  28.0855   tau(    1) = (    0.00000    0.00000    0.00000  )
        2     Si  28.0855   tau(    2) = (   -0.25000    0.25000    0.25000  )

     Computing dynamical matrix for 
                    q = (  -0.2500000   0.2500000  -0.2500000 )
 
      6 Sym.Ops. (no q -> -q+G )


     G cutoff = 1271.9159  (  47447 G-vectors)     FFT grid: ( 60, 60, 60)
     G cutoff =  508.7664  (  12039 G-vectors)  smooth grid: ( 32, 32, 32)
     number of k points=   330

     PseudoPot. # 1 for Si read from file:
     ./Si_LDA.UPF
     MD5 check sum: b5ade7b37ee992b02096e360e546dc2d
     Pseudo is Ultrasoft + core correction, Zval =  4.0
     Generated by new atomic code, or converted to UPF format
     Using radial grid of  899 points,  6 beta functions with: 
                l(1) =   0
                l(2) =   0
                l(3) =   1
                l(4) =   1
                l(5) =   2
                l(6) =   2
     Q(r) pseudized with  8 coefficients,  rinner =    0.900   0.900   0.900
                                                       0.900   0.900

     Mode symmetry, C_3v (3m)   point group:


     Atomic displacements:
     There are    4 irreducible representations

     Representation     1      1 modes -  To be done

     Representation     2      1 modes -  To be done

     Representation     3      2 modes -  To be done

     Representation     4      2 modes -  To be done



     Alpha used in Ewald sum =   2.8000
     PHONON       :   5m27.28s CPU   5m49.48s WALL



     Representation #   1 mode #   1

     Self-consistent Calculation

      iter #   1 total cpu time :   361.5 secs   av.it.:   6.2
      thresh= 1.000E-02 alpha_mix =  0.700 |ddv_scf|^2 =  1.066E-04

      iter #   2 total cpu time :   377.2 secs   av.it.:  10.3
      thresh= 1.032E-03 alpha_mix =  0.700 |ddv_scf|^2 =  1.680E-03

      iter #   3 total cpu time :   390.7 secs   av.it.:   8.1
      thresh= 4.099E-03 alpha_mix =  0.700 |ddv_scf|^2 =  5.787E-08

      iter #   4 total cpu time :   406.8 secs   av.it.:  10.7
      thresh= 2.406E-05 alpha_mix =  0.700 |ddv_scf|^2 =  3.654E-09

      iter #   5 total cpu time :   423.0 secs   av.it.:  10.7
      thresh= 6.045E-06 alpha_mix =  0.700 |ddv_scf|^2 =  8.088E-11

      iter #   6 total cpu time :   438.8 secs   av.it.:  10.6
      thresh= 8.994E-07 alpha_mix =  0.700 |ddv_scf|^2 =  5.493E-12

      iter #   7 total cpu time :   454.6 secs   av.it.:  10.6
      thresh= 2.344E-07 alpha_mix =  0.700 |ddv_scf|^2 =  6.251E-13

      iter #   8 total cpu time :   469.3 secs   av.it.:   9.5
      thresh= 7.906E-08 alpha_mix =  0.700 |ddv_scf|^2 =  3.682E-13

      iter #   9 total cpu time :   483.8 secs   av.it.:   9.4
      thresh= 6.068E-08 alpha_mix =  0.700 |ddv_scf|^2 =  2.994E-15

      iter #  10 total cpu time :   499.4 secs   av.it.:  10.5
      thresh= 5.472E-09 alpha_mix =  0.700 |ddv_scf|^2 =  3.355E-16

      iter #  11 total cpu time :   514.9 secs   av.it.:  10.4
      thresh= 1.832E-09 alpha_mix =  0.700 |ddv_scf|^2 =  5.075E-17

     End of self-consistent calculation

     Convergence has been achieved 


     Representation #   2 mode #   2

     Self-consistent Calculation

      iter #   1 total cpu time :   527.6 secs   av.it.:   6.2
      thresh= 1.000E-02 alpha_mix =  0.700 |ddv_scf|^2 =  1.066E-04

      iter #   2 total cpu time :   543.1 secs   av.it.:  10.3
      thresh= 1.032E-03 alpha_mix =  0.700 |ddv_scf|^2 =  1.680E-03

      iter #   3 total cpu time :   556.4 secs   av.it.:   8.1
      thresh= 4.099E-03 alpha_mix =  0.700 |ddv_scf|^2 =  5.787E-08

      iter #   4 total cpu time :   572.3 secs   av.it.:  10.7
      thresh= 2.406E-05 alpha_mix =  0.700 |ddv_scf|^2 =  3.654E-09

      iter #   5 total cpu time :   588.3 secs   av.it.:  10.7
      thresh= 6.045E-06 alpha_mix =  0.700 |ddv_scf|^2 =  8.088E-11

      iter #   6 total cpu time :   604.1 secs   av.it.:  10.6
      thresh= 8.994E-07 alpha_mix =  0.700 |ddv_scf|^2 =  5.493E-12

      iter #   7 total cpu time :   619.8 secs   av.it.:  10.6
      thresh= 2.344E-07 alpha_mix =  0.700 |ddv_scf|^2 =  6.251E-13

      iter #   8 total cpu time :   634.5 secs   av.it.:   9.5
      thresh= 7.906E-08 alpha_mix =  0.700 |ddv_scf|^2 =  3.682E-13

      iter #   9 total cpu time :   649.0 secs   av.it.:   9.4
      thresh= 6.068E-08 alpha_mix =  0.700 |ddv_scf|^2 =  2.994E-15

      iter #  10 total cpu time :   664.5 secs   av.it.:  10.5
      thresh= 5.472E-09 alpha_mix =  0.700 |ddv_scf|^2 =  3.355E-16

      iter #  11 total cpu time :   679.9 secs   av.it.:  10.4
      thresh= 1.832E-09 alpha_mix =  0.700 |ddv_scf|^2 =  5.075E-17

     End of self-consistent calculation

     Convergence has been achieved 


     Representation #   3 modes #   3   4

     Self-consistent Calculation

      iter #   1 total cpu time :   701.5 secs   av.it.:   5.5
      thresh= 1.000E-02 alpha_mix =  0.700 |ddv_scf|^2 =  1.411E-08

      iter #   2 total cpu time :   735.5 secs   av.it.:  12.5
      thresh= 1.188E-05 alpha_mix =  0.700 |ddv_scf|^2 =  8.525E-10

      iter #   3 total cpu time :   769.0 secs   av.it.:  12.3
      thresh= 2.920E-06 alpha_mix =  0.700 |ddv_scf|^2 =  3.366E-11

      iter #   4 total cpu time :   802.6 secs   av.it.:  12.3
      thresh= 5.802E-07 alpha_mix =  0.700 |ddv_scf|^2 =  1.289E-13

      iter #   5 total cpu time :   836.5 secs   av.it.:  12.4
      thresh= 3.590E-08 alpha_mix =  0.700 |ddv_scf|^2 =  4.333E-15

      iter #   6 total cpu time :   870.6 secs   av.it.:  12.6
      thresh= 6.582E-09 alpha_mix =  0.700 |ddv_scf|^2 =  2.271E-17

     End of self-consistent calculation

     Convergence has been achieved 


     Representation #   4 modes #   5   6

     Self-consistent Calculation

      iter #   1 total cpu time :   892.2 secs   av.it.:   5.4
      thresh= 1.000E-02 alpha_mix =  0.700 |ddv_scf|^2 =  1.411E-08

      iter #   2 total cpu time :   925.4 secs   av.it.:  12.0
      thresh= 1.188E-05 alpha_mix =  0.700 |ddv_scf|^2 =  8.556E-10

      iter #   3 total cpu time :   958.1 secs   av.it.:  11.8
      thresh= 2.925E-06 alpha_mix =  0.700 |ddv_scf|^2 =  3.369E-11

      iter #   4 total cpu time :   990.8 secs   av.it.:  11.8
      thresh= 5.804E-07 alpha_mix =  0.700 |ddv_scf|^2 =  1.279E-13

      iter #   5 total cpu time :  1023.8 secs   av.it.:  12.0
      thresh= 3.576E-08 alpha_mix =  0.700 |ddv_scf|^2 =  4.310E-15

      iter #   6 total cpu time :  1057.2 secs   av.it.:  12.2
      thresh= 6.565E-09 alpha_mix =  0.700 |ddv_scf|^2 =  2.271E-17

     End of self-consistent calculation

     Convergence has been achieved 
 
     Number of q in the star =    8
     List of q in the star:
          1  -0.250000000   0.250000000  -0.250000000
          2   0.250000000  -0.250000000  -0.250000000
          3   0.250000000  -0.250000000   0.250000000
          4   0.250000000   0.250000000   0.250000000
          5  -0.250000000  -0.250000000  -0.250000000
          6  -0.250000000  -0.250000000   0.250000000
          7  -0.250000000   0.250000000   0.250000000
          8   0.250000000   0.250000000  -0.250000000

     Diagonalizing the dynamical matrix

     q = (   -0.250000000   0.250000000  -0.250000000 ) 

 **************************************************************************
     freq (    1) =       2.592409 [THz] =      86.473466 [cm-1]
     freq (    2) =       2.592409 [THz] =      86.473466 [cm-1]
     freq (    3) =       7.213422 [THz] =     240.613849 [cm-1]
     freq (    4) =      15.380520 [THz] =     513.038921 [cm-1]
     freq (    5) =      15.807378 [THz] =     527.277381 [cm-1]
     freq (    6) =      15.807378 [THz] =     527.277381 [cm-1]
 **************************************************************************

     Mode symmetry, C_3v (3m)   point group:

     freq (   1-   2) =         86.5  [cm-1]   --> E    L_3           
     freq (   3-   3) =        240.6  [cm-1]   --> A_1  L_1           
     freq (   4-   4) =        513.0  [cm-1]   --> A_1  L_1           
     freq (   5-   6) =        527.3  [cm-1]   --> E    L_3           

     Calculation of q =    0.5000000  -0.5000000   0.5000000
 
     G-vector sticks info
     --------------------
     sticks:   dense  smooth     PW     G-vecs:    dense   smooth      PW
     Sum        1735     685    241                47447    12039    2445
 
     Using Slab Decomposition
 

     Title: 
     Phonons of Si                                                              


     bravais-lattice index     =            2
     lattice parameter (alat)  =      10.0213  a.u.
     unit-cell volume          =     251.6009 (a.u.)^3
     number of atoms/cell      =            2
     number of atomic types    =            1
     number of electrons       =         8.00
     number of Kohn-Sham states=            4
     kinetic-energy cutoff     =      50.0000  Ry
     charge density cutoff     =     500.0000  Ry
     Exchange-correlation= PZ
                           (   1   1   0   0   0   0   0)

     celldm(1)=  10.021300  celldm(2)=   0.000000  celldm(3)=   0.000000
     celldm(4)=   0.000000  celldm(5)=   0.000000  celldm(6)=   0.000000

     crystal axes: (cart. coord. in units of alat)
               a(1) = (  -0.500000   0.000000   0.500000 )  
               a(2) = (   0.000000   0.500000   0.500000 )  
               a(3) = (  -0.500000   0.500000   0.000000 )  

     reciprocal axes: (cart. coord. in units 2 pi/alat)
               b(1) = ( -1.000000 -1.000000  1.000000 )  
               b(2) = (  1.000000  1.000000  1.000000 )  
               b(3) = ( -1.000000  1.000000 -1.000000 )  


     PseudoPot. # 1 for Si read from file:
     ./Si_LDA.UPF
     MD5 check sum: b5ade7b37ee992b02096e360e546dc2d
     Pseudo is Ultrasoft + core correction, Zval =  4.0
     Generated by new atomic code, or converted to UPF format
     Using radial grid of  899 points,  6 beta functions with: 
                l(1) =   0
                l(2) =   0
                l(3) =   1
                l(4) =   1
                l(5) =   2
                l(6) =   2
     Q(r) pseudized with  8 coefficients,  rinner =    0.900   0.900   0.900
                                                       0.900   0.900

     atomic species   valence    mass     pseudopotential
        Si             4.00    28.08550     Si( 1.00)

     48 Sym. Ops., with inversion, found



   Cartesian axes

     site n.     atom                  positions (alat units)
         1           Si  tau(   1) = (   0.0000000   0.0000000   0.0000000  )
         2           Si  tau(   2) = (  -0.2500000   0.2500000   0.2500000  )

     number of k points=   170

     Number of k-points >= 100: set verbosity='high' to print them.

     Dense  grid:    47447 G-vectors     FFT dimensions: (  60,  60,  60)

     Smooth grid:    12039 G-vectors     FFT dimensions: (  32,  32,  32)

     Estimated max dynamical RAM per process >     159.20 MB

     The potential is recalculated from file :
     ./_ph0/Si_minus5.save/charge-density

     Starting wfcs are    8 atomic wfcs

     Band Structure Calculation
     Davidson diagonalization with overlap

     ethr =  1.25E-10,  avg # of iterations = 13.2

     total cpu time spent up to now is       58.5 secs

     End of band structure calculation

     Number of k-points >= 100: set verbosity='high' to print the bands.

     highest occupied level (ev):     6.7744

     Writing config to output data dir ./_ph0/Si_minus5.save/

     Phonons of Si                                                              

     bravais-lattice index     =            2
     lattice parameter (alat)  =      10.0213  a.u.
     unit-cell volume          =     251.6009 (a.u.)^3
     number of atoms/cell      =            2
     number of atomic types    =            1
     kinetic-energy cut-off    =      50.0000  Ry
     charge density cut-off    =     500.0000  Ry
     convergence threshold     =      1.0E-16
     beta                      =       0.7000
     number of iterations used =            4
     Exchange-correlation= PZ
                           (   1   1   0   0   0   0   0)


     celldm(1)=   10.02130  celldm(2)=    0.00000  celldm(3)=    0.00000
     celldm(4)=    0.00000  celldm(5)=    0.00000  celldm(6)=    0.00000

     crystal axes: (cart. coord. in units of alat)
               a(1) = ( -0.5000  0.0000  0.5000 )  
               a(2) = (  0.0000  0.5000  0.5000 )  
               a(3) = ( -0.5000  0.5000  0.0000 )  

     reciprocal axes: (cart. coord. in units 2 pi/alat)
               b(1) = ( -1.0000 -1.0000  1.0000 )  
               b(2) = (  1.0000  1.0000  1.0000 )  
               b(3) = ( -1.0000  1.0000 -1.0000 )  


     Atoms inside the unit cell: 

     Cartesian axes

     site n.  atom      mass           positions (alat units)
        1     Si  28.0855   tau(    1) = (    0.00000    0.00000    0.00000  )
        2     Si  28.0855   tau(    2) = (   -0.25000    0.25000    0.25000  )

     Computing dynamical matrix for 
                    q = (   0.5000000  -0.5000000   0.5000000 )
 
     13 Sym.Ops. (with q -> -q+G )


     G cutoff = 1271.9159  (  47447 G-vectors)     FFT grid: ( 60, 60, 60)
     G cutoff =  508.7664  (  12039 G-vectors)  smooth grid: ( 32, 32, 32)
     number of k points=   170

     PseudoPot. # 1 for Si read from file:
     ./Si_LDA.UPF
     MD5 check sum: b5ade7b37ee992b02096e360e546dc2d
     Pseudo is Ultrasoft + core correction, Zval =  4.0
     Generated by new atomic code, or converted to UPF format
     Using radial grid of  899 points,  6 beta functions with: 
                l(1) =   0
                l(2) =   0
                l(3) =   1
                l(4) =   1
                l(5) =   2
                l(6) =   2
     Q(r) pseudized with  8 coefficients,  rinner =    0.900   0.900   0.900
                                                       0.900   0.900


     Atomic displacements:
     There are    4 irreducible representations

     Representation     1      1 modes -  To be done

     Representation     2      1 modes -  To be done

     Representation     3      2 modes -  To be done

     Representation     4      2 modes -  To be done



     Alpha used in Ewald sum =   2.8000
     PHONON       :  17m 8.98s CPU  18m15.12s WALL



     Representation #   1 mode #   1

     Self-consistent Calculation

      iter #   1 total cpu time :  1102.2 secs   av.it.:   5.2
      thresh= 1.000E-02 alpha_mix =  0.700 |ddv_scf|^2 =  1.019E-06

      iter #   2 total cpu time :  1111.8 secs   av.it.:  11.0
      thresh= 1.009E-04 alpha_mix =  0.700 |ddv_scf|^2 =  9.477E-07

      iter #   3 total cpu time :  1121.0 secs   av.it.:  10.3
      thresh= 9.735E-05 alpha_mix =  0.700 |ddv_scf|^2 =  3.727E-10

      iter #   4 total cpu time :  1130.4 secs   av.it.:  10.6
      thresh= 1.931E-06 alpha_mix =  0.700 |ddv_scf|^2 =  4.190E-12

      iter #   5 total cpu time :  1139.7 secs   av.it.:  10.4
      thresh= 2.047E-07 alpha_mix =  0.700 |ddv_scf|^2 =  3.654E-14

      iter #   6 total cpu time :  1149.2 secs   av.it.:  10.8
      thresh= 1.912E-08 alpha_mix =  0.700 |ddv_scf|^2 =  5.147E-16

      iter #   7 total cpu time :  1158.6 secs   av.it.:  10.7
      thresh= 2.269E-09 alpha_mix =  0.700 |ddv_scf|^2 =  3.182E-18

     End of self-consistent calculation

     Convergence has been achieved 


     Representation #   2 mode #   2

     Self-consistent Calculation

      iter #   1 total cpu time :  1166.7 secs   av.it.:   6.1
      thresh= 1.000E-02 alpha_mix =  0.700 |ddv_scf|^2 =  1.459E-05

      iter #   2 total cpu time :  1176.2 secs   av.it.:  10.9
      thresh= 3.820E-04 alpha_mix =  0.700 |ddv_scf|^2 =  4.613E-05

      iter #   3 total cpu time :  1185.3 secs   av.it.:   9.7
      thresh= 6.792E-04 alpha_mix =  0.700 |ddv_scf|^2 =  2.510E-09

      iter #   4 total cpu time :  1194.8 secs   av.it.:  10.8
      thresh= 5.010E-06 alpha_mix =  0.700 |ddv_scf|^2 =  9.777E-11

      iter #   5 total cpu time :  1204.5 secs   av.it.:  11.1
      thresh= 9.888E-07 alpha_mix =  0.700 |ddv_scf|^2 =  2.626E-12

      iter #   6 total cpu time :  1214.3 secs   av.it.:  11.0
      thresh= 1.621E-07 alpha_mix =  0.700 |ddv_scf|^2 =  1.252E-13

      iter #   7 total cpu time :  1223.7 secs   av.it.:  10.5
      thresh= 3.539E-08 alpha_mix =  0.700 |ddv_scf|^2 =  2.315E-17

     End of self-consistent calculation

     Convergence has been achieved 


     Representation #   3 modes #   3   4

     Self-consistent Calculation

      iter #   1 total cpu time :  1237.1 secs   av.it.:   5.4
      thresh= 1.000E-02 alpha_mix =  0.700 |ddv_scf|^2 =  3.054E-08

      iter #   2 total cpu time :  1256.1 secs   av.it.:  12.2
      thresh= 1.748E-05 alpha_mix =  0.700 |ddv_scf|^2 =  2.448E-09

      iter #   3 total cpu time :  1274.8 secs   av.it.:  11.9
      thresh= 4.947E-06 alpha_mix =  0.700 |ddv_scf|^2 =  4.227E-11

      iter #   4 total cpu time :  1293.3 secs   av.it.:  11.6
      thresh= 6.502E-07 alpha_mix =  0.700 |ddv_scf|^2 =  3.220E-14

      iter #   5 total cpu time :  1312.3 secs   av.it.:  12.1
      thresh= 1.794E-08 alpha_mix =  0.700 |ddv_scf|^2 =  4.786E-16

      iter #   6 total cpu time :  1331.2 secs   av.it.:  12.0
      thresh= 2.188E-09 alpha_mix =  0.700 |ddv_scf|^2 =  5.325E-18

     End of self-consistent calculation

     Convergence has been achieved 


     Representation #   4 modes #   5   6

     Self-consistent Calculation

      iter #   1 total cpu time :  1344.4 secs   av.it.:   5.2
      thresh= 1.000E-02 alpha_mix =  0.700 |ddv_scf|^2 =  5.173E-09

      iter #   2 total cpu time :  1363.6 secs   av.it.:  12.3
      thresh= 7.192E-06 alpha_mix =  0.700 |ddv_scf|^2 =  2.328E-10

      iter #   3 total cpu time :  1382.6 secs   av.it.:  12.2
      thresh= 1.526E-06 alpha_mix =  0.700 |ddv_scf|^2 =  9.222E-12

      iter #   4 total cpu time :  1401.7 secs   av.it.:  12.2
      thresh= 3.037E-07 alpha_mix =  0.700 |ddv_scf|^2 =  4.022E-14

      iter #   5 total cpu time :  1420.7 secs   av.it.:  12.2
      thresh= 2.006E-08 alpha_mix =  0.700 |ddv_scf|^2 =  5.631E-16

      iter #   6 total cpu time :  1440.0 secs   av.it.:  12.4
      thresh= 2.373E-09 alpha_mix =  0.700 |ddv_scf|^2 =  1.660E-18

     End of self-consistent calculation

     Convergence has been achieved 
 
     Number of q in the star =    4
     List of q in the star:
          1   0.500000000  -0.500000000   0.500000000
          2   0.500000000   0.500000000   0.500000000
          3  -0.500000000   0.500000000   0.500000000
          4   0.500000000   0.500000000  -0.500000000

     Diagonalizing the dynamical matrix

     q = (    0.500000000  -0.500000000   0.500000000 ) 

 **************************************************************************
     freq (    1) =       2.721194 [THz] =      90.769272 [cm-1]
     freq (    2) =       2.721194 [THz] =      90.769272 [cm-1]
     freq (    3) =      11.359048 [THz] =     378.897053 [cm-1]
     freq (    4) =      13.484606 [THz] =     449.798025 [cm-1]
     freq (    5) =      15.706335 [THz] =     523.906958 [cm-1]
     freq (    6) =      15.706335 [THz] =     523.906958 [cm-1]
 **************************************************************************

     Calculation of q =    0.0000000   0.5000000   0.0000000
 
     G-vector sticks info
     --------------------
     sticks:   dense  smooth     PW     G-vecs:    dense   smooth      PW
     Sum        1735     685    235                47447    12039    2277
 
     Using Slab Decomposition
 

     Title: 
     Phonons of Si                                                              


     bravais-lattice index     =            2
     lattice parameter (alat)  =      10.0213  a.u.
     unit-cell volume          =     251.6009 (a.u.)^3
     number of atoms/cell      =            2
     number of atomic types    =            1
     number of electrons       =         8.00
     number of Kohn-Sham states=            4
     kinetic-energy cutoff     =      50.0000  Ry
     charge density cutoff     =     500.0000  Ry
     Exchange-correlation= PZ
                           (   1   1   0   0   0   0   0)

     celldm(1)=  10.021300  celldm(2)=   0.000000  celldm(3)=   0.000000
     celldm(4)=   0.000000  celldm(5)=   0.000000  celldm(6)=   0.000000

     crystal axes: (cart. coord. in units of alat)
               a(1) = (  -0.500000   0.000000   0.500000 )  
               a(2) = (   0.000000   0.500000   0.500000 )  
               a(3) = (  -0.500000   0.500000   0.000000 )  

     reciprocal axes: (cart. coord. in units 2 pi/alat)
               b(1) = ( -1.000000 -1.000000  1.000000 )  
               b(2) = (  1.000000  1.000000  1.000000 )  
               b(3) = ( -1.000000  1.000000 -1.000000 )  


     PseudoPot. # 1 for Si read from file:
     ./Si_LDA.UPF
     MD5 check sum: b5ade7b37ee992b02096e360e546dc2d
     Pseudo is Ultrasoft + core correction, Zval =  4.0
     Generated by new atomic code, or converted to UPF format
     Using radial grid of  899 points,  6 beta functions with: 
                l(1) =   0
                l(2) =   0
                l(3) =   1
                l(4) =   1
                l(5) =   2
                l(6) =   2
     Q(r) pseudized with  8 coefficients,  rinner =    0.900   0.900   0.900
                                                       0.900   0.900

     atomic species   valence    mass     pseudopotential
        Si             4.00    28.08550     Si( 1.00)

     48 Sym. Ops., with inversion, found



   Cartesian axes

     site n.     atom                  positions (alat units)
         1           Si  tau(   1) = (   0.0000000   0.0000000   0.0000000  )
         2           Si  tau(   2) = (  -0.2500000   0.2500000   0.2500000  )

     number of k points=   270

     Number of k-points >= 100: set verbosity='high' to print them.

     Dense  grid:    47447 G-vectors     FFT dimensions: (  60,  60,  60)

     Smooth grid:    12039 G-vectors     FFT dimensions: (  32,  32,  32)

     Estimated max dynamical RAM per process >     159.18 MB

     The potential is recalculated from file :
     ./_ph0/Si_minus5.save/charge-density

     Starting wfcs are    8 atomic wfcs

     Band Structure Calculation
     Davidson diagonalization with overlap

     ethr =  1.25E-10,  avg # of iterations = 13.2

     total cpu time spent up to now is       87.8 secs

     End of band structure calculation

     Number of k-points >= 100: set verbosity='high' to print the bands.

     highest occupied level (ev):     6.7744

     Writing config to output data dir ./_ph0/Si_minus5.save/

     Phonons of Si                                                              

     bravais-lattice index     =            2
     lattice parameter (alat)  =      10.0213  a.u.
     unit-cell volume          =     251.6009 (a.u.)^3
     number of atoms/cell      =            2
     number of atomic types    =            1
     kinetic-energy cut-off    =      50.0000  Ry
     charge density cut-off    =     500.0000  Ry
     convergence threshold     =      1.0E-16
     beta                      =       0.7000
     number of iterations used =            4
     Exchange-correlation= PZ
                           (   1   1   0   0   0   0   0)


     celldm(1)=   10.02130  celldm(2)=    0.00000  celldm(3)=    0.00000
     celldm(4)=    0.00000  celldm(5)=    0.00000  celldm(6)=    0.00000

     crystal axes: (cart. coord. in units of alat)
               a(1) = ( -0.5000  0.0000  0.5000 )  
               a(2) = (  0.0000  0.5000  0.5000 )  
               a(3) = ( -0.5000  0.5000  0.0000 )  

     reciprocal axes: (cart. coord. in units 2 pi/alat)
               b(1) = ( -1.0000 -1.0000  1.0000 )  
               b(2) = (  1.0000  1.0000  1.0000 )  
               b(3) = ( -1.0000  1.0000 -1.0000 )  


     Atoms inside the unit cell: 

     Cartesian axes

     site n.  atom      mass           positions (alat units)
        1     Si  28.0855   tau(    1) = (    0.00000    0.00000    0.00000  )
        2     Si  28.0855   tau(    2) = (   -0.25000    0.25000    0.25000  )

     Computing dynamical matrix for 
                    q = (   0.0000000   0.5000000   0.0000000 )
 
      8 Sym.Ops. (no q -> -q+G )


     G cutoff = 1271.9159  (  47447 G-vectors)     FFT grid: ( 60, 60, 60)
     G cutoff =  508.7664  (  12039 G-vectors)  smooth grid: ( 32, 32, 32)
     number of k points=   270

     PseudoPot. # 1 for Si read from file:
     ./Si_LDA.UPF
     MD5 check sum: b5ade7b37ee992b02096e360e546dc2d
     Pseudo is Ultrasoft + core correction, Zval =  4.0
     Generated by new atomic code, or converted to UPF format
     Using radial grid of  899 points,  6 beta functions with: 
                l(1) =   0
                l(2) =   0
                l(3) =   1
                l(4) =   1
                l(5) =   2
                l(6) =   2
     Q(r) pseudized with  8 coefficients,  rinner =    0.900   0.900   0.900
                                                       0.900   0.900

     Mode symmetry, C_4v (4mm)  point group:


     Atomic displacements:
     There are    4 irreducible representations

     Representation     1      1 modes -  To be done

     Representation     2      1 modes -  To be done

     Representation     3      2 modes -  To be done

     Representation     4      2 modes -  To be done



     Alpha used in Ewald sum =   2.8000
     PHONON       :  23m19.93s CPU  24m49.00s WALL



     Representation #   1 mode #   1

     Self-consistent Calculation

      iter #   1 total cpu time :  1499.3 secs   av.it.:   6.2
      thresh= 1.000E-02 alpha_mix =  0.700 |ddv_scf|^2 =  1.278E-04

      iter #   2 total cpu time :  1512.2 secs   av.it.:  10.1
      thresh= 1.130E-03 alpha_mix =  0.700 |ddv_scf|^2 =  1.747E-03

      iter #   3 total cpu time :  1523.7 secs   av.it.:   8.3
      thresh= 4.180E-03 alpha_mix =  0.700 |ddv_scf|^2 =  1.385E-09

      iter #   4 total cpu time :  1537.1 secs   av.it.:  10.8
      thresh= 3.722E-06 alpha_mix =  0.700 |ddv_scf|^2 =  3.641E-10

      iter #   5 total cpu time :  1550.0 secs   av.it.:  10.2
      thresh= 1.908E-06 alpha_mix =  0.700 |ddv_scf|^2 =  3.995E-11

      iter #   6 total cpu time :  1562.7 secs   av.it.:   9.9
      thresh= 6.321E-07 alpha_mix =  0.700 |ddv_scf|^2 =  8.402E-14

      iter #   7 total cpu time :  1575.5 secs   av.it.:  10.1
      thresh= 2.899E-08 alpha_mix =  0.700 |ddv_scf|^2 =  5.467E-15

      iter #   8 total cpu time :  1587.4 secs   av.it.:   8.9
      thresh= 7.394E-09 alpha_mix =  0.700 |ddv_scf|^2 =  1.841E-18

     End of self-consistent calculation

     Convergence has been achieved 


     Representation #   2 mode #   2

     Self-consistent Calculation

      iter #   1 total cpu time :  1597.6 secs   av.it.:   5.4
      thresh= 1.000E-02 alpha_mix =  0.700 |ddv_scf|^2 =  1.834E-07

      iter #   2 total cpu time :  1611.3 secs   av.it.:  11.2
      thresh= 4.283E-05 alpha_mix =  0.700 |ddv_scf|^2 =  4.877E-08

      iter #   3 total cpu time :  1624.6 secs   av.it.:  10.7
      thresh= 2.208E-05 alpha_mix =  0.700 |ddv_scf|^2 =  3.273E-10

      iter #   4 total cpu time :  1638.2 secs   av.it.:  10.9
      thresh= 1.809E-06 alpha_mix =  0.700 |ddv_scf|^2 =  1.493E-11

      iter #   5 total cpu time :  1651.7 secs   av.it.:  10.9
      thresh= 3.864E-07 alpha_mix =  0.700 |ddv_scf|^2 =  2.903E-14

      iter #   6 total cpu time :  1665.3 secs   av.it.:  11.1
      thresh= 1.704E-08 alpha_mix =  0.700 |ddv_scf|^2 =  8.190E-16

      iter #   7 total cpu time :  1678.6 secs   av.it.:  10.7
      thresh= 2.862E-09 alpha_mix =  0.700 |ddv_scf|^2 =  1.261E-17

     End of self-consistent calculation

     Convergence has been achieved 


     Representation #   3 modes #   3   4

     Self-consistent Calculation

      iter #   1 total cpu time :  1697.1 secs   av.it.:   5.5
      thresh= 1.000E-02 alpha_mix =  0.700 |ddv_scf|^2 =  2.543E-08

      iter #   2 total cpu time :  1725.1 secs   av.it.:  12.4
      thresh= 1.595E-05 alpha_mix =  0.700 |ddv_scf|^2 =  3.536E-09

      iter #   3 total cpu time :  1752.6 secs   av.it.:  12.0
      thresh= 5.946E-06 alpha_mix =  0.700 |ddv_scf|^2 =  4.785E-11

      iter #   4 total cpu time :  1780.1 secs   av.it.:  12.0
      thresh= 6.918E-07 alpha_mix =  0.700 |ddv_scf|^2 =  1.040E-13

      iter #   5 total cpu time :  1808.0 secs   av.it.:  12.3
      thresh= 3.225E-08 alpha_mix =  0.700 |ddv_scf|^2 =  2.248E-15

      iter #   6 total cpu time :  1836.0 secs   av.it.:  12.5
      thresh= 4.741E-09 alpha_mix =  0.700 |ddv_scf|^2 =  2.103E-17

     End of self-consistent calculation

     Convergence has been achieved 


     Representation #   4 modes #   5   6

     Self-consistent Calculation

      iter #   1 total cpu time :  1854.7 secs   av.it.:   5.6
      thresh= 1.000E-02 alpha_mix =  0.700 |ddv_scf|^2 =  3.707E-08

      iter #   2 total cpu time :  1882.6 secs   av.it.:  12.4
      thresh= 1.925E-05 alpha_mix =  0.700 |ddv_scf|^2 =  5.245E-09

      iter #   3 total cpu time :  1910.2 secs   av.it.:  12.0
      thresh= 7.242E-06 alpha_mix =  0.700 |ddv_scf|^2 =  5.023E-11

      iter #   4 total cpu time :  1937.8 secs   av.it.:  12.0
      thresh= 7.087E-07 alpha_mix =  0.700 |ddv_scf|^2 =  9.566E-14

      iter #   5 total cpu time :  1965.7 secs   av.it.:  12.4
      thresh= 3.093E-08 alpha_mix =  0.700 |ddv_scf|^2 =  2.258E-15

      iter #   6 total cpu time :  1993.8 secs   av.it.:  12.5
      thresh= 4.751E-09 alpha_mix =  0.700 |ddv_scf|^2 =  1.948E-17

     End of self-consistent calculation

     Convergence has been achieved 
 
     Number of q in the star =    6
     List of q in the star:
          1   0.000000000   0.500000000   0.000000000
          2   0.000000000  -0.500000000   0.000000000
          3   0.500000000   0.000000000   0.000000000
          4   0.000000000   0.000000000   0.500000000
          5   0.000000000   0.000000000  -0.500000000
          6  -0.500000000   0.000000000   0.000000000

     Diagonalizing the dynamical matrix

     q = (    0.000000000   0.500000000   0.000000000 ) 

 **************************************************************************
     freq (    1) =       3.474433 [THz] =     115.894627 [cm-1]
     freq (    2) =       3.474433 [THz] =     115.894627 [cm-1]
     freq (    3) =       7.614487 [THz] =     253.991962 [cm-1]
     freq (    4) =      15.246731 [THz] =     508.576194 [cm-1]
     freq (    5) =      15.246731 [THz] =     508.576194 [cm-1]
     freq (    6) =      15.582292 [THz] =     519.769303 [cm-1]
 **************************************************************************

     Mode symmetry, C_4v (4mm)  point group:

     freq (   1-   2) =        115.9  [cm-1]   --> E    G_5 D_5       
     freq (   3-   3) =        254.0  [cm-1]   --> A_1  G_1 D_1       
     freq (   4-   5) =        508.6  [cm-1]   --> E    G_5 D_5       
     freq (   6-   6) =        519.8  [cm-1]   --> B_2  G_4 D_2'      

     Calculation of q =    0.7500000  -0.2500000   0.7500000
 
     G-vector sticks info
     --------------------
     sticks:   dense  smooth     PW     G-vecs:    dense   smooth      PW
     Sum        1735     685    253                47447    12039    2685
 
     Using Slab Decomposition
 

     Title: 
     Phonons of Si                                                              


     bravais-lattice index     =            2
     lattice parameter (alat)  =      10.0213  a.u.
     unit-cell volume          =     251.6009 (a.u.)^3
     number of atoms/cell      =            2
     number of atomic types    =            1
     number of electrons       =         8.00
     number of Kohn-Sham states=            4
     kinetic-energy cutoff     =      50.0000  Ry
     charge density cutoff     =     500.0000  Ry
     Exchange-correlation= PZ
                           (   1   1   0   0   0   0   0)

     celldm(1)=  10.021300  celldm(2)=   0.000000  celldm(3)=   0.000000
     celldm(4)=   0.000000  celldm(5)=   0.000000  celldm(6)=   0.000000

     crystal axes: (cart. coord. in units of alat)
               a(1) = (  -0.500000   0.000000   0.500000 )  
               a(2) = (   0.000000   0.500000   0.500000 )  
               a(3) = (  -0.500000   0.500000   0.000000 )  

     reciprocal axes: (cart. coord. in units 2 pi/alat)
               b(1) = ( -1.000000 -1.000000  1.000000 )  
               b(2) = (  1.000000  1.000000  1.000000 )  
               b(3) = ( -1.000000  1.000000 -1.000000 )  


     PseudoPot. # 1 for Si read from file:
     ./Si_LDA.UPF
     MD5 check sum: b5ade7b37ee992b02096e360e546dc2d
     Pseudo is Ultrasoft + core correction, Zval =  4.0
     Generated by new atomic code, or converted to UPF format
     Using radial grid of  899 points,  6 beta functions with: 
                l(1) =   0
                l(2) =   0
                l(3) =   1
                l(4) =   1
                l(5) =   2
                l(6) =   2
     Q(r) pseudized with  8 coefficients,  rinner =    0.900   0.900   0.900
                                                       0.900   0.900

     atomic species   valence    mass     pseudopotential
        Si             4.00    28.08550     Si( 1.00)

     48 Sym. Ops., with inversion, found



   Cartesian axes

     site n.     atom                  positions (alat units)
         1           Si  tau(   1) = (   0.0000000   0.0000000   0.0000000  )
         2           Si  tau(   2) = (  -0.2500000   0.2500000   0.2500000  )

     number of k points=   810

     Number of k-points >= 100: set verbosity='high' to print them.

     Dense  grid:    47447 G-vectors     FFT dimensions: (  60,  60,  60)

     Smooth grid:    12039 G-vectors     FFT dimensions: (  32,  32,  32)

     Estimated max dynamical RAM per process >     159.21 MB

     The potential is recalculated from file :
     ./_ph0/Si_minus5.save/charge-density

     Starting wfcs are    8 atomic wfcs

     Band Structure Calculation
     Davidson diagonalization with overlap

     ethr =  1.25E-10,  avg # of iterations = 13.2

     total cpu time spent up to now is      175.9 secs

     End of band structure calculation

     Number of k-points >= 100: set verbosity='high' to print the bands.

     highest occupied level (ev):     6.7744

     Writing config to output data dir ./_ph0/Si_minus5.save/

     Phonons of Si                                                              

     bravais-lattice index     =            2
     lattice parameter (alat)  =      10.0213  a.u.
     unit-cell volume          =     251.6009 (a.u.)^3
     number of atoms/cell      =            2
     number of atomic types    =            1
     kinetic-energy cut-off    =      50.0000  Ry
     charge density cut-off    =     500.0000  Ry
     convergence threshold     =      1.0E-16
     beta                      =       0.7000
     number of iterations used =            4
     Exchange-correlation= PZ
                           (   1   1   0   0   0   0   0)


     celldm(1)=   10.02130  celldm(2)=    0.00000  celldm(3)=    0.00000
     celldm(4)=    0.00000  celldm(5)=    0.00000  celldm(6)=    0.00000

     crystal axes: (cart. coord. in units of alat)
               a(1) = ( -0.5000  0.0000  0.5000 )  
               a(2) = (  0.0000  0.5000  0.5000 )  
               a(3) = ( -0.5000  0.5000  0.0000 )  

     reciprocal axes: (cart. coord. in units 2 pi/alat)
               b(1) = ( -1.0000 -1.0000  1.0000 )  
               b(2) = (  1.0000  1.0000  1.0000 )  
               b(3) = ( -1.0000  1.0000 -1.0000 )  


     Atoms inside the unit cell: 

     Cartesian axes

     site n.  atom      mass           positions (alat units)
        1     Si  28.0855   tau(    1) = (    0.00000    0.00000    0.00000  )
        2     Si  28.0855   tau(    2) = (   -0.25000    0.25000    0.25000  )

     Computing dynamical matrix for 
                    q = (   0.7500000  -0.2500000   0.7500000 )
 
      2 Sym.Ops. (no q -> -q+G )


     G cutoff = 1271.9159  (  47447 G-vectors)     FFT grid: ( 60, 60, 60)
     G cutoff =  508.7664  (  12039 G-vectors)  smooth grid: ( 32, 32, 32)
     number of k points=   810

     PseudoPot. # 1 for Si read from file:
     ./Si_LDA.UPF
     MD5 check sum: b5ade7b37ee992b02096e360e546dc2d
     Pseudo is Ultrasoft + core correction, Zval =  4.0
     Generated by new atomic code, or converted to UPF format
     Using radial grid of  899 points,  6 beta functions with: 
                l(1) =   0
                l(2) =   0
                l(3) =   1
                l(4) =   1
                l(5) =   2
                l(6) =   2
     Q(r) pseudized with  8 coefficients,  rinner =    0.900   0.900   0.900
                                                       0.900   0.900

     Mode symmetry, C_s (m)     point group:


     Atomic displacements:
     There are    6 irreducible representations

     Representation     1      1 modes -  To be done

     Representation     2      1 modes -  To be done

     Representation     3      1 modes -  To be done

     Representation     4      1 modes -  To be done

     Representation     5      1 modes -  To be done

     Representation     6      1 modes -  To be done



     Alpha used in Ewald sum =   2.8000
     PHONON       :  33m 3.68s CPU  35m13.68s WALL



     Representation #   1 mode #   1

     Self-consistent Calculation

      iter #   1 total cpu time :  2138.9 secs   av.it.:   6.0
      thresh= 1.000E-02 alpha_mix =  0.700 |ddv_scf|^2 =  5.195E-06

      iter #   2 total cpu time :  2176.1 secs   av.it.:  11.6
      thresh= 2.279E-04 alpha_mix =  0.700 |ddv_scf|^2 =  1.520E-05

      iter #   3 total cpu time :  2210.4 secs   av.it.:  10.4
      thresh= 3.899E-04 alpha_mix =  0.700 |ddv_scf|^2 =  5.669E-08

      iter #   4 total cpu time :  2246.3 secs   av.it.:  11.0
      thresh= 2.381E-05 alpha_mix =  0.700 |ddv_scf|^2 =  4.573E-10

      iter #   5 total cpu time :  2283.3 secs   av.it.:  11.5
      thresh= 2.138E-06 alpha_mix =  0.700 |ddv_scf|^2 =  6.058E-11

      iter #   6 total cpu time :  2320.3 secs   av.it.:  11.5
      thresh= 7.783E-07 alpha_mix =  0.700 |ddv_scf|^2 =  1.413E-12

      iter #   7 total cpu time :  2357.3 secs   av.it.:  11.6
      thresh= 1.189E-07 alpha_mix =  0.700 |ddv_scf|^2 =  3.227E-14

      iter #   8 total cpu time :  2395.0 secs   av.it.:  11.8
      thresh= 1.796E-08 alpha_mix =  0.700 |ddv_scf|^2 =  2.125E-14

      iter #   9 total cpu time :  2430.9 secs   av.it.:  11.0
      thresh= 1.458E-08 alpha_mix =  0.700 |ddv_scf|^2 =  5.900E-15

      iter #  10 total cpu time :  2466.2 secs   av.it.:  10.9
      thresh= 7.681E-09 alpha_mix =  0.700 |ddv_scf|^2 =  2.385E-16

      iter #  11 total cpu time :  2502.5 secs   av.it.:  11.2
      thresh= 1.544E-09 alpha_mix =  0.700 |ddv_scf|^2 =  5.382E-17

     End of self-consistent calculation

     Convergence has been achieved 


     Representation #   2 mode #   2

     Self-consistent Calculation

      iter #   1 total cpu time :  2529.1 secs   av.it.:   6.0
      thresh= 1.000E-02 alpha_mix =  0.700 |ddv_scf|^2 =  3.494E-06

      iter #   2 total cpu time :  2566.4 secs   av.it.:  11.7
      thresh= 1.869E-04 alpha_mix =  0.700 |ddv_scf|^2 =  1.016E-05

      iter #   3 total cpu time :  2600.7 secs   av.it.:  10.4
      thresh= 3.188E-04 alpha_mix =  0.700 |ddv_scf|^2 =  3.594E-08

      iter #   4 total cpu time :  2637.1 secs   av.it.:  11.2
      thresh= 1.896E-05 alpha_mix =  0.700 |ddv_scf|^2 =  6.983E-10

      iter #   5 total cpu time :  2674.1 secs   av.it.:  11.5
      thresh= 2.643E-06 alpha_mix =  0.700 |ddv_scf|^2 =  1.139E-10

      iter #   6 total cpu time :  2710.8 secs   av.it.:  11.4
      thresh= 1.067E-06 alpha_mix =  0.700 |ddv_scf|^2 =  2.306E-12

      iter #   7 total cpu time :  2748.0 secs   av.it.:  11.6
      thresh= 1.519E-07 alpha_mix =  0.700 |ddv_scf|^2 =  6.265E-14

      iter #   8 total cpu time :  2785.6 secs   av.it.:  11.7
      thresh= 2.503E-08 alpha_mix =  0.700 |ddv_scf|^2 =  1.382E-14

      iter #   9 total cpu time :  2821.9 secs   av.it.:  11.2
      thresh= 1.176E-08 alpha_mix =  0.700 |ddv_scf|^2 =  5.580E-15

      iter #  10 total cpu time :  2858.0 secs   av.it.:  11.1
      thresh= 7.470E-09 alpha_mix =  0.700 |ddv_scf|^2 =  5.410E-16

      iter #  11 total cpu time :  2894.3 secs   av.it.:  11.2
      thresh= 2.326E-09 alpha_mix =  0.700 |ddv_scf|^2 =  5.756E-17

     End of self-consistent calculation

     Convergence has been achieved 


     Representation #   3 mode #   3

     Self-consistent Calculation

      iter #   1 total cpu time :  2920.6 secs   av.it.:   5.9
      thresh= 1.000E-02 alpha_mix =  0.700 |ddv_scf|^2 =  2.678E-06

      iter #   2 total cpu time :  2957.9 secs   av.it.:  11.6
      thresh= 1.637E-04 alpha_mix =  0.700 |ddv_scf|^2 =  6.939E-06

      iter #   3 total cpu time :  2992.3 secs   av.it.:  10.4
      thresh= 2.634E-04 alpha_mix =  0.700 |ddv_scf|^2 =  6.643E-08

      iter #   4 total cpu time :  3028.1 secs   av.it.:  11.0
      thresh= 2.577E-05 alpha_mix =  0.700 |ddv_scf|^2 =  7.564E-10

      iter #   5 total cpu time :  3065.0 secs   av.it.:  11.4
      thresh= 2.750E-06 alpha_mix =  0.700 |ddv_scf|^2 =  1.292E-10

      iter #   6 total cpu time :  3101.7 secs   av.it.:  11.4
      thresh= 1.137E-06 alpha_mix =  0.700 |ddv_scf|^2 =  8.099E-13

      iter #   7 total cpu time :  3139.0 secs   av.it.:  11.7
      thresh= 8.999E-08 alpha_mix =  0.700 |ddv_scf|^2 =  4.485E-14

      iter #   8 total cpu time :  3176.2 secs   av.it.:  11.6
      thresh= 2.118E-08 alpha_mix =  0.700 |ddv_scf|^2 =  1.418E-14

      iter #   9 total cpu time :  3212.3 secs   av.it.:  11.1
      thresh= 1.191E-08 alpha_mix =  0.700 |ddv_scf|^2 =  4.219E-15

      iter #  10 total cpu time :  3247.6 secs   av.it.:  10.8
      thresh= 6.496E-09 alpha_mix =  0.700 |ddv_scf|^2 =  1.457E-16

      iter #  11 total cpu time :  3284.2 secs   av.it.:  11.3
      thresh= 1.207E-09 alpha_mix =  0.700 |ddv_scf|^2 =  3.700E-17

     End of self-consistent calculation

     Convergence has been achieved 


     Representation #   4 mode #   4

     Self-consistent Calculation

      iter #   1 total cpu time :  3310.3 secs   av.it.:   5.8
      thresh= 1.000E-02 alpha_mix =  0.700 |ddv_scf|^2 =  9.734E-07

      iter #   2 total cpu time :  3347.7 secs   av.it.:  11.8
      thresh= 9.866E-05 alpha_mix =  0.700 |ddv_scf|^2 =  1.879E-06

      iter #   3 total cpu time :  3382.6 secs   av.it.:  10.7
      thresh= 1.371E-04 alpha_mix =  0.700 |ddv_scf|^2 =  5.218E-08

      iter #   4 total cpu time :  3418.7 secs   av.it.:  11.1
      thresh= 2.284E-05 alpha_mix =  0.700 |ddv_scf|^2 =  7.463E-10

      iter #   5 total cpu time :  3455.6 secs   av.it.:  11.5
      thresh= 2.732E-06 alpha_mix =  0.700 |ddv_scf|^2 =  1.633E-10

      iter #   6 total cpu time :  3492.2 secs   av.it.:  11.4
      thresh= 1.278E-06 alpha_mix =  0.700 |ddv_scf|^2 =  1.992E-12

      iter #   7 total cpu time :  3529.5 secs   av.it.:  11.6
      thresh= 1.411E-07 alpha_mix =  0.700 |ddv_scf|^2 =  6.746E-14

      iter #   8 total cpu time :  3566.8 secs   av.it.:  11.7
      thresh= 2.597E-08 alpha_mix =  0.700 |ddv_scf|^2 =  7.004E-15

      iter #   9 total cpu time :  3603.5 secs   av.it.:  11.4
      thresh= 8.369E-09 alpha_mix =  0.700 |ddv_scf|^2 =  2.956E-15

      iter #  10 total cpu time :  3639.2 secs   av.it.:  11.0
      thresh= 5.436E-09 alpha_mix =  0.700 |ddv_scf|^2 =  1.893E-16

      iter #  11 total cpu time :  3675.9 secs   av.it.:  11.3
      thresh= 1.376E-09 alpha_mix =  0.700 |ddv_scf|^2 =  1.067E-17

     End of self-consistent calculation

     Convergence has been achieved 


     Representation #   5 mode #   5

     Self-consistent Calculation

      iter #   1 total cpu time :  3701.4 secs   av.it.:   5.5
      thresh= 1.000E-02 alpha_mix =  0.700 |ddv_scf|^2 =  1.518E-07

      iter #   2 total cpu time :  3738.4 secs   av.it.:  11.4
      thresh= 3.896E-05 alpha_mix =  0.700 |ddv_scf|^2 =  2.570E-08

      iter #   3 total cpu time :  3774.4 secs   av.it.:  11.1
      thresh= 1.603E-05 alpha_mix =  0.700 |ddv_scf|^2 =  2.094E-10

      iter #   4 total cpu time :  3810.7 secs   av.it.:  11.2
      thresh= 1.447E-06 alpha_mix =  0.700 |ddv_scf|^2 =  3.542E-13

      iter #   5 total cpu time :  3847.7 secs   av.it.:  11.4
      thresh= 5.952E-08 alpha_mix =  0.700 |ddv_scf|^2 =  7.054E-15

      iter #   6 total cpu time :  3885.2 secs   av.it.:  11.6
      thresh= 8.399E-09 alpha_mix =  0.700 |ddv_scf|^2 =  8.187E-17

     End of self-consistent calculation

     Convergence has been achieved 


     Representation #   6 mode #   6

     Self-consistent Calculation

      iter #   1 total cpu time :  3910.8 secs   av.it.:   5.5
      thresh= 1.000E-02 alpha_mix =  0.700 |ddv_scf|^2 =  1.518E-07

      iter #   2 total cpu time :  3948.8 secs   av.it.:  11.4
      thresh= 3.896E-05 alpha_mix =  0.700 |ddv_scf|^2 =  2.570E-08

      iter #   3 total cpu time :  3987.5 secs   av.it.:  11.1
      thresh= 1.603E-05 alpha_mix =  0.700 |ddv_scf|^2 =  2.094E-10

      iter #   4 total cpu time :  4023.7 secs   av.it.:  11.2
      thresh= 1.447E-06 alpha_mix =  0.700 |ddv_scf|^2 =  3.543E-13

      iter #   5 total cpu time :  4060.6 secs   av.it.:  11.4
      thresh= 5.952E-08 alpha_mix =  0.700 |ddv_scf|^2 =  7.050E-15

      iter #   6 total cpu time :  4097.8 secs   av.it.:  11.6
      thresh= 8.397E-09 alpha_mix =  0.700 |ddv_scf|^2 =  8.186E-17

     End of self-consistent calculation

     Convergence has been achieved 
 
     Number of q in the star =   24
     List of q in the star:
          1   0.750000000  -0.250000000   0.750000000
          2   0.750000000  -0.250000000  -0.750000000
          3  -0.750000000  -0.250000000  -0.750000000
          4  -0.750000000  -0.250000000   0.750000000
          5  -0.750000000   0.250000000  -0.750000000
          6  -0.250000000   0.750000000  -0.750000000
          7  -0.750000000   0.750000000  -0.250000000
          8   0.750000000   0.250000000   0.750000000
          9  -0.750000000   0.250000000   0.750000000
         10   0.750000000   0.250000000  -0.750000000
         11  -0.750000000   0.750000000   0.250000000
         12  -0.250000000   0.750000000   0.750000000
         13   0.250000000   0.750000000  -0.750000000
         14  -0.250000000  -0.750000000  -0.750000000
         15   0.750000000   0.750000000  -0.250000000
         16   0.750000000  -0.750000000   0.250000000
         17  -0.750000000  -0.750000000  -0.250000000
         18   0.250000000  -0.750000000   0.750000000
         19  -0.750000000  -0.750000000   0.250000000
         20   0.250000000   0.750000000   0.750000000
         21  -0.250000000  -0.750000000   0.750000000
         22   0.750000000   0.750000000   0.250000000
         23   0.250000000  -0.750000000  -0.750000000
         24   0.750000000  -0.750000000  -0.250000000

     Diagonalizing the dynamical matrix

     q = (    0.750000000  -0.250000000   0.750000000 ) 

 **************************************************************************
     freq (    1) =       3.600597 [THz] =     120.102979 [cm-1]
     freq (    2) =       5.630539 [THz] =     187.814550 [cm-1]
     freq (    3) =      10.008653 [THz] =     333.852718 [cm-1]
     freq (    4) =      13.250770 [THz] =     441.998096 [cm-1]
     freq (    5) =      15.113194 [THz] =     504.121885 [cm-1]
     freq (    6) =      15.500755 [THz] =     517.049522 [cm-1]
 **************************************************************************

     Mode symmetry, C_s (m)     point group:

     freq (   1-   1) =        120.1  [cm-1]   --> A''                
     freq (   2-   2) =        187.8  [cm-1]   --> A'                 
     freq (   3-   3) =        333.9  [cm-1]   --> A'                 
     freq (   4-   4) =        442.0  [cm-1]   --> A'                 
     freq (   5-   5) =        504.1  [cm-1]   --> A''                
     freq (   6-   6) =        517.0  [cm-1]   --> A'                 

     Calculation of q =    0.5000000   0.0000000   0.5000000
 
     G-vector sticks info
     --------------------
     sticks:   dense  smooth     PW     G-vecs:    dense   smooth      PW
     Sum        1735     685    241                47447    12039    2421
 
     Using Slab Decomposition
 

     Title: 
     Phonons of Si                                                              


     bravais-lattice index     =            2
     lattice parameter (alat)  =      10.0213  a.u.
     unit-cell volume          =     251.6009 (a.u.)^3
     number of atoms/cell      =            2
     number of atomic types    =            1
     number of electrons       =         8.00
     number of Kohn-Sham states=            4
     kinetic-energy cutoff     =      50.0000  Ry
     charge density cutoff     =     500.0000  Ry
     Exchange-correlation= PZ
                           (   1   1   0   0   0   0   0)

     celldm(1)=  10.021300  celldm(2)=   0.000000  celldm(3)=   0.000000
     celldm(4)=   0.000000  celldm(5)=   0.000000  celldm(6)=   0.000000

     crystal axes: (cart. coord. in units of alat)
               a(1) = (  -0.500000   0.000000   0.500000 )  
               a(2) = (   0.000000   0.500000   0.500000 )  
               a(3) = (  -0.500000   0.500000   0.000000 )  

     reciprocal axes: (cart. coord. in units 2 pi/alat)
               b(1) = ( -1.000000 -1.000000  1.000000 )  
               b(2) = (  1.000000  1.000000  1.000000 )  
               b(3) = ( -1.000000  1.000000 -1.000000 )  


     PseudoPot. # 1 for Si read from file:
     ./Si_LDA.UPF
     MD5 check sum: b5ade7b37ee992b02096e360e546dc2d
     Pseudo is Ultrasoft + core correction, Zval =  4.0
     Generated by new atomic code, or converted to UPF format
     Using radial grid of  899 points,  6 beta functions with: 
                l(1) =   0
                l(2) =   0
                l(3) =   1
                l(4) =   1
                l(5) =   2
                l(6) =   2
     Q(r) pseudized with  8 coefficients,  rinner =    0.900   0.900   0.900
                                                       0.900   0.900

     atomic species   valence    mass     pseudopotential
        Si             4.00    28.08550     Si( 1.00)

     48 Sym. Ops., with inversion, found



   Cartesian axes

     site n.     atom                  positions (alat units)
         1           Si  tau(   1) = (   0.0000000   0.0000000   0.0000000  )
         2           Si  tau(   2) = (  -0.2500000   0.2500000   0.2500000  )

     number of k points=   450

     Number of k-points >= 100: set verbosity='high' to print them.

     Dense  grid:    47447 G-vectors     FFT dimensions: (  60,  60,  60)

     Smooth grid:    12039 G-vectors     FFT dimensions: (  32,  32,  32)

     Estimated max dynamical RAM per process >     159.19 MB

     The potential is recalculated from file :
     ./_ph0/Si_minus5.save/charge-density

     Starting wfcs are    8 atomic wfcs

     Band Structure Calculation
     Davidson diagonalization with overlap

     ethr =  1.25E-10,  avg # of iterations = 13.2

     total cpu time spent up to now is      224.6 secs

     End of band structure calculation

     Number of k-points >= 100: set verbosity='high' to print the bands.

     highest occupied level (ev):     6.7744

     Writing config to output data dir ./_ph0/Si_minus5.save/

     Phonons of Si                                                              

     bravais-lattice index     =            2
     lattice parameter (alat)  =      10.0213  a.u.
     unit-cell volume          =     251.6009 (a.u.)^3
     number of atoms/cell      =            2
     number of atomic types    =            1
     kinetic-energy cut-off    =      50.0000  Ry
     charge density cut-off    =     500.0000  Ry
     convergence threshold     =      1.0E-16
     beta                      =       0.7000
     number of iterations used =            4
     Exchange-correlation= PZ
                           (   1   1   0   0   0   0   0)


     celldm(1)=   10.02130  celldm(2)=    0.00000  celldm(3)=    0.00000
     celldm(4)=    0.00000  celldm(5)=    0.00000  celldm(6)=    0.00000

     crystal axes: (cart. coord. in units of alat)
               a(1) = ( -0.5000  0.0000  0.5000 )  
               a(2) = (  0.0000  0.5000  0.5000 )  
               a(3) = ( -0.5000  0.5000  0.0000 )  

     reciprocal axes: (cart. coord. in units 2 pi/alat)
               b(1) = ( -1.0000 -1.0000  1.0000 )  
               b(2) = (  1.0000  1.0000  1.0000 )  
               b(3) = ( -1.0000  1.0000 -1.0000 )  


     Atoms inside the unit cell: 

     Cartesian axes

     site n.  atom      mass           positions (alat units)
        1     Si  28.0855   tau(    1) = (    0.00000    0.00000    0.00000  )
        2     Si  28.0855   tau(    2) = (   -0.25000    0.25000    0.25000  )

     Computing dynamical matrix for 
                    q = (   0.5000000   0.0000000   0.5000000 )
 
      4 Sym.Ops. (no q -> -q+G )


     G cutoff = 1271.9159  (  47447 G-vectors)     FFT grid: ( 60, 60, 60)
     G cutoff =  508.7664  (  12039 G-vectors)  smooth grid: ( 32, 32, 32)
     number of k points=   450

     PseudoPot. # 1 for Si read from file:
     ./Si_LDA.UPF
     MD5 check sum: b5ade7b37ee992b02096e360e546dc2d
     Pseudo is Ultrasoft + core correction, Zval =  4.0
     Generated by new atomic code, or converted to UPF format
     Using radial grid of  899 points,  6 beta functions with: 
                l(1) =   0
                l(2) =   0
                l(3) =   1
                l(4) =   1
                l(5) =   2
                l(6) =   2
     Q(r) pseudized with  8 coefficients,  rinner =    0.900   0.900   0.900
                                                       0.900   0.900

     Mode symmetry, C_2v (mm2)  point group:


     Atomic displacements:
     There are    6 irreducible representations

     Representation     1      1 modes -  To be done

     Representation     2      1 modes -  To be done

     Representation     3      1 modes -  To be done

     Representation     4      1 modes -  To be done

     Representation     5      1 modes -  To be done

     Representation     6      1 modes -  To be done



     Alpha used in Ewald sum =   2.8000
     PHONON       :      1h 5m CPU      1h 9m WALL



     Representation #   1 mode #   1

     Self-consistent Calculation

      iter #   1 total cpu time :  4187.4 secs   av.it.:   5.7
      thresh= 1.000E-02 alpha_mix =  0.700 |ddv_scf|^2 =  3.031E-06

      iter #   2 total cpu time :  4208.6 secs   av.it.:  11.2
      thresh= 1.741E-04 alpha_mix =  0.700 |ddv_scf|^2 =  1.478E-05

      iter #   3 total cpu time :  4227.6 secs   av.it.:   9.6
      thresh= 3.845E-04 alpha_mix =  0.700 |ddv_scf|^2 =  3.736E-08

      iter #   4 total cpu time :  4249.8 secs   av.it.:  10.9
      thresh= 1.933E-05 alpha_mix =  0.700 |ddv_scf|^2 =  1.766E-10

      iter #   5 total cpu time :  4270.9 secs   av.it.:  11.0
      thresh= 1.329E-06 alpha_mix =  0.700 |ddv_scf|^2 =  6.721E-12

      iter #   6 total cpu time :  4291.2 secs   av.it.:  10.5
      thresh= 2.593E-07 alpha_mix =  0.700 |ddv_scf|^2 =  1.666E-13

      iter #   7 total cpu time :  4311.5 secs   av.it.:  10.6
      thresh= 4.082E-08 alpha_mix =  0.700 |ddv_scf|^2 =  1.570E-13

      iter #   8 total cpu time :  4331.1 secs   av.it.:  10.0
      thresh= 3.962E-08 alpha_mix =  0.700 |ddv_scf|^2 =  1.389E-15

      iter #   9 total cpu time :  4351.9 secs   av.it.:  10.9
      thresh= 3.727E-09 alpha_mix =  0.700 |ddv_scf|^2 =  5.310E-17

     End of self-consistent calculation

     Convergence has been achieved 


     Representation #   2 mode #   2

     Self-consistent Calculation

      iter #   1 total cpu time :  4368.8 secs   av.it.:   6.1
      thresh= 1.000E-02 alpha_mix =  0.700 |ddv_scf|^2 =  2.272E-05

      iter #   2 total cpu time :  4389.8 secs   av.it.:  11.0
      thresh= 4.767E-04 alpha_mix =  0.700 |ddv_scf|^2 =  1.226E-04

      iter #   3 total cpu time :  4408.7 secs   av.it.:   9.5
      thresh= 1.107E-03 alpha_mix =  0.700 |ddv_scf|^2 =  2.927E-08

      iter #   4 total cpu time :  4429.6 secs   av.it.:  11.0
      thresh= 1.711E-05 alpha_mix =  0.700 |ddv_scf|^2 =  4.698E-10

      iter #   5 total cpu time :  4450.3 secs   av.it.:  10.8
      thresh= 2.167E-06 alpha_mix =  0.700 |ddv_scf|^2 =  8.257E-12

      iter #   6 total cpu time :  4471.0 secs   av.it.:  10.8
      thresh= 2.873E-07 alpha_mix =  0.700 |ddv_scf|^2 =  3.173E-13

      iter #   7 total cpu time :  4491.0 secs   av.it.:  10.4
      thresh= 5.633E-08 alpha_mix =  0.700 |ddv_scf|^2 =  2.347E-13

      iter #   8 total cpu time :  4510.8 secs   av.it.:  10.2
      thresh= 4.844E-08 alpha_mix =  0.700 |ddv_scf|^2 =  9.582E-15

      iter #   9 total cpu time :  4530.6 secs   av.it.:  10.2
      thresh= 9.789E-09 alpha_mix =  0.700 |ddv_scf|^2 =  2.306E-16

      iter #  10 total cpu time :  4551.1 secs   av.it.:  10.7
      thresh= 1.519E-09 alpha_mix =  0.700 |ddv_scf|^2 =  4.331E-18

     End of self-consistent calculation

     Convergence has been achieved 


     Representation #   3 mode #   3

     Self-consistent Calculation

      iter #   1 total cpu time :  4566.5 secs   av.it.:   5.5
      thresh= 1.000E-02 alpha_mix =  0.700 |ddv_scf|^2 =  1.454E-07

      iter #   2 total cpu time :  4587.6 secs   av.it.:  11.2
      thresh= 3.814E-05 alpha_mix =  0.700 |ddv_scf|^2 =  1.460E-08

      iter #   3 total cpu time :  4608.4 secs   av.it.:  10.9
      thresh= 1.208E-05 alpha_mix =  0.700 |ddv_scf|^2 =  1.843E-10

      iter #   4 total cpu time :  4628.7 secs   av.it.:  10.6
      thresh= 1.357E-06 alpha_mix =  0.700 |ddv_scf|^2 =  1.460E-13

      iter #   5 total cpu time :  4649.8 secs   av.it.:  11.1
      thresh= 3.821E-08 alpha_mix =  0.700 |ddv_scf|^2 =  3.775E-15

      iter #   6 total cpu time :  4670.8 secs   av.it.:  11.1
      thresh= 6.144E-09 alpha_mix =  0.700 |ddv_scf|^2 =  3.140E-17

     End of self-consistent calculation

     Convergence has been achieved 


     Representation #   4 mode #   4

     Self-consistent Calculation

      iter #   1 total cpu time :  4685.7 secs   av.it.:   5.0
      thresh= 1.000E-02 alpha_mix =  0.700 |ddv_scf|^2 =  1.616E-08

      iter #   2 total cpu time :  4706.7 secs   av.it.:  11.0
      thresh= 1.271E-05 alpha_mix =  0.700 |ddv_scf|^2 =  8.680E-10

      iter #   3 total cpu time :  4727.3 secs   av.it.:  10.7
      thresh= 2.946E-06 alpha_mix =  0.700 |ddv_scf|^2 =  1.053E-11

      iter #   4 total cpu time :  4747.7 secs   av.it.:  10.6
      thresh= 3.245E-07 alpha_mix =  0.700 |ddv_scf|^2 =  1.514E-13

      iter #   5 total cpu time :  4768.7 secs   av.it.:  11.0
      thresh= 3.891E-08 alpha_mix =  0.700 |ddv_scf|^2 =  4.322E-16

      iter #   6 total cpu time :  4789.7 secs   av.it.:  11.0
      thresh= 2.079E-09 alpha_mix =  0.700 |ddv_scf|^2 =  2.979E-18

     End of self-consistent calculation

     Convergence has been achieved 


     Representation #   5 mode #   5

     Self-consistent Calculation

      iter #   1 total cpu time :  4804.5 secs   av.it.:   5.0
      thresh= 1.000E-02 alpha_mix =  0.700 |ddv_scf|^2 =  3.308E-08

      iter #   2 total cpu time :  4826.2 secs   av.it.:  11.6
      thresh= 1.819E-05 alpha_mix =  0.700 |ddv_scf|^2 =  1.385E-08

      iter #   3 total cpu time :  4847.2 secs   av.it.:  11.0
      thresh= 1.177E-05 alpha_mix =  0.700 |ddv_scf|^2 =  7.915E-10

      iter #   4 total cpu time :  4868.1 secs   av.it.:  11.0
      thresh= 2.813E-06 alpha_mix =  0.700 |ddv_scf|^2 =  1.117E-11

      iter #   5 total cpu time :  4889.4 secs   av.it.:  11.3
      thresh= 3.342E-07 alpha_mix =  0.700 |ddv_scf|^2 =  2.445E-13

      iter #   6 total cpu time :  4910.7 secs   av.it.:  11.3
      thresh= 4.945E-08 alpha_mix =  0.700 |ddv_scf|^2 =  1.116E-15

      iter #   7 total cpu time :  4932.2 secs   av.it.:  11.4
      thresh= 3.341E-09 alpha_mix =  0.700 |ddv_scf|^2 =  2.638E-17

     End of self-consistent calculation

     Convergence has been achieved 


     Representation #   6 mode #   6

     Self-consistent Calculation

      iter #   1 total cpu time :  4948.0 secs   av.it.:   5.8
      thresh= 1.000E-02 alpha_mix =  0.700 |ddv_scf|^2 =  9.375E-07

      iter #   2 total cpu time :  4969.5 secs   av.it.:  11.4
      thresh= 9.682E-05 alpha_mix =  0.700 |ddv_scf|^2 =  6.940E-07

      iter #   3 total cpu time :  4990.1 secs   av.it.:  10.8
      thresh= 8.331E-05 alpha_mix =  0.700 |ddv_scf|^2 =  5.404E-10

      iter #   4 total cpu time :  5011.3 secs   av.it.:  11.2
      thresh= 2.325E-06 alpha_mix =  0.700 |ddv_scf|^2 =  3.565E-11

      iter #   5 total cpu time :  5032.5 secs   av.it.:  11.2
      thresh= 5.971E-07 alpha_mix =  0.700 |ddv_scf|^2 =  8.283E-14

      iter #   6 total cpu time :  5053.7 secs   av.it.:  11.3
      thresh= 2.878E-08 alpha_mix =  0.700 |ddv_scf|^2 =  2.156E-15

      iter #   7 total cpu time :  5074.8 secs   av.it.:  11.2
      thresh= 4.644E-09 alpha_mix =  0.700 |ddv_scf|^2 =  3.002E-17

     End of self-consistent calculation

     Convergence has been achieved 
 
     Number of q in the star =   12
     List of q in the star:
          1   0.500000000   0.000000000   0.500000000
          2  -0.500000000   0.000000000   0.500000000
          3  -0.500000000   0.000000000  -0.500000000
          4   0.500000000   0.000000000  -0.500000000
          5   0.000000000   0.500000000  -0.500000000
          6  -0.500000000   0.500000000   0.000000000
          7   0.000000000   0.500000000   0.500000000
          8   0.000000000  -0.500000000  -0.500000000
          9   0.500000000   0.500000000   0.000000000
         10   0.500000000  -0.500000000   0.000000000
         11  -0.500000000  -0.500000000   0.000000000
         12   0.000000000  -0.500000000   0.500000000

     Diagonalizing the dynamical matrix

     q = (    0.500000000   0.000000000   0.500000000 ) 

 **************************************************************************
     freq (    1) =       3.757223 [THz] =     125.327462 [cm-1]
     freq (    2) =       5.596668 [THz] =     186.684750 [cm-1]
     freq (    3) =       8.873987 [THz] =     296.004334 [cm-1]
     freq (    4) =      13.456969 [THz] =     448.876162 [cm-1]
     freq (    5) =      15.235601 [THz] =     508.204954 [cm-1]
     freq (    6) =      15.733196 [THz] =     524.802916 [cm-1]
 **************************************************************************

     Mode symmetry, C_2v (mm2)  point group:

     freq (   1-   1) =        125.3  [cm-1]   --> B_1  D_3  S_3      
     freq (   2-   2) =        186.7  [cm-1]   --> B_2  D_4  S_4      
     freq (   3-   3) =        296.0  [cm-1]   --> A_1  D_1  S_1      
     freq (   4-   4) =        448.9  [cm-1]   --> B_2  D_4  S_4      
     freq (   5-   5) =        508.2  [cm-1]   --> A_2  D_2  S_2      
     freq (   6-   6) =        524.8  [cm-1]   --> A_1  D_1  S_1      

[...]

      iter #   1 total cpu time :  5122.5 secs   av.it.:   5.0
      thresh= 1.000E-02 alpha_mix =  0.700 |ddv_scf|^2 =  3.106E-09

      iter #   2 total cpu time :  5139.5 secs   av.it.:  11.7
      thresh= 5.573E-06 alpha_mix =  0.700 |ddv_scf|^2 =  1.720E-10

      iter #   3 total cpu time :  5156.5 secs   av.it.:  11.7
      thresh= 1.311E-06 alpha_mix =  0.700 |ddv_scf|^2 =  9.702E-13

      iter #   4 total cpu time :  5173.2 secs   av.it.:  11.3
      thresh= 9.850E-08 alpha_mix =  0.700 |ddv_scf|^2 =  9.343E-15

      iter #   5 total cpu time :  5190.7 secs   av.it.:  12.2
      thresh= 9.666E-09 alpha_mix =  0.700 |ddv_scf|^2 =  1.508E-17

     End of self-consistent calculation

     Convergence has been achieved 


     Representation #   2 modes #   3   4

     Self-consistent Calculation

      iter #   1 total cpu time :  5203.5 secs   av.it.:   5.9
      thresh= 1.000E-02 alpha_mix =  0.700 |ddv_scf|^2 =  7.025E-07

      iter #   2 total cpu time :  5220.6 secs   av.it.:  11.9
      thresh= 8.382E-05 alpha_mix =  0.700 |ddv_scf|^2 =  9.804E-07

      iter #   3 total cpu time :  5237.2 secs   av.it.:  11.2
      thresh= 9.902E-05 alpha_mix =  0.700 |ddv_scf|^2 =  1.824E-10

      iter #   4 total cpu time :  5254.3 secs   av.it.:  11.9
      thresh= 1.351E-06 alpha_mix =  0.700 |ddv_scf|^2 =  1.348E-11

      iter #   5 total cpu time :  5271.5 secs   av.it.:  11.9
      thresh= 3.671E-07 alpha_mix =  0.700 |ddv_scf|^2 =  9.222E-14

      iter #   6 total cpu time :  5288.5 secs   av.it.:  11.7
      thresh= 3.037E-08 alpha_mix =  0.700 |ddv_scf|^2 =  2.921E-15

      iter #   7 total cpu time :  5305.3 secs   av.it.:  11.7
      thresh= 5.405E-09 alpha_mix =  0.700 |ddv_scf|^2 =  2.447E-17

     End of self-consistent calculation

     Convergence has been achieved 


     Representation #   3 modes #   5   6

     Self-consistent Calculation

      iter #   1 total cpu time :  5318.1 secs   av.it.:   5.8
      thresh= 1.000E-02 alpha_mix =  0.700 |ddv_scf|^2 =  1.188E-07

      iter #   2 total cpu time :  5335.6 secs   av.it.:  12.3
      thresh= 3.447E-05 alpha_mix =  0.700 |ddv_scf|^2 =  2.996E-08

      iter #   3 total cpu time :  5352.9 secs   av.it.:  11.9
      thresh= 1.731E-05 alpha_mix =  0.700 |ddv_scf|^2 =  6.910E-11

      iter #   4 total cpu time :  5370.0 secs   av.it.:  11.8
      thresh= 8.313E-07 alpha_mix =  0.700 |ddv_scf|^2 =  3.959E-14

      iter #   5 total cpu time :  5387.1 secs   av.it.:  11.9
      thresh= 1.990E-08 alpha_mix =  0.700 |ddv_scf|^2 =  2.736E-15

      iter #   6 total cpu time :  5404.4 secs   av.it.:  12.1
      thresh= 5.231E-09 alpha_mix =  0.700 |ddv_scf|^2 =  2.434E-18

     End of self-consistent calculation

     Convergence has been achieved 
 
     Number of q in the star =    3
     List of q in the star:
          1   0.000000000  -1.000000000   0.000000000
          2  -1.000000000   0.000000000   0.000000000
          3   0.000000000   0.000000000  -1.000000000

     Diagonalizing the dynamical matrix

     q = (    0.000000000  -1.000000000   0.000000000 ) 

 **************************************************************************
     freq (    1) =       3.360479 [THz] =     112.093506 [cm-1]
     freq (    2) =       3.360479 [THz] =     112.093506 [cm-1]
     freq (    3) =      12.924450 [THz] =     431.113258 [cm-1]
     freq (    4) =      12.924450 [THz] =     431.113258 [cm-1]
     freq (    5) =      15.008298 [THz] =     500.622950 [cm-1]
     freq (    6) =      15.008298 [THz] =     500.622950 [cm-1]
 **************************************************************************

     Calculation of q =   -0.5000000  -1.0000000   0.0000000
 
     G-vector sticks info
     --------------------
     sticks:   dense  smooth     PW     G-vecs:    dense   smooth      PW
     Sum        1735     685    241                47447    12039    2421
 
     Using Slab Decomposition
 

     Title: 
     Phonons of Si                                                              


     bravais-lattice index     =            2
     lattice parameter (alat)  =      10.0213  a.u.
     unit-cell volume          =     251.6009 (a.u.)^3
     number of atoms/cell      =            2
     number of atomic types    =            1
     number of electrons       =         8.00
     number of Kohn-Sham states=            4
     kinetic-energy cutoff     =      50.0000  Ry
     charge density cutoff     =     500.0000  Ry
     Exchange-correlation= PZ
                           (   1   1   0   0   0   0   0)

     celldm(1)=  10.021300  celldm(2)=   0.000000  celldm(3)=   0.000000
     celldm(4)=   0.000000  celldm(5)=   0.000000  celldm(6)=   0.000000

     crystal axes: (cart. coord. in units of alat)
               a(1) = (  -0.500000   0.000000   0.500000 )  
               a(2) = (   0.000000   0.500000   0.500000 )  
               a(3) = (  -0.500000   0.500000   0.000000 )  

     reciprocal axes: (cart. coord. in units 2 pi/alat)
               b(1) = ( -1.000000 -1.000000  1.000000 )  
               b(2) = (  1.000000  1.000000  1.000000 )  
               b(3) = ( -1.000000  1.000000 -1.000000 )  


     PseudoPot. # 1 for Si read from file:
     ./Si_LDA.UPF
     MD5 check sum: b5ade7b37ee992b02096e360e546dc2d
     Pseudo is Ultrasoft + core correction, Zval =  4.0
     Generated by new atomic code, or converted to UPF format
     Using radial grid of  899 points,  6 beta functions with: 
                l(1) =   0
                l(2) =   0
                l(3) =   1
                l(4) =   1
                l(5) =   2
                l(6) =   2
     Q(r) pseudized with  8 coefficients,  rinner =    0.900   0.900   0.900
                                                       0.900   0.900

     atomic species   valence    mass     pseudopotential
        Si             4.00    28.08550     Si( 1.00)

     48 Sym. Ops., with inversion, found



   Cartesian axes

     site n.     atom                  positions (alat units)
         1           Si  tau(   1) = (   0.0000000   0.0000000   0.0000000  )
         2           Si  tau(   2) = (  -0.2500000   0.2500000   0.2500000  )

     number of k points=   230

     Number of k-points >= 100: set verbosity='high' to print them.

     Dense  grid:    47447 G-vectors     FFT dimensions: (  60,  60,  60)

     Smooth grid:    12039 G-vectors     FFT dimensions: (  32,  32,  32)

     Estimated max dynamical RAM per process >     159.21 MB

     The potential is recalculated from file :
     ./_ph0/Si_minus5.save/charge-density

     Starting wfcs are    8 atomic wfcs

     Band Structure Calculation
     Davidson diagonalization with overlap

     ethr =  1.25E-10,  avg # of iterations = 13.2

     total cpu time spent up to now is      268.0 secs

     End of band structure calculation

     Number of k-points >= 100: set verbosity='high' to print the bands.

     highest occupied level (ev):     6.7744

     Writing config to output data dir ./_ph0/Si_minus5.save/

     Phonons of Si                                                              

     bravais-lattice index     =            2
     lattice parameter (alat)  =      10.0213  a.u.
     unit-cell volume          =     251.6009 (a.u.)^3
     number of atoms/cell      =            2
     number of atomic types    =            1
     kinetic-energy cut-off    =      50.0000  Ry
     charge density cut-off    =     500.0000  Ry
     convergence threshold     =      1.0E-16
     beta                      =       0.7000
     number of iterations used =            4
     Exchange-correlation= PZ
                           (   1   1   0   0   0   0   0)


     celldm(1)=   10.02130  celldm(2)=    0.00000  celldm(3)=    0.00000
     celldm(4)=    0.00000  celldm(5)=    0.00000  celldm(6)=    0.00000

     crystal axes: (cart. coord. in units of alat)
               a(1) = ( -0.5000  0.0000  0.5000 )  
               a(2) = (  0.0000  0.5000  0.5000 )  
               a(3) = ( -0.5000  0.5000  0.0000 )  

     reciprocal axes: (cart. coord. in units 2 pi/alat)
               b(1) = ( -1.0000 -1.0000  1.0000 )  
               b(2) = (  1.0000  1.0000  1.0000 )  
               b(3) = ( -1.0000  1.0000 -1.0000 )  


     Atoms inside the unit cell: 

     Cartesian axes

     site n.  atom      mass           positions (alat units)
        1     Si  28.0855   tau(    1) = (    0.00000    0.00000    0.00000  )
        2     Si  28.0855   tau(    2) = (   -0.25000    0.25000    0.25000  )

     Computing dynamical matrix for 
                    q = (  -0.5000000  -1.0000000   0.0000000 )
 
      8 Sym.Ops. (no q -> -q+G )


     G cutoff = 1271.9159  (  47447 G-vectors)     FFT grid: ( 60, 60, 60)
     G cutoff =  508.7664  (  12039 G-vectors)  smooth grid: ( 32, 32, 32)
     number of k points=   230

     PseudoPot. # 1 for Si read from file:
     ./Si_LDA.UPF
     MD5 check sum: b5ade7b37ee992b02096e360e546dc2d
     Pseudo is Ultrasoft + core correction, Zval =  4.0
     Generated by new atomic code, or converted to UPF format
     Using radial grid of  899 points,  6 beta functions with: 
                l(1) =   0
                l(2) =   0
                l(3) =   1
                l(4) =   1
                l(5) =   2
                l(6) =   2
     Q(r) pseudized with  8 coefficients,  rinner =    0.900   0.900   0.900
                                                       0.900   0.900


     Atomic displacements:
     There are    3 irreducible representations

     Representation     1      2 modes -  To be done

     Representation     2      2 modes -  To be done

     Representation     3      2 modes -  To be done



     Alpha used in Ewald sum =   2.8000
     PHONON       :      1h25m CPU      1h30m WALL



     Representation #   1 modes #   1   2

     Self-consistent Calculation

      iter #   1 total cpu time :  5463.7 secs   av.it.:   5.5
      thresh= 1.000E-02 alpha_mix =  0.700 |ddv_scf|^2 =  8.094E-08

      iter #   2 total cpu time :  5488.2 secs   av.it.:  12.6
      thresh= 2.845E-05 alpha_mix =  0.700 |ddv_scf|^2 =  4.569E-08

      iter #   3 total cpu time :  5512.0 secs   av.it.:  12.0
      thresh= 2.138E-05 alpha_mix =  0.700 |ddv_scf|^2 =  9.332E-11

      iter #   4 total cpu time :  5536.2 secs   av.it.:  12.3
      thresh= 9.660E-07 alpha_mix =  0.700 |ddv_scf|^2 =  3.977E-13

      iter #   5 total cpu time :  5560.2 secs   av.it.:  12.1
      thresh= 6.306E-08 alpha_mix =  0.700 |ddv_scf|^2 =  4.961E-15

      iter #   6 total cpu time :  5584.5 secs   av.it.:  12.4
      thresh= 7.043E-09 alpha_mix =  0.700 |ddv_scf|^2 =  3.319E-17

     End of self-consistent calculation

     Convergence has been achieved 


     Representation #   2 modes #   3   4

     Self-consistent Calculation

      iter #   1 total cpu time :  5601.5 secs   av.it.:   5.9
      thresh= 1.000E-02 alpha_mix =  0.700 |ddv_scf|^2 =  4.017E-07

      iter #   2 total cpu time :  5626.0 secs   av.it.:  12.6
      thresh= 6.338E-05 alpha_mix =  0.700 |ddv_scf|^2 =  5.439E-07

      iter #   3 total cpu time :  5649.5 secs   av.it.:  11.9
      thresh= 7.375E-05 alpha_mix =  0.700 |ddv_scf|^2 =  9.716E-11

      iter #   4 total cpu time :  5673.4 secs   av.it.:  12.1
      thresh= 9.857E-07 alpha_mix =  0.700 |ddv_scf|^2 =  1.834E-12

      iter #   5 total cpu time :  5697.5 secs   av.it.:  12.2
      thresh= 1.354E-07 alpha_mix =  0.700 |ddv_scf|^2 =  1.576E-14

      iter #   6 total cpu time :  5721.7 secs   av.it.:  12.3
      thresh= 1.256E-08 alpha_mix =  0.700 |ddv_scf|^2 =  5.723E-16

      iter #   7 total cpu time :  5745.8 secs   av.it.:  12.1
      thresh= 2.392E-09 alpha_mix =  0.700 |ddv_scf|^2 =  2.969E-18

     End of self-consistent calculation

     Convergence has been achieved 


     Representation #   3 modes #   5   6

     Self-consistent Calculation

      iter #   1 total cpu time :  5763.0 secs   av.it.:   5.9
      thresh= 1.000E-02 alpha_mix =  0.700 |ddv_scf|^2 =  2.913E-07

      iter #   2 total cpu time :  5787.5 secs   av.it.:  12.5
      thresh= 5.397E-05 alpha_mix =  0.700 |ddv_scf|^2 =  1.804E-07

      iter #   3 total cpu time :  5811.3 secs   av.it.:  11.9
      thresh= 4.248E-05 alpha_mix =  0.700 |ddv_scf|^2 =  8.459E-11

      iter #   4 total cpu time :  5835.1 secs   av.it.:  12.1
      thresh= 9.197E-07 alpha_mix =  0.700 |ddv_scf|^2 =  9.574E-13

      iter #   5 total cpu time :  5859.0 secs   av.it.:  12.0
      thresh= 9.784E-08 alpha_mix =  0.700 |ddv_scf|^2 =  6.935E-15

      iter #   6 total cpu time :  5883.2 secs   av.it.:  12.3
      thresh= 8.328E-09 alpha_mix =  0.700 |ddv_scf|^2 =  1.902E-16

      iter #   7 total cpu time :  5907.2 secs   av.it.:  12.1
      thresh= 1.379E-09 alpha_mix =  0.700 |ddv_scf|^2 =  1.694E-18

     End of self-consistent calculation

     Convergence has been achieved 
 
     Number of q in the star =    6
     List of q in the star:
          1  -0.500000000  -1.000000000   0.000000000
          2   0.000000000   1.000000000   0.500000000
          3   0.000000000  -1.000000000  -0.500000000
          4   0.500000000   1.000000000   0.000000000
          5  -1.000000000  -0.500000000   0.000000000
          6   0.000000000  -0.500000000  -1.000000000

     Diagonalizing the dynamical matrix

     q = (   -0.500000000  -1.000000000   0.000000000 ) 

 **************************************************************************
     freq (    1) =       5.662748 [THz] =     188.888949 [cm-1]
     freq (    2) =       5.662748 [THz] =     188.888949 [cm-1]
     freq (    3) =      11.244287 [THz] =     375.069042 [cm-1]
     freq (    4) =      11.244287 [THz] =     375.069042 [cm-1]
     freq (    5) =      15.168996 [THz] =     505.983250 [cm-1]
     freq (    6) =      15.168996 [THz] =     505.983250 [cm-1]
 **************************************************************************
 
     init_run     :     10.61s CPU     11.75s WALL (       7 calls)
     electrons    :    231.98s CPU    254.20s WALL (       7 calls)

     Called by init_run:
     wfcinit      :      0.00s CPU      0.02s WALL (       7 calls)
     potinit      :      0.45s CPU      0.74s WALL (       7 calls)
     hinit0       :      7.03s CPU      7.20s WALL (       7 calls)

     Called by electrons:
     c_bands      :    231.98s CPU    254.17s WALL (       7 calls)
     v_of_rho     :      0.41s CPU      0.55s WALL (       8 calls)
     newd         :      1.80s CPU      2.07s WALL (       8 calls)

     Called by c_bands:
     init_us_2    :    101.06s CPU    110.27s WALL (   68085 calls)
     init_us_2:cp :     99.24s CPU    109.00s WALL (   68085 calls)
     cegterg      :    190.59s CPU    200.47s WALL (    2410 calls)

     Called by *egterg:
     cdiaghg      :     13.09s CPU     14.26s WALL (   34208 calls)
     h_psi        :   3008.33s CPU   3150.27s WALL (  714441 calls)
     s_psi        :    431.90s CPU    493.64s WALL ( 1450344 calls)
     g_psi        :      1.44s CPU      1.56s WALL (   31798 calls)

     Called by h_psi:
     h_psi:calbec :    214.99s CPU    223.97s WALL (  714441 calls)
     vloc_psi     :   2520.22s CPU   2634.16s WALL (  714441 calls)
     add_vuspsi   :    215.64s CPU    240.21s WALL (  714441 calls)

     General routines
     calbec       :    380.49s CPU    423.31s WALL ( 1572924 calls)
     fft          :     14.34s CPU     14.55s WALL (    3313 calls)
     ffts         :      3.63s CPU      3.82s WALL (    8652 calls)
     fftw         :   2339.66s CPU   2460.72s WALL ( 6345088 calls)
     interpolate  :      4.34s CPU      4.47s WALL (     762 calls)
     davcio       :     35.39s CPU     79.12s WALL (  300626 calls)
 
     Parallel routines
 
     PHONON       :      1h32m CPU      1h38m WALL

     INITIALIZATION: 
     phq_setup    :      0.39s CPU      0.60s WALL (       8 calls)
     phq_init     :    150.49s CPU    154.66s WALL (       8 calls)
 
     phq_init     :    150.49s CPU    154.66s WALL (       8 calls)
     set_drhoc    :     24.05s CPU     24.05s WALL (      24 calls)
     init_vloc    :      0.02s CPU      0.04s WALL (       8 calls)
     init_us_1    :      7.23s CPU      7.29s WALL (       8 calls)
     init_us_2    :    101.06s CPU    110.27s WALL (   68085 calls)
     newd         :      1.80s CPU      2.07s WALL (       8 calls)
     dvanqq       :     46.00s CPU     46.07s WALL (       8 calls)
     drho         :     68.05s CPU     70.57s WALL (       8 calls)
 
     DYNAMICAL MATRIX:
     dynmat0      :     23.01s CPU     24.18s WALL (       8 calls)
     phqscf       :   5043.43s CPU   5379.56s WALL (       8 calls)
     dynmatrix    :      0.03s CPU      0.59s WALL (       8 calls)
 
     phqscf       :   5043.43s CPU   5379.56s WALL (       8 calls)
     solve_linter :   5015.11s CPU   5346.65s WALL (      32 calls)
     drhodv       :     22.33s CPU     24.04s WALL (      32 calls)
 
     dynmat0      :     23.01s CPU     24.18s WALL (       8 calls)
     dynmat_us    :      6.08s CPU      6.40s WALL (       8 calls)
     d2ionq       :      0.33s CPU      0.34s WALL (       8 calls)
     dynmatcc     :     16.60s CPU     16.63s WALL (       8 calls)
 
     dynmat_us    :      6.08s CPU      6.40s WALL (       8 calls)
     addusdynmat  :      0.00s CPU      0.00s WALL (       8 calls)
 
     phqscf       :   5043.43s CPU   5379.56s WALL (       8 calls)
     solve_linter :   5015.11s CPU   5346.65s WALL (      32 calls)
 
     solve_linter :   5015.11s CPU   5346.65s WALL (      32 calls)
     dvqpsi_us    :     55.32s CPU     57.87s WALL (    7650 calls)
     sth_kernel   :   4376.15s CPU   4680.37s WALL (     242 calls)
     apply_dpot_b :    199.30s CPU    212.89s WALL (   50325 calls)
     ortho        :     46.85s CPU     51.24s WALL (   57975 calls)
     cgsolve      :   3748.43s CPU   3980.29s WALL (   57975 calls)
     incdrhoscf   :    263.46s CPU    288.89s WALL (   57975 calls)
     addusddens   :    238.81s CPU    239.30s WALL (     269 calls)
     dv_of_drho   :      6.72s CPU      6.79s WALL (     351 calls)
     mix_pot      :      3.53s CPU     16.56s WALL (     242 calls)
     psymdvscf    :    117.46s CPU    117.64s WALL (     237 calls)
     newdq        :    279.63s CPU    279.70s WALL (     242 calls)
     adddvscf     :     20.73s CPU     22.41s WALL (   50325 calls)
     drhodvus     :      0.21s CPU      0.48s WALL (      32 calls)
 
     dvqpsi_us    :     55.32s CPU     57.87s WALL (    7650 calls)
     dvqpsi_us_on :     16.55s CPU     16.89s WALL (    7650 calls)
 
     cgsolve      :   3748.43s CPU   3980.29s WALL (   57975 calls)
     ch_psi       :   3651.73s CPU   3869.37s WALL (  677823 calls)
 
     ch_psi       :   3651.73s CPU   3869.37s WALL (  677823 calls)
     h_psi        :   3008.33s CPU   3150.27s WALL (  714441 calls)
     last         :    520.87s CPU    578.02s WALL (  677823 calls)
 
     h_psi        :   3008.33s CPU   3150.27s WALL (  714441 calls)
     add_vuspsi   :    215.64s CPU    240.21s WALL (  714441 calls)
 
     incdrhoscf   :    263.46s CPU    288.89s WALL (   57975 calls)
     addusdbec    :     22.67s CPU     23.51s WALL (   65415 calls)
 
     drhodvus     :      0.21s CPU      0.48s WALL (      32 calls)
 
      General routines
     calbec       :    380.49s CPU    423.31s WALL ( 1572924 calls)
     fft          :     14.34s CPU     14.55s WALL (    3313 calls)
     ffts         :      3.63s CPU      3.82s WALL (    8652 calls)
     fftw         :   2339.66s CPU   2460.72s WALL ( 6345088 calls)
     davcio       :     35.39s CPU     79.12s WALL (  300626 calls)
     write_rec    :      0.66s CPU     13.15s WALL (     274 calls)
 
 
     PHONON       :      1h32m CPU      1h38m WALL

 
   This run was terminated on:  10:14:39  10Apr2022            

=------------------------------------------------------------------------------=
   JOB DONE.
=------------------------------------------------------------------------------=
