
     Program PWSCF v.7.0 starts on 10Apr2022 at  8:34:59 

     This program is part of the open-source Quantum ESPRESSO suite
     for quantum simulation of materials; please cite
         "P. Giannozzi et al., J. Phys.:Condens. Matter 21 395502 (2009);
         "P. Giannozzi et al., J. Phys.:Condens. Matter 29 465901 (2017);
         "P. Giannozzi et al., J. Chem. Phys. 152 154105 (2020);
          URL http://www.quantum-espresso.org", 
     in publications or presentations arising from this work. More details at
     http://www.quantum-espresso.org/quote

     Parallel version (MPI), running on     1 processors

     MPI processes distributed on     1 nodes
     90675 MiB available memory on the printing compute node when the environment starts
 
     Waiting for input...
     Reading input from standard input
Warning: card &CELL ignored
Warning: card  CELL_DYNAMICS = 'BFGS', ignored
Warning: card  PRESS=0.1D0, ignored
Warning: card / ignored

     Current dimensions of program PWSCF are:
     Max number of different atomic species (ntypx) = 10
     Max number of k-points (npk) =  40000
     Max angular momentum in pseudopotentials (lmaxx) =  4

     Subspace diagonalization in iterative solution of the eigenvalue problem:
     a serial algorithm will be used

 
     G-vector sticks info
     --------------------
     sticks:   dense  smooth     PW     G-vecs:    dense   smooth      PW
     Sum        1789     721    211                50237    12627    2109
 
     Using Slab Decomposition
 


     bravais-lattice index     =            2
     lattice parameter (alat)  =      10.1941  a.u.
     unit-cell volume          =     264.8419 (a.u.)^3
     number of atoms/cell      =            2
     number of atomic types    =            1
     number of electrons       =         8.00
     number of Kohn-Sham states=            4
     kinetic-energy cutoff     =      50.0000  Ry
     charge density cutoff     =     500.0000  Ry
     scf convergence threshold =      1.0E-08
     mixing beta               =       0.7000
     number of iterations used =            8  plain     mixing
     Exchange-correlation= SLA  PZ   NOGX NOGC
                           (   1   1   0   0   0   0   0)

     celldm(1)=  10.194100  celldm(2)=   0.000000  celldm(3)=   0.000000
     celldm(4)=   0.000000  celldm(5)=   0.000000  celldm(6)=   0.000000

     crystal axes: (cart. coord. in units of alat)
               a(1) = (  -0.500000   0.000000   0.500000 )  
               a(2) = (   0.000000   0.500000   0.500000 )  
               a(3) = (  -0.500000   0.500000   0.000000 )  

     reciprocal axes: (cart. coord. in units 2 pi/alat)
               b(1) = ( -1.000000 -1.000000  1.000000 )  
               b(2) = (  1.000000  1.000000  1.000000 )  
               b(3) = ( -1.000000  1.000000 -1.000000 )  


     PseudoPot. # 1 for Si read from file:
     ./Si_LDA.UPF
     MD5 check sum: b5ade7b37ee992b02096e360e546dc2d
     Pseudo is Ultrasoft + core correction, Zval =  4.0
     Generated by new atomic code, or converted to UPF format
     Using radial grid of  899 points,  6 beta functions with: 
                l(1) =   0
                l(2) =   0
                l(3) =   1
                l(4) =   1
                l(5) =   2
                l(6) =   2
     Q(r) pseudized with  8 coefficients,  rinner =    0.900   0.900   0.900
                                                       0.900   0.900

     atomic species   valence    mass     pseudopotential
        Si             4.00    28.08550     Si( 1.00)

     48 Sym. Ops., with inversion, found (24 have fractional translation)



   Cartesian axes

     site n.     atom                  positions (alat units)
         1           Si  tau(   1) = (   0.0000000   0.0000000   0.0000000  )
         2           Si  tau(   2) = (  -0.2500000   0.2500000   0.2500000  )

     number of k points=    35
                       cart. coord. in units 2pi/alat
        k(    1) = (   0.0000000   0.0000000   0.0000000), wk =   0.0027435
        k(    2) = (  -0.1111111   0.1111111  -0.1111111), wk =   0.0219479
        k(    3) = (  -0.2222222   0.2222222  -0.2222222), wk =   0.0219479
        k(    4) = (  -0.3333333   0.3333333  -0.3333333), wk =   0.0219479
        k(    5) = (  -0.4444444   0.4444444  -0.4444444), wk =   0.0219479
        k(    6) = (   0.0000000   0.2222222   0.0000000), wk =   0.0164609
        k(    7) = (  -0.1111111   0.3333333  -0.1111111), wk =   0.0658436
        k(    8) = (  -0.2222222   0.4444444  -0.2222222), wk =   0.0658436
        k(    9) = (  -0.3333333   0.5555556  -0.3333333), wk =   0.0658436
        k(   10) = (   0.5555556  -0.3333333   0.5555556), wk =   0.0658436
        k(   11) = (   0.4444444  -0.2222222   0.4444444), wk =   0.0658436
        k(   12) = (   0.3333333  -0.1111111   0.3333333), wk =   0.0658436
        k(   13) = (   0.2222222  -0.0000000   0.2222222), wk =   0.0329218
        k(   14) = (   0.0000000   0.4444444   0.0000000), wk =   0.0164609
        k(   15) = (  -0.1111111   0.5555556  -0.1111111), wk =   0.0658436
        k(   16) = (  -0.2222222   0.6666667  -0.2222222), wk =   0.0658436
        k(   17) = (   0.6666667  -0.2222222   0.6666667), wk =   0.0658436
        k(   18) = (   0.5555556  -0.1111111   0.5555556), wk =   0.0658436
        k(   19) = (   0.4444444  -0.0000000   0.4444444), wk =   0.0329218
        k(   20) = (   0.0000000   0.6666667   0.0000000), wk =   0.0164609
        k(   21) = (  -0.1111111   0.7777778  -0.1111111), wk =   0.0658436
        k(   22) = (   0.7777778  -0.1111111   0.7777778), wk =   0.0658436
        k(   23) = (   0.6666667  -0.0000000   0.6666667), wk =   0.0329218
        k(   24) = (   0.0000000   0.8888889   0.0000000), wk =   0.0164609
        k(   25) = (   0.8888889   0.0000000   0.8888889), wk =   0.0329218
        k(   26) = (  -0.2222222   0.4444444   0.0000000), wk =   0.0658436
        k(   27) = (  -0.3333333   0.5555556  -0.1111111), wk =   0.1316872
        k(   28) = (   0.5555556  -0.3333333   0.7777778), wk =   0.1316872
        k(   29) = (  -0.2222222   0.6666667   0.0000000), wk =   0.0658436
        k(   30) = (   0.6666667  -0.2222222   0.8888889), wk =   0.1316872
        k(   31) = (   0.5555556  -0.1111111   0.7777778), wk =   0.1316872
        k(   32) = (   0.4444444  -0.0000000   0.6666667), wk =   0.0658436
        k(   33) = (   0.7777778  -0.1111111   1.0000000), wk =   0.0658436
        k(   34) = (   0.6666667  -0.0000000   0.8888889), wk =   0.0658436
        k(   35) = (   0.5555556  -0.1111111   1.0000000), wk =   0.0658436

     Dense  grid:    50237 G-vectors     FFT dimensions: (  60,  60,  60)

     Smooth grid:    12627 G-vectors     FFT dimensions: (  36,  36,  36)

     Estimated max dynamical RAM per process >     195.65 MB

     Initial potential from superposition of free atoms

     starting charge       7.9988, renormalised to       8.0000
     Starting wfcs are    8 randomized atomic wfcs

     total cpu time spent up to now is        4.6 secs

     Self-consistent Calculation

     iteration #  1     ecut=    50.00 Ry     beta= 0.70
     CG style diagonalization
     ethr =  1.00E-02,  avg # of iterations =  3.0

     Threshold (ethr) on eigenvalues was too large:
     Diagonalizing with lowered threshold

     CG style diagonalization
     ethr =  7.39E-04,  avg # of iterations =  2.0

     total cpu time spent up to now is        8.8 secs

     total energy              =     -19.25687569 Ry
     estimated scf accuracy    <       0.05954994 Ry

     iteration #  2     ecut=    50.00 Ry     beta= 0.70
     CG style diagonalization
     ethr =  7.44E-04,  avg # of iterations =  3.0

     total cpu time spent up to now is       11.1 secs

     total energy              =     -19.25987571 Ry
     estimated scf accuracy    <       0.00197406 Ry

     iteration #  3     ecut=    50.00 Ry     beta= 0.70
     CG style diagonalization
     ethr =  2.47E-05,  avg # of iterations =  4.1

     total cpu time spent up to now is       14.0 secs

     total energy              =     -19.26046021 Ry
     estimated scf accuracy    <       0.00007063 Ry

     iteration #  4     ecut=    50.00 Ry     beta= 0.70
     CG style diagonalization
     ethr =  8.83E-07,  avg # of iterations =  4.3

     total cpu time spent up to now is       16.9 secs

     total energy              =     -19.26049707 Ry
     estimated scf accuracy    <       0.00001508 Ry

     iteration #  5     ecut=    50.00 Ry     beta= 0.70
     CG style diagonalization
     ethr =  1.88E-07,  avg # of iterations =  4.0

     total cpu time spent up to now is       19.7 secs

     total energy              =     -19.26050007 Ry
     estimated scf accuracy    <       0.00000005 Ry

     iteration #  6     ecut=    50.00 Ry     beta= 0.70
     CG style diagonalization
     ethr =  6.56E-10,  avg # of iterations =  5.8

     total cpu time spent up to now is       23.3 secs

     End of self-consistent calculation

          k = 0.0000 0.0000 0.0000 (  1591 PWs)   bands (ev):

    -5.8833   6.2187   6.2187   6.2187

          k =-0.1111 0.1111-0.1111 (  1567 PWs)   bands (ev):

    -5.7190   4.8551   5.9755   5.9755

          k =-0.2222 0.2222-0.2222 (  1579 PWs)   bands (ev):

    -5.2359   2.7479   5.5447   5.5447

          k =-0.3333 0.3333-0.3333 (  1591 PWs)   bands (ev):

    -4.4799   0.8042   5.2036   5.2036

          k =-0.4444 0.4444-0.4444 (  1580 PWs)   bands (ev):

    -3.6656  -0.6228   5.0268   5.0268

          k = 0.0000 0.2222 0.0000 (  1575 PWs)   bands (ev):

    -5.6639   5.1082   5.5224   5.5224

          k =-0.1111 0.3333-0.1111 (  1568 PWs)   bands (ev):

    -5.2851   3.3914   5.0404   5.1848

          k =-0.2222 0.4444-0.2222 (  1583 PWs)   bands (ev):

    -4.6115   1.4500   4.6692   4.7326

          k =-0.3333 0.5556-0.3333 (  1579 PWs)   bands (ev):

    -3.7643  -0.1734   4.2252   4.6523

          k = 0.5556-0.3333 0.5556 (  1579 PWs)   bands (ev):

    -3.3714  -0.7630   3.9596   4.7977

          k = 0.4444-0.2222 0.4444 (  1576 PWs)   bands (ev):

    -4.0506   0.3140   3.9208   5.1359

          k = 0.3333-0.1111 0.3333 (  1579 PWs)   bands (ev):

    -4.8674   2.0776   4.1512   5.5945

          k = 0.2222-0.0000 0.2222 (  1556 PWs)   bands (ev):

    -5.4477   3.8741   4.8101   5.9948

          k = 0.0000 0.4444 0.0000 (  1587 PWs)   bands (ev):

    -5.0116   3.1906   4.5084   4.5084

          k =-0.1111 0.5556-0.1111 (  1582 PWs)   bands (ev):

    -4.4318   1.8351   3.8645   4.1613

          k =-0.2222 0.6667-0.2222 (  1584 PWs)   bands (ev):

    -3.6151   0.3304   3.1052   4.0636

          k = 0.6667-0.2222 0.6667 (  1580 PWs)   bands (ev):

    -2.9384  -0.6405   2.5729   4.2237

          k = 0.5556-0.1111 0.5556 (  1580 PWs)   bands (ev):

    -3.3641  -0.0442   2.3816   4.6140

          k = 0.4444-0.0000 0.4444 (  1572 PWs)   bands (ev):

    -4.2068   1.2322   2.7673   5.1487

          k = 0.0000 0.6667 0.0000 (  1580 PWs)   bands (ev):

    -3.9464   1.1793   3.7530   3.7530

          k =-0.1111 0.7778-0.1111 (  1595 PWs)   bands (ev):

    -3.1934   0.1143   2.9952   3.5939

          k = 0.7778-0.1111 0.7778 (  1591 PWs)   bands (ev):

    -2.3777  -0.8013   2.0558   3.7042

          k = 0.6667-0.0000 0.6667 (  1578 PWs)   bands (ev):

    -2.5510  -0.6122   1.6800   4.0675

          k = 0.0000 0.8889 0.0000 (  1596 PWs)   bands (ev):

    -2.5077  -0.7639   3.3615   3.3615

          k = 0.8889 0.0000 0.8889 (  1586 PWs)   bands (ev):

    -1.7175  -1.5503   2.7123   3.4000

          k =-0.2222 0.4444 0.0000 (  1570 PWs)   bands (ev):

    -4.8069   2.4002   3.7836   5.0314

          k =-0.3333 0.5556-0.1111 (  1576 PWs)   bands (ev):

    -4.0564   0.8813   3.1695   4.5804

          k = 0.5556-0.3333 0.7778 (  1571 PWs)   bands (ev):

    -3.2374  -0.4414   2.9798   4.2472

          k =-0.2222 0.6667 0.0000 (  1590 PWs)   bands (ev):

    -3.7676   0.8696   3.0575   3.7707

          k = 0.6667-0.2222 0.8889 (  1588 PWs)   bands (ev):

    -2.9214  -0.2344   2.3733   3.4529

          k = 0.5556-0.1111 0.7778 (  1584 PWs)   bands (ev):

    -2.5427  -0.6744   1.9743   3.5691

          k = 0.4444-0.0000 0.6667 (  1579 PWs)   bands (ev):

    -3.2631   0.1458   2.1224   4.0194

          k = 0.7778-0.1111 1.0000 (  1590 PWs)   bands (ev):

    -2.3864  -0.7766   2.7641   2.9790

          k = 0.6667-0.0000 0.8889 (  1593 PWs)   bands (ev):

    -1.8457  -1.2477   2.0076   3.0694

          k = 0.5556-0.1111 1.0000 (  1585 PWs)   bands (ev):

    -2.0980  -0.9228   2.0485   2.7095

     highest occupied level (ev):     6.2187

!    total energy              =     -19.26050028 Ry
     estimated scf accuracy    <          3.6E-09 Ry

     The total energy is the sum of the following terms:
     one-electron contribution =       5.19682745 Ry
     hartree contribution      =       1.09731717 Ry
     xc contribution           =      -8.64510533 Ry
     ewald contribution        =     -16.90953958 Ry

     convergence has been achieved in   6 iterations

     Forces acting on atoms (cartesian axes, Ry/au):

     atom    1 type  1   force =     0.00000000   -0.00000000    0.00000000
     atom    2 type  1   force =    -0.00000000    0.00000000   -0.00000000

     Total force =     0.000000     Total SCF correction =     0.000000


     Computing stress (Cartesian axis) and pressure

          total   stress  (Ry/bohr**3)                   (kbar)     P=        3.17
   0.00002155   0.00000000   0.00000000            3.17        0.00        0.00
  -0.00000000   0.00002155  -0.00000000           -0.00        3.17       -0.00
   0.00000000  -0.00000000   0.00002155            0.00       -0.00        3.17


     Writing all to output data dir ./Si.save/
 
     init_run     :      2.30s CPU      2.91s WALL (       1 calls)
     electrons    :     17.16s CPU     18.76s WALL (       1 calls)
     forces       :      0.53s CPU      0.68s WALL (       1 calls)
     stress       :      3.66s CPU      3.78s WALL (       1 calls)

     Called by init_run:
     wfcinit      :      0.87s CPU      1.02s WALL (       1 calls)
     potinit      :      0.08s CPU      0.14s WALL (       1 calls)
     hinit0       :      1.00s CPU      1.15s WALL (       1 calls)

     Called by electrons:
     c_bands      :     11.63s CPU     12.66s WALL (       7 calls)
     sum_band     :      3.66s CPU      3.93s WALL (       7 calls)
     v_of_rho     :      0.36s CPU      0.43s WALL (       7 calls)
     newd         :      1.66s CPU      1.89s WALL (       7 calls)
     mix_rho      :      0.07s CPU      0.08s WALL (       7 calls)

     Called by c_bands:
     init_us_2    :      0.96s CPU      1.02s WALL (     595 calls)
     init_us_2:cp :      0.95s CPU      1.01s WALL (     595 calls)
     ccgdiagg     :      9.26s CPU      9.79s WALL (     245 calls)
     wfcrot       :      2.59s CPU      2.77s WALL (     210 calls)

     Called by *cgdiagg:
     h_psi        :      9.84s CPU     10.27s WALL (    3174 calls)
     s_psi        :      0.93s CPU      1.07s WALL (    6138 calls)

     Called by h_psi:
     h_psi:calbec :      0.57s CPU      0.62s WALL (    3174 calls)
     vloc_psi     :      8.55s CPU      8.87s WALL (    3174 calls)
     add_vuspsi   :      0.54s CPU      0.59s WALL (    3174 calls)
     hs_1psi      :      8.07s CPU      8.46s WALL (    2964 calls)
     s_1psi       :      0.93s CPU      1.03s WALL (    2964 calls)

     General routines
     calbec       :      1.01s CPU      1.14s WALL (    6558 calls)
     fft          :      0.22s CPU      0.24s WALL (      49 calls)
     ffts         :      0.01s CPU      0.02s WALL (      14 calls)
     fftw         :      8.12s CPU      8.41s WALL (    8868 calls)
     interpolate  :      0.05s CPU      0.07s WALL (       7 calls)
 
     Parallel routines
 
     PWSCF        :     24.21s CPU     28.97s WALL

 
   This run was terminated on:   8:35:28  10Apr2022            

=------------------------------------------------------------------------------=
   JOB DONE.
=------------------------------------------------------------------------------=
