
     Program PHONON v.7.0 starts on 10Apr2022 at  8:35:30 

     This program is part of the open-source Quantum ESPRESSO suite
     for quantum simulation of materials; please cite
         "P. Giannozzi et al., J. Phys.:Condens. Matter 21 395502 (2009);
         "P. Giannozzi et al., J. Phys.:Condens. Matter 29 465901 (2017);
         "P. Giannozzi et al., J. Chem. Phys. 152 154105 (2020);
          URL http://www.quantum-espresso.org", 
     in publications or presentations arising from this work. More details at
     http://www.quantum-espresso.org/quote

     Parallel version (MPI), running on     1 processors

     MPI processes distributed on     1 nodes
     90614 MiB available memory on the printing compute node when the environment starts
 
     Waiting for input...
     Reading input from standard input

     Reading xml data from directory:

     ./Si.save/

     IMPORTANT: XC functional enforced from input :
     Exchange-correlation= PZ
                           (   1   1   0   0   0   0   0)
     Any further DFT definition will be discarded
     Please, verify this is what you really want

 
     G-vector sticks info
     --------------------
     sticks:   dense  smooth     PW     G-vecs:    dense   smooth      PW
     Sum        1789     721    211                50237    12627    2109
 
     Using Slab Decomposition
 
     Reading collected, re-writing distributed wavefunctions


     Dynamical matrices for ( 4, 4, 4)  uniform grid of q-points
     (   8 q-points):
       N         xq(1)         xq(2)         xq(3) 
       1   0.000000000   0.000000000   0.000000000
       2  -0.250000000   0.250000000  -0.250000000
       3   0.500000000  -0.500000000   0.500000000
       4   0.000000000   0.500000000   0.000000000
       5   0.750000000  -0.250000000   0.750000000
       6   0.500000000   0.000000000   0.500000000
       7   0.000000000  -1.000000000   0.000000000
       8  -0.500000000  -1.000000000   0.000000000

     Calculation of q =    0.0000000   0.0000000   0.0000000

     Phonons of Si                                                              

     bravais-lattice index     =            2
     lattice parameter (alat)  =      10.1941  a.u.
     unit-cell volume          =     264.8419 (a.u.)^3
     number of atoms/cell      =            2
     number of atomic types    =            1
     kinetic-energy cut-off    =      50.0000  Ry
     charge density cut-off    =     500.0000  Ry
     convergence threshold     =      1.0E-16
     beta                      =       0.7000
     number of iterations used =            4
     Exchange-correlation= PZ
                           (   1   1   0   0   0   0   0)


     celldm(1)=   10.19410  celldm(2)=    0.00000  celldm(3)=    0.00000
     celldm(4)=    0.00000  celldm(5)=    0.00000  celldm(6)=    0.00000

     crystal axes: (cart. coord. in units of alat)
               a(1) = ( -0.5000  0.0000  0.5000 )  
               a(2) = (  0.0000  0.5000  0.5000 )  
               a(3) = ( -0.5000  0.5000  0.0000 )  

     reciprocal axes: (cart. coord. in units 2 pi/alat)
               b(1) = ( -1.0000 -1.0000  1.0000 )  
               b(2) = (  1.0000  1.0000  1.0000 )  
               b(3) = ( -1.0000  1.0000 -1.0000 )  


     Atoms inside the unit cell: 

     Cartesian axes

     site n.  atom      mass           positions (alat units)
        1     Si  28.0855   tau(    1) = (    0.00000    0.00000    0.00000  )
        2     Si  28.0855   tau(    2) = (   -0.25000    0.25000    0.25000  )

     Computing dynamical matrix for 
                    q = (   0.0000000   0.0000000   0.0000000 )
 
     49 Sym.Ops. (with q -> -q+G )


     G cutoff = 1316.1581  (  50237 G-vectors)     FFT grid: ( 60, 60, 60)
     G cutoff =  526.4632  (  12627 G-vectors)  smooth grid: ( 36, 36, 36)
     number of k points=    35

     PseudoPot. # 1 for Si read from file:
     ./Si_LDA.UPF
     MD5 check sum: b5ade7b37ee992b02096e360e546dc2d
     Pseudo is Ultrasoft + core correction, Zval =  4.0
     Generated by new atomic code, or converted to UPF format
     Using radial grid of  899 points,  6 beta functions with: 
                l(1) =   0
                l(2) =   0
                l(3) =   1
                l(4) =   1
                l(5) =   2
                l(6) =   2
     Q(r) pseudized with  8 coefficients,  rinner =    0.900   0.900   0.900
                                                       0.900   0.900

     Mode symmetry, O_h (m-3m)  point group:


     Electric field:
     Dielectric constant
     Born effective charges in two ways 


     Atomic displacements:
     There are    2 irreducible representations

     Representation     1      3 modes -  To be done

     Representation     2      3 modes -  To be done



     Alpha used in Ewald sum =   2.8000
     PHONON       :     15.22s CPU     18.60s WALL


     Electric Fields Calculation

      iter #   1 total cpu time :    60.9 secs   av.it.:   5.9
      thresh= 1.000E-02 alpha_mix =  0.700 |ddv_scf|^2 =  3.342E-08

      iter #   2 total cpu time :    82.9 secs   av.it.:  12.1
      thresh= 1.828E-05 alpha_mix =  0.700 |ddv_scf|^2 =  1.309E-09

      iter #   3 total cpu time :   104.8 secs   av.it.:  12.0
      thresh= 3.618E-06 alpha_mix =  0.700 |ddv_scf|^2 =  1.866E-11

      iter #   4 total cpu time :   127.0 secs   av.it.:  12.2
      thresh= 4.320E-07 alpha_mix =  0.700 |ddv_scf|^2 =  8.264E-14

      iter #   5 total cpu time :   148.1 secs   av.it.:  11.5
      thresh= 2.875E-08 alpha_mix =  0.700 |ddv_scf|^2 =  5.297E-17

     End of electric fields calculation

          Dielectric constant in cartesian axis 

          (      13.996490324       0.000000000       0.000000000 )
          (       0.000000000      13.996490324       0.000000000 )
          (       0.000000000       0.000000000      13.996490324 )

          Effective charges (d Force / dE) in cartesian axis without acoustic sum rule applied (asr)

           atom      1   Si Mean Z*:       -0.05228
      Ex  (       -0.05228        0.00000       -0.00000 )
      Ey  (       -0.00000       -0.05228        0.00000 )
      Ez  (        0.00000        0.00000       -0.05228 )
           atom      2   Si Mean Z*:       -0.05228
      Ex  (       -0.05228        0.00000        0.00000 )
      Ey  (        0.00000       -0.05228       -0.00000 )
      Ez  (        0.00000       -0.00000       -0.05228 )

          Effective charges Sum: Mean:       -0.10455
             -0.10455        0.00000        0.00000
              0.00000       -0.10455       -0.00000
              0.00000       -0.00000       -0.10455

          Effective charges (d Force / dE) in cartesian axis with asr applied: 
           atom      1   Si Mean Z*:       -0.00000
      E*x (       -0.00000       -0.00000       -0.00000 )
      E*y (       -0.00000       -0.00000        0.00000 )
      E*z (       -0.00000        0.00000       -0.00000 )
           atom      2   Si Mean Z*:        0.00000
      E*x (        0.00000        0.00000        0.00000 )
      E*y (        0.00000        0.00000       -0.00000 )
      E*z (        0.00000       -0.00000        0.00000 )


     Representation #   1 modes #   1   2   3

     Self-consistent Calculation

      iter #   1 total cpu time :   179.4 secs   av.it.:   5.2
      thresh= 1.000E-02 alpha_mix =  0.700 |ddv_scf|^2 =  4.718E-09

      iter #   2 total cpu time :   203.7 secs   av.it.:  12.4
      thresh= 6.869E-06 alpha_mix =  0.700 |ddv_scf|^2 =  1.564E-10

      iter #   3 total cpu time :   227.6 secs   av.it.:  12.2
      thresh= 1.250E-06 alpha_mix =  0.700 |ddv_scf|^2 =  9.494E-12

      iter #   4 total cpu time :   251.0 secs   av.it.:  11.9
      thresh= 3.081E-07 alpha_mix =  0.700 |ddv_scf|^2 =  1.669E-14

      iter #   5 total cpu time :   275.1 secs   av.it.:  12.6
      thresh= 1.292E-08 alpha_mix =  0.700 |ddv_scf|^2 =  9.901E-17

     End of self-consistent calculation

     Convergence has been achieved 


     Representation #   2 modes #   4   5   6

     Self-consistent Calculation

      iter #   1 total cpu time :   295.1 secs   av.it.:   5.3
      thresh= 1.000E-02 alpha_mix =  0.700 |ddv_scf|^2 =  3.843E-09

      iter #   2 total cpu time :   319.7 secs   av.it.:  12.6
      thresh= 6.199E-06 alpha_mix =  0.700 |ddv_scf|^2 =  1.814E-10

      iter #   3 total cpu time :   343.7 secs   av.it.:  12.3
      thresh= 1.347E-06 alpha_mix =  0.700 |ddv_scf|^2 =  1.066E-11

      iter #   4 total cpu time :   367.9 secs   av.it.:  12.6
      thresh= 3.265E-07 alpha_mix =  0.700 |ddv_scf|^2 =  1.816E-14

      iter #   5 total cpu time :   392.2 secs   av.it.:  12.8
      thresh= 1.347E-08 alpha_mix =  0.700 |ddv_scf|^2 =  5.926E-17

     End of self-consistent calculation

     Convergence has been achieved 
 
     Number of q in the star =    1
     List of q in the star:
          1   0.000000000   0.000000000   0.000000000

          Dielectric constant in cartesian axis 

          (      13.996490324       0.000000000       0.000000000 )
          (       0.000000000      13.996490324       0.000000000 )
          (       0.000000000       0.000000000      13.996490324 )

          Effective charges (d Force / dE) in cartesian axis without acoustic sum rule applied (asr)

           atom      1   Si Mean Z*:       -0.05228
      Ex  (       -0.05228        0.00000       -0.00000 )
      Ey  (       -0.00000       -0.05228        0.00000 )
      Ez  (        0.00000        0.00000       -0.05228 )
           atom      2   Si Mean Z*:       -0.05228
      Ex  (       -0.05228        0.00000        0.00000 )
      Ey  (        0.00000       -0.05228       -0.00000 )
      Ez  (        0.00000       -0.00000       -0.05228 )

          Effective charges Sum: Mean:       -0.10455
             -0.10455        0.00000        0.00000
              0.00000       -0.10455       -0.00000
              0.00000       -0.00000       -0.10455

          Effective charges (d Force / dE) in cartesian axis with asr applied: 
           atom      1   Si Mean Z*:       -0.00000
      E*x (       -0.00000       -0.00000       -0.00000 )
      E*y (       -0.00000       -0.00000        0.00000 )
      E*z (       -0.00000        0.00000       -0.00000 )
           atom      2   Si Mean Z*:        0.00000
      E*x (        0.00000        0.00000        0.00000 )
      E*y (        0.00000        0.00000       -0.00000 )
      E*z (        0.00000       -0.00000        0.00000 )

          Effective charges (d P / du) in cartesian axis 

           atom      1   Si 
      Px  (       -0.05214       -0.00000       -0.00000 )
      Py  (       -0.00000       -0.05214        0.00000 )
      Pz  (       -0.00000        0.00000       -0.05214 )
           atom      2   Si 
      Px  (       -0.05214       -0.00000       -0.00000 )
      Py  (       -0.00000       -0.05214        0.00000 )
      Pz  (       -0.00000        0.00000       -0.05214 )

     Diagonalizing the dynamical matrix

     q = (    0.000000000   0.000000000   0.000000000 ) 

 **************************************************************************
     freq (    1) =      -0.222328 [THz] =      -7.416060 [cm-1]
     freq (    2) =      -0.222328 [THz] =      -7.416060 [cm-1]
     freq (    3) =      -0.222328 [THz] =      -7.416060 [cm-1]
     freq (    4) =      15.452498 [THz] =     515.439862 [cm-1]
     freq (    5) =      15.452498 [THz] =     515.439862 [cm-1]
     freq (    6) =      15.452498 [THz] =     515.439862 [cm-1]
 **************************************************************************

     Mode symmetry, O_h (m-3m)  point group:

     freq (   1-   3) =         -7.4  [cm-1]   --> T_1u G_15  G_4- I  
     freq (   4-   6) =        515.4  [cm-1]   --> T_2g G_25' G_5+ R  

     Calculation of q =   -0.2500000   0.2500000  -0.2500000

     Subspace diagonalization in iterative solution of the eigenvalue problem:
     a serial algorithm will be used

 
     G-vector sticks info
     --------------------
     sticks:   dense  smooth     PW     G-vecs:    dense   smooth      PW
     Sum        1789     721    241                50237    12627    2421
 
     Using Slab Decomposition
 

     Title: 
     Phonons of Si                                                              


     bravais-lattice index     =            2
     lattice parameter (alat)  =      10.1941  a.u.
     unit-cell volume          =     264.8419 (a.u.)^3
     number of atoms/cell      =            2
     number of atomic types    =            1
     number of electrons       =         8.00
     number of Kohn-Sham states=            4
     kinetic-energy cutoff     =      50.0000  Ry
     charge density cutoff     =     500.0000  Ry
     Exchange-correlation= PZ
                           (   1   1   0   0   0   0   0)

     celldm(1)=  10.194100  celldm(2)=   0.000000  celldm(3)=   0.000000
     celldm(4)=   0.000000  celldm(5)=   0.000000  celldm(6)=   0.000000

     crystal axes: (cart. coord. in units of alat)
               a(1) = (  -0.500000   0.000000   0.500000 )  
               a(2) = (   0.000000   0.500000   0.500000 )  
               a(3) = (  -0.500000   0.500000   0.000000 )  

     reciprocal axes: (cart. coord. in units 2 pi/alat)
               b(1) = ( -1.000000 -1.000000  1.000000 )  
               b(2) = (  1.000000  1.000000  1.000000 )  
               b(3) = ( -1.000000  1.000000 -1.000000 )  


     PseudoPot. # 1 for Si read from file:
     ./Si_LDA.UPF
     MD5 check sum: b5ade7b37ee992b02096e360e546dc2d
     Pseudo is Ultrasoft + core correction, Zval =  4.0
     Generated by new atomic code, or converted to UPF format
     Using radial grid of  899 points,  6 beta functions with: 
                l(1) =   0
                l(2) =   0
                l(3) =   1
                l(4) =   1
                l(5) =   2
                l(6) =   2
     Q(r) pseudized with  8 coefficients,  rinner =    0.900   0.900   0.900
                                                       0.900   0.900

     atomic species   valence    mass     pseudopotential
        Si             4.00    28.08550     Si( 1.00)

     48 Sym. Ops., with inversion, found



   Cartesian axes

     site n.     atom                  positions (alat units)
         1           Si  tau(   1) = (   0.0000000   0.0000000   0.0000000  )
         2           Si  tau(   2) = (  -0.2500000   0.2500000   0.2500000  )

     number of k points=   330

     Number of k-points >= 100: set verbosity='high' to print them.

     Dense  grid:    50237 G-vectors     FFT dimensions: (  60,  60,  60)

     Smooth grid:    12627 G-vectors     FFT dimensions: (  36,  36,  36)

     Estimated max dynamical RAM per process >     167.65 MB

     The potential is recalculated from file :
     ./_ph0/Si.save/charge-density

     Starting wfcs are    8 atomic wfcs

     Band Structure Calculation
     Davidson diagonalization with overlap

     ethr =  1.25E-10,  avg # of iterations = 13.2

     total cpu time spent up to now is       63.4 secs

     End of band structure calculation

     Number of k-points >= 100: set verbosity='high' to print the bands.

     highest occupied level (ev):     6.2187

     Writing config to output data dir ./_ph0/Si.save/

     Phonons of Si                                                              

     bravais-lattice index     =            2
     lattice parameter (alat)  =      10.1941  a.u.
     unit-cell volume          =     264.8419 (a.u.)^3
     number of atoms/cell      =            2
     number of atomic types    =            1
     kinetic-energy cut-off    =      50.0000  Ry
     charge density cut-off    =     500.0000  Ry
     convergence threshold     =      1.0E-16
     beta                      =       0.7000
     number of iterations used =            4
     Exchange-correlation= PZ
                           (   1   1   0   0   0   0   0)


     celldm(1)=   10.19410  celldm(2)=    0.00000  celldm(3)=    0.00000
     celldm(4)=    0.00000  celldm(5)=    0.00000  celldm(6)=    0.00000

     crystal axes: (cart. coord. in units of alat)
               a(1) = ( -0.5000  0.0000  0.5000 )  
               a(2) = (  0.0000  0.5000  0.5000 )  
               a(3) = ( -0.5000  0.5000  0.0000 )  

     reciprocal axes: (cart. coord. in units 2 pi/alat)
               b(1) = ( -1.0000 -1.0000  1.0000 )  
               b(2) = (  1.0000  1.0000  1.0000 )  
               b(3) = ( -1.0000  1.0000 -1.0000 )  


     Atoms inside the unit cell: 

     Cartesian axes

     site n.  atom      mass           positions (alat units)
        1     Si  28.0855   tau(    1) = (    0.00000    0.00000    0.00000  )
        2     Si  28.0855   tau(    2) = (   -0.25000    0.25000    0.25000  )

     Computing dynamical matrix for 
                    q = (  -0.2500000   0.2500000  -0.2500000 )
 
      6 Sym.Ops. (no q -> -q+G )


     G cutoff = 1316.1581  (  50237 G-vectors)     FFT grid: ( 60, 60, 60)
     G cutoff =  526.4632  (  12627 G-vectors)  smooth grid: ( 36, 36, 36)
     number of k points=   330

     PseudoPot. # 1 for Si read from file:
     ./Si_LDA.UPF
     MD5 check sum: b5ade7b37ee992b02096e360e546dc2d
     Pseudo is Ultrasoft + core correction, Zval =  4.0
     Generated by new atomic code, or converted to UPF format
     Using radial grid of  899 points,  6 beta functions with: 
                l(1) =   0
                l(2) =   0
                l(3) =   1
                l(4) =   1
                l(5) =   2
                l(6) =   2
     Q(r) pseudized with  8 coefficients,  rinner =    0.900   0.900   0.900
                                                       0.900   0.900

     Mode symmetry, C_3v (3m)   point group:


     Atomic displacements:
     There are    4 irreducible representations

     Representation     1      1 modes -  To be done

     Representation     2      1 modes -  To be done

     Representation     3      2 modes -  To be done

     Representation     4      2 modes -  To be done



     Alpha used in Ewald sum =   2.8000
     PHONON       :   7m35.36s CPU   8m 3.09s WALL



     Representation #   1 mode #   1

     Self-consistent Calculation

      iter #   1 total cpu time :   502.2 secs   av.it.:   6.1
      thresh= 1.000E-02 alpha_mix =  0.700 |ddv_scf|^2 =  1.010E-04

      iter #   2 total cpu time :   528.3 secs   av.it.:  10.4
      thresh= 1.005E-03 alpha_mix =  0.700 |ddv_scf|^2 =  1.615E-03

      iter #   3 total cpu time :   550.5 secs   av.it.:   8.2
      thresh= 4.019E-03 alpha_mix =  0.700 |ddv_scf|^2 =  5.737E-08

      iter #   4 total cpu time :   577.5 secs   av.it.:  10.7
      thresh= 2.395E-05 alpha_mix =  0.700 |ddv_scf|^2 =  3.901E-09

      iter #   5 total cpu time :   604.5 secs   av.it.:  10.8
      thresh= 6.245E-06 alpha_mix =  0.700 |ddv_scf|^2 =  7.645E-11

      iter #   6 total cpu time :   631.4 secs   av.it.:  10.7
      thresh= 8.744E-07 alpha_mix =  0.700 |ddv_scf|^2 =  7.748E-12

      iter #   7 total cpu time :   658.0 secs   av.it.:  10.7
      thresh= 2.783E-07 alpha_mix =  0.700 |ddv_scf|^2 =  3.544E-12

      iter #   8 total cpu time :   680.9 secs   av.it.:   8.5
      thresh= 1.882E-07 alpha_mix =  0.700 |ddv_scf|^2 =  1.335E-13

      iter #   9 total cpu time :   706.4 secs   av.it.:  10.1
      thresh= 3.654E-08 alpha_mix =  0.700 |ddv_scf|^2 =  1.183E-14

      iter #  10 total cpu time :   732.4 secs   av.it.:  10.3
      thresh= 1.088E-08 alpha_mix =  0.700 |ddv_scf|^2 =  5.782E-16

      iter #  11 total cpu time :   758.5 secs   av.it.:  10.4
      thresh= 2.405E-09 alpha_mix =  0.700 |ddv_scf|^2 =  6.338E-17

     End of self-consistent calculation

     Convergence has been achieved 


     Representation #   2 mode #   2

     Self-consistent Calculation

      iter #   1 total cpu time :   778.4 secs   av.it.:   6.1
      thresh= 1.000E-02 alpha_mix =  0.700 |ddv_scf|^2 =  1.010E-04

      iter #   2 total cpu time :   804.4 secs   av.it.:  10.4
      thresh= 1.005E-03 alpha_mix =  0.700 |ddv_scf|^2 =  1.615E-03

      iter #   3 total cpu time :   826.7 secs   av.it.:   8.2
      thresh= 4.019E-03 alpha_mix =  0.700 |ddv_scf|^2 =  5.737E-08

      iter #   4 total cpu time :   853.5 secs   av.it.:  10.7
      thresh= 2.395E-05 alpha_mix =  0.700 |ddv_scf|^2 =  3.901E-09

      iter #   5 total cpu time :   880.6 secs   av.it.:  10.8
      thresh= 6.245E-06 alpha_mix =  0.700 |ddv_scf|^2 =  7.645E-11

      iter #   6 total cpu time :   907.3 secs   av.it.:  10.7
      thresh= 8.744E-07 alpha_mix =  0.700 |ddv_scf|^2 =  7.748E-12

      iter #   7 total cpu time :   933.9 secs   av.it.:  10.7
      thresh= 2.783E-07 alpha_mix =  0.700 |ddv_scf|^2 =  3.544E-12

      iter #   8 total cpu time :   956.9 secs   av.it.:   8.5
      thresh= 1.882E-07 alpha_mix =  0.700 |ddv_scf|^2 =  1.335E-13

      iter #   9 total cpu time :   982.6 secs   av.it.:  10.1
      thresh= 3.654E-08 alpha_mix =  0.700 |ddv_scf|^2 =  1.183E-14

      iter #  10 total cpu time :  1008.4 secs   av.it.:  10.3
      thresh= 1.088E-08 alpha_mix =  0.700 |ddv_scf|^2 =  5.782E-16

      iter #  11 total cpu time :  1034.4 secs   av.it.:  10.4
      thresh= 2.405E-09 alpha_mix =  0.700 |ddv_scf|^2 =  6.338E-17

     End of self-consistent calculation

     Convergence has been achieved 


     Representation #   3 modes #   3   4

     Self-consistent Calculation

      iter #   1 total cpu time :  1069.3 secs   av.it.:   5.5
      thresh= 1.000E-02 alpha_mix =  0.700 |ddv_scf|^2 =  1.393E-08

      iter #   2 total cpu time :  1128.3 secs   av.it.:  12.6
      thresh= 1.180E-05 alpha_mix =  0.700 |ddv_scf|^2 =  8.383E-10

      iter #   3 total cpu time :  1186.7 secs   av.it.:  12.3
      thresh= 2.895E-06 alpha_mix =  0.700 |ddv_scf|^2 =  3.275E-11

      iter #   4 total cpu time :  1244.9 secs   av.it.:  12.3
      thresh= 5.722E-07 alpha_mix =  0.700 |ddv_scf|^2 =  1.361E-13

      iter #   5 total cpu time :  1303.4 secs   av.it.:  12.4
      thresh= 3.690E-08 alpha_mix =  0.700 |ddv_scf|^2 =  4.434E-15

      iter #   6 total cpu time :  1362.5 secs   av.it.:  12.7
      thresh= 6.659E-09 alpha_mix =  0.700 |ddv_scf|^2 =  2.357E-17

     End of self-consistent calculation

     Convergence has been achieved 


     Representation #   4 modes #   5   6

     Self-consistent Calculation

      iter #   1 total cpu time :  1397.3 secs   av.it.:   5.4
      thresh= 1.000E-02 alpha_mix =  0.700 |ddv_scf|^2 =  1.394E-08

      iter #   2 total cpu time :  1454.8 secs   av.it.:  12.1
      thresh= 1.181E-05 alpha_mix =  0.700 |ddv_scf|^2 =  8.405E-10

      iter #   3 total cpu time :  1511.6 secs   av.it.:  11.8
      thresh= 2.899E-06 alpha_mix =  0.700 |ddv_scf|^2 =  3.277E-11

      iter #   4 total cpu time :  1568.4 secs   av.it.:  11.9
      thresh= 5.724E-07 alpha_mix =  0.700 |ddv_scf|^2 =  1.354E-13

      iter #   5 total cpu time :  1625.4 secs   av.it.:  12.0
      thresh= 3.679E-08 alpha_mix =  0.700 |ddv_scf|^2 =  4.413E-15

      iter #   6 total cpu time :  1683.0 secs   av.it.:  12.2
      thresh= 6.643E-09 alpha_mix =  0.700 |ddv_scf|^2 =  2.359E-17

     End of self-consistent calculation

     Convergence has been achieved 
 
     Number of q in the star =    8
     List of q in the star:
          1  -0.250000000   0.250000000  -0.250000000
          2   0.250000000  -0.250000000  -0.250000000
          3   0.250000000  -0.250000000   0.250000000
          4   0.250000000   0.250000000   0.250000000
          5  -0.250000000  -0.250000000  -0.250000000
          6  -0.250000000  -0.250000000   0.250000000
          7  -0.250000000   0.250000000   0.250000000
          8   0.250000000   0.250000000  -0.250000000

     Diagonalizing the dynamical matrix

     q = (   -0.250000000   0.250000000  -0.250000000 ) 

 **************************************************************************
     freq (    1) =       2.744214 [THz] =      91.537125 [cm-1]
     freq (    2) =       2.744214 [THz] =      91.537125 [cm-1]
     freq (    3) =       6.883940 [THz] =     229.623530 [cm-1]
     freq (    4) =      14.573858 [THz] =     486.131565 [cm-1]
     freq (    5) =      14.916374 [THz] =     497.556687 [cm-1]
     freq (    6) =      14.916374 [THz] =     497.556687 [cm-1]
 **************************************************************************

     Mode symmetry, C_3v (3m)   point group:

     freq (   1-   2) =         91.5  [cm-1]   --> E    L_3           
     freq (   3-   3) =        229.6  [cm-1]   --> A_1  L_1           
     freq (   4-   4) =        486.1  [cm-1]   --> A_1  L_1           
     freq (   5-   6) =        497.6  [cm-1]   --> E    L_3           

     Calculation of q =    0.5000000  -0.5000000   0.5000000
 
     G-vector sticks info
     --------------------
     sticks:   dense  smooth     PW     G-vecs:    dense   smooth      PW
     Sum        1789     721    253                50237    12627    2637
 
     Using Slab Decomposition
 

     Title: 
     Phonons of Si                                                              


     bravais-lattice index     =            2
     lattice parameter (alat)  =      10.1941  a.u.
     unit-cell volume          =     264.8419 (a.u.)^3
     number of atoms/cell      =            2
     number of atomic types    =            1
     number of electrons       =         8.00
     number of Kohn-Sham states=            4
     kinetic-energy cutoff     =      50.0000  Ry
     charge density cutoff     =     500.0000  Ry
     Exchange-correlation= PZ
                           (   1   1   0   0   0   0   0)

     celldm(1)=  10.194100  celldm(2)=   0.000000  celldm(3)=   0.000000
     celldm(4)=   0.000000  celldm(5)=   0.000000  celldm(6)=   0.000000

     crystal axes: (cart. coord. in units of alat)
               a(1) = (  -0.500000   0.000000   0.500000 )  
               a(2) = (   0.000000   0.500000   0.500000 )  
               a(3) = (  -0.500000   0.500000   0.000000 )  

     reciprocal axes: (cart. coord. in units 2 pi/alat)
               b(1) = ( -1.000000 -1.000000  1.000000 )  
               b(2) = (  1.000000  1.000000  1.000000 )  
               b(3) = ( -1.000000  1.000000 -1.000000 )  


     PseudoPot. # 1 for Si read from file:
     ./Si_LDA.UPF
     MD5 check sum: b5ade7b37ee992b02096e360e546dc2d
     Pseudo is Ultrasoft + core correction, Zval =  4.0
     Generated by new atomic code, or converted to UPF format
     Using radial grid of  899 points,  6 beta functions with: 
                l(1) =   0
                l(2) =   0
                l(3) =   1
                l(4) =   1
                l(5) =   2
                l(6) =   2
     Q(r) pseudized with  8 coefficients,  rinner =    0.900   0.900   0.900
                                                       0.900   0.900

     atomic species   valence    mass     pseudopotential
        Si             4.00    28.08550     Si( 1.00)

     48 Sym. Ops., with inversion, found



   Cartesian axes

     site n.     atom                  positions (alat units)
         1           Si  tau(   1) = (   0.0000000   0.0000000   0.0000000  )
         2           Si  tau(   2) = (  -0.2500000   0.2500000   0.2500000  )

     number of k points=   170

     Number of k-points >= 100: set verbosity='high' to print them.

     Dense  grid:    50237 G-vectors     FFT dimensions: (  60,  60,  60)

     Smooth grid:    12627 G-vectors     FFT dimensions: (  36,  36,  36)

     Estimated max dynamical RAM per process >     167.67 MB

     The potential is recalculated from file :
     ./_ph0/Si.save/charge-density

     Starting wfcs are    8 atomic wfcs

     Band Structure Calculation
     Davidson diagonalization with overlap

     ethr =  1.25E-10,  avg # of iterations = 13.2

     total cpu time spent up to now is       95.3 secs

     End of band structure calculation

     Number of k-points >= 100: set verbosity='high' to print the bands.

     highest occupied level (ev):     6.2187

     Writing config to output data dir ./_ph0/Si.save/

     Phonons of Si                                                              

     bravais-lattice index     =            2
     lattice parameter (alat)  =      10.1941  a.u.
     unit-cell volume          =     264.8419 (a.u.)^3
     number of atoms/cell      =            2
     number of atomic types    =            1
     kinetic-energy cut-off    =      50.0000  Ry
     charge density cut-off    =     500.0000  Ry
     convergence threshold     =      1.0E-16
     beta                      =       0.7000
     number of iterations used =            4
     Exchange-correlation= PZ
                           (   1   1   0   0   0   0   0)


     celldm(1)=   10.19410  celldm(2)=    0.00000  celldm(3)=    0.00000
     celldm(4)=    0.00000  celldm(5)=    0.00000  celldm(6)=    0.00000

     crystal axes: (cart. coord. in units of alat)
               a(1) = ( -0.5000  0.0000  0.5000 )  
               a(2) = (  0.0000  0.5000  0.5000 )  
               a(3) = ( -0.5000  0.5000  0.0000 )  

     reciprocal axes: (cart. coord. in units 2 pi/alat)
               b(1) = ( -1.0000 -1.0000  1.0000 )  
               b(2) = (  1.0000  1.0000  1.0000 )  
               b(3) = ( -1.0000  1.0000 -1.0000 )  


     Atoms inside the unit cell: 

     Cartesian axes

     site n.  atom      mass           positions (alat units)
        1     Si  28.0855   tau(    1) = (    0.00000    0.00000    0.00000  )
        2     Si  28.0855   tau(    2) = (   -0.25000    0.25000    0.25000  )

     Computing dynamical matrix for 
                    q = (   0.5000000  -0.5000000   0.5000000 )
 
     13 Sym.Ops. (with q -> -q+G )


     G cutoff = 1316.1581  (  50237 G-vectors)     FFT grid: ( 60, 60, 60)
     G cutoff =  526.4632  (  12627 G-vectors)  smooth grid: ( 36, 36, 36)
     number of k points=   170

     PseudoPot. # 1 for Si read from file:
     ./Si_LDA.UPF
     MD5 check sum: b5ade7b37ee992b02096e360e546dc2d
     Pseudo is Ultrasoft + core correction, Zval =  4.0
     Generated by new atomic code, or converted to UPF format
     Using radial grid of  899 points,  6 beta functions with: 
                l(1) =   0
                l(2) =   0
                l(3) =   1
                l(4) =   1
                l(5) =   2
                l(6) =   2
     Q(r) pseudized with  8 coefficients,  rinner =    0.900   0.900   0.900
                                                       0.900   0.900


     Atomic displacements:
     There are    4 irreducible representations

     Representation     1      1 modes -  To be done

     Representation     2      1 modes -  To be done

     Representation     3      2 modes -  To be done

     Representation     4      2 modes -  To be done



     Alpha used in Ewald sum =   2.8000
     PHONON       :  27m31.83s CPU  28m55.14s WALL



     Representation #   1 mode #   1

     Self-consistent Calculation

      iter #   1 total cpu time :  1745.5 secs   av.it.:   5.2
      thresh= 1.000E-02 alpha_mix =  0.700 |ddv_scf|^2 =  9.675E-07

      iter #   2 total cpu time :  1760.8 secs   av.it.:  11.0
      thresh= 9.836E-05 alpha_mix =  0.700 |ddv_scf|^2 =  9.354E-07

      iter #   3 total cpu time :  1775.5 secs   av.it.:  10.3
      thresh= 9.672E-05 alpha_mix =  0.700 |ddv_scf|^2 =  3.498E-10

      iter #   4 total cpu time :  1790.6 secs   av.it.:  10.7
      thresh= 1.870E-06 alpha_mix =  0.700 |ddv_scf|^2 =  4.382E-12

      iter #   5 total cpu time :  1805.5 secs   av.it.:  10.4
      thresh= 2.093E-07 alpha_mix =  0.700 |ddv_scf|^2 =  3.371E-14

      iter #   6 total cpu time :  1820.7 secs   av.it.:  10.8
      thresh= 1.836E-08 alpha_mix =  0.700 |ddv_scf|^2 =  5.515E-16

      iter #   7 total cpu time :  1835.6 secs   av.it.:  10.6
      thresh= 2.348E-09 alpha_mix =  0.700 |ddv_scf|^2 =  3.288E-18

     End of self-consistent calculation

     Convergence has been achieved 


     Representation #   2 mode #   2

     Self-consistent Calculation

      iter #   1 total cpu time :  1847.3 secs   av.it.:   6.1
      thresh= 1.000E-02 alpha_mix =  0.700 |ddv_scf|^2 =  1.386E-05

      iter #   2 total cpu time :  1862.6 secs   av.it.:  11.0
      thresh= 3.722E-04 alpha_mix =  0.700 |ddv_scf|^2 =  4.434E-05

      iter #   3 total cpu time :  1876.9 secs   av.it.:   9.8
      thresh= 6.659E-04 alpha_mix =  0.700 |ddv_scf|^2 =  3.152E-09

      iter #   4 total cpu time :  1892.1 secs   av.it.:  10.8
      thresh= 5.615E-06 alpha_mix =  0.700 |ddv_scf|^2 =  1.240E-10

      iter #   5 total cpu time :  1907.6 secs   av.it.:  11.1
      thresh= 1.114E-06 alpha_mix =  0.700 |ddv_scf|^2 =  2.721E-12

      iter #   6 total cpu time :  1923.0 secs   av.it.:  11.0
      thresh= 1.649E-07 alpha_mix =  0.700 |ddv_scf|^2 =  1.347E-13

      iter #   7 total cpu time :  1937.9 secs   av.it.:  10.5
      thresh= 3.670E-08 alpha_mix =  0.700 |ddv_scf|^2 =  2.124E-17

     End of self-consistent calculation

     Convergence has been achieved 


     Representation #   3 modes #   3   4

     Self-consistent Calculation

      iter #   1 total cpu time :  1957.8 secs   av.it.:   5.3
      thresh= 1.000E-02 alpha_mix =  0.700 |ddv_scf|^2 =  3.011E-08

      iter #   2 total cpu time :  1989.3 secs   av.it.:  12.2
      thresh= 1.735E-05 alpha_mix =  0.700 |ddv_scf|^2 =  2.420E-09

      iter #   3 total cpu time :  2020.0 secs   av.it.:  11.9
      thresh= 4.920E-06 alpha_mix =  0.700 |ddv_scf|^2 =  4.142E-11

      iter #   4 total cpu time :  2050.3 secs   av.it.:  11.6
      thresh= 6.436E-07 alpha_mix =  0.700 |ddv_scf|^2 =  3.352E-14

      iter #   5 total cpu time :  2081.7 secs   av.it.:  12.1
      thresh= 1.831E-08 alpha_mix =  0.700 |ddv_scf|^2 =  4.975E-16

      iter #   6 total cpu time :  2112.8 secs   av.it.:  12.0
      thresh= 2.231E-09 alpha_mix =  0.700 |ddv_scf|^2 =  5.853E-18

     End of self-consistent calculation

     Convergence has been achieved 


     Representation #   4 modes #   5   6

     Self-consistent Calculation

      iter #   1 total cpu time :  2132.8 secs   av.it.:   5.2
      thresh= 1.000E-02 alpha_mix =  0.700 |ddv_scf|^2 =  5.059E-09

      iter #   2 total cpu time :  2164.3 secs   av.it.:  12.4
      thresh= 7.113E-06 alpha_mix =  0.700 |ddv_scf|^2 =  2.220E-10

      iter #   3 total cpu time :  2195.9 secs   av.it.:  12.2
      thresh= 1.490E-06 alpha_mix =  0.700 |ddv_scf|^2 =  9.320E-12

      iter #   4 total cpu time :  2227.3 secs   av.it.:  12.2
      thresh= 3.053E-07 alpha_mix =  0.700 |ddv_scf|^2 =  4.244E-14

      iter #   5 total cpu time :  2258.9 secs   av.it.:  12.3
      thresh= 2.060E-08 alpha_mix =  0.700 |ddv_scf|^2 =  5.770E-16

      iter #   6 total cpu time :  2290.8 secs   av.it.:  12.5
      thresh= 2.402E-09 alpha_mix =  0.700 |ddv_scf|^2 =  1.956E-18

     End of self-consistent calculation

     Convergence has been achieved 
 
     Number of q in the star =    4
     List of q in the star:
          1   0.500000000  -0.500000000   0.500000000
          2   0.500000000   0.500000000   0.500000000
          3  -0.500000000   0.500000000   0.500000000
          4   0.500000000   0.500000000  -0.500000000

     Diagonalizing the dynamical matrix

     q = (    0.500000000  -0.500000000   0.500000000 ) 

 **************************************************************************
     freq (    1) =       3.110568 [THz] =     103.757382 [cm-1]
     freq (    2) =       3.110568 [THz] =     103.757382 [cm-1]
     freq (    3) =      11.166644 [THz] =     372.479153 [cm-1]
     freq (    4) =      12.437298 [THz] =     414.863604 [cm-1]
     freq (    5) =      14.750131 [THz] =     492.011416 [cm-1]
     freq (    6) =      14.750131 [THz] =     492.011416 [cm-1]
 **************************************************************************

     Calculation of q =    0.0000000   0.5000000   0.0000000
 
     G-vector sticks info
     --------------------
     sticks:   dense  smooth     PW     G-vecs:    dense   smooth      PW
     Sum        1789     721    241                50237    12627    2421
 
     Using Slab Decomposition
 

     Title: 
     Phonons of Si                                                              


     bravais-lattice index     =            2
     lattice parameter (alat)  =      10.1941  a.u.
     unit-cell volume          =     264.8419 (a.u.)^3
     number of atoms/cell      =            2
     number of atomic types    =            1
     number of electrons       =         8.00
     number of Kohn-Sham states=            4
     kinetic-energy cutoff     =      50.0000  Ry
     charge density cutoff     =     500.0000  Ry
     Exchange-correlation= PZ
                           (   1   1   0   0   0   0   0)

     celldm(1)=  10.194100  celldm(2)=   0.000000  celldm(3)=   0.000000
     celldm(4)=   0.000000  celldm(5)=   0.000000  celldm(6)=   0.000000

     crystal axes: (cart. coord. in units of alat)
               a(1) = (  -0.500000   0.000000   0.500000 )  
               a(2) = (   0.000000   0.500000   0.500000 )  
               a(3) = (  -0.500000   0.500000   0.000000 )  

     reciprocal axes: (cart. coord. in units 2 pi/alat)
               b(1) = ( -1.000000 -1.000000  1.000000 )  
               b(2) = (  1.000000  1.000000  1.000000 )  
               b(3) = ( -1.000000  1.000000 -1.000000 )  


     PseudoPot. # 1 for Si read from file:
     ./Si_LDA.UPF
     MD5 check sum: b5ade7b37ee992b02096e360e546dc2d
     Pseudo is Ultrasoft + core correction, Zval =  4.0
     Generated by new atomic code, or converted to UPF format
     Using radial grid of  899 points,  6 beta functions with: 
                l(1) =   0
                l(2) =   0
                l(3) =   1
                l(4) =   1
                l(5) =   2
                l(6) =   2
     Q(r) pseudized with  8 coefficients,  rinner =    0.900   0.900   0.900
                                                       0.900   0.900

     atomic species   valence    mass     pseudopotential
        Si             4.00    28.08550     Si( 1.00)

     48 Sym. Ops., with inversion, found



   Cartesian axes

     site n.     atom                  positions (alat units)
         1           Si  tau(   1) = (   0.0000000   0.0000000   0.0000000  )
         2           Si  tau(   2) = (  -0.2500000   0.2500000   0.2500000  )

     number of k points=   270

     Number of k-points >= 100: set verbosity='high' to print them.

     Dense  grid:    50237 G-vectors     FFT dimensions: (  60,  60,  60)

     Smooth grid:    12627 G-vectors     FFT dimensions: (  36,  36,  36)

     Estimated max dynamical RAM per process >     167.65 MB

     The potential is recalculated from file :
     ./_ph0/Si.save/charge-density

     Starting wfcs are    8 atomic wfcs

     Band Structure Calculation
     Davidson diagonalization with overlap

     ethr =  1.25E-10,  avg # of iterations = 13.2

     total cpu time spent up to now is      144.7 secs

     End of band structure calculation

     Number of k-points >= 100: set verbosity='high' to print the bands.

     highest occupied level (ev):     6.2187

     Writing config to output data dir ./_ph0/Si.save/

     Phonons of Si                                                              

     bravais-lattice index     =            2
     lattice parameter (alat)  =      10.1941  a.u.
     unit-cell volume          =     264.8419 (a.u.)^3
     number of atoms/cell      =            2
     number of atomic types    =            1
     kinetic-energy cut-off    =      50.0000  Ry
     charge density cut-off    =     500.0000  Ry
     convergence threshold     =      1.0E-16
     beta                      =       0.7000
     number of iterations used =            4
     Exchange-correlation= PZ
                           (   1   1   0   0   0   0   0)


     celldm(1)=   10.19410  celldm(2)=    0.00000  celldm(3)=    0.00000
     celldm(4)=    0.00000  celldm(5)=    0.00000  celldm(6)=    0.00000

     crystal axes: (cart. coord. in units of alat)
               a(1) = ( -0.5000  0.0000  0.5000 )  
               a(2) = (  0.0000  0.5000  0.5000 )  
               a(3) = ( -0.5000  0.5000  0.0000 )  

     reciprocal axes: (cart. coord. in units 2 pi/alat)
               b(1) = ( -1.0000 -1.0000  1.0000 )  
               b(2) = (  1.0000  1.0000  1.0000 )  
               b(3) = ( -1.0000  1.0000 -1.0000 )  


     Atoms inside the unit cell: 

     Cartesian axes

     site n.  atom      mass           positions (alat units)
        1     Si  28.0855   tau(    1) = (    0.00000    0.00000    0.00000  )
        2     Si  28.0855   tau(    2) = (   -0.25000    0.25000    0.25000  )

     Computing dynamical matrix for 
                    q = (   0.0000000   0.5000000   0.0000000 )
 
      8 Sym.Ops. (no q -> -q+G )


     G cutoff = 1316.1581  (  50237 G-vectors)     FFT grid: ( 60, 60, 60)
     G cutoff =  526.4632  (  12627 G-vectors)  smooth grid: ( 36, 36, 36)
     number of k points=   270

     PseudoPot. # 1 for Si read from file:
     ./Si_LDA.UPF
     MD5 check sum: b5ade7b37ee992b02096e360e546dc2d
     Pseudo is Ultrasoft + core correction, Zval =  4.0
     Generated by new atomic code, or converted to UPF format
     Using radial grid of  899 points,  6 beta functions with: 
                l(1) =   0
                l(2) =   0
                l(3) =   1
                l(4) =   1
                l(5) =   2
                l(6) =   2
     Q(r) pseudized with  8 coefficients,  rinner =    0.900   0.900   0.900
                                                       0.900   0.900

     Mode symmetry, C_4v (4mm)  point group:


     Atomic displacements:
     There are    4 irreducible representations

     Representation     1      1 modes -  To be done

     Representation     2      1 modes -  To be done

     Representation     3      2 modes -  To be done

     Representation     4      2 modes -  To be done



     Alpha used in Ewald sum =   2.8000
     PHONON       :  37m34.03s CPU  39m23.58s WALL



     Representation #   1 mode #   1

     Self-consistent Calculation

      iter #   1 total cpu time :  2379.8 secs   av.it.:   6.2
      thresh= 1.000E-02 alpha_mix =  0.700 |ddv_scf|^2 =  1.214E-04

      iter #   2 total cpu time :  2401.3 secs   av.it.:  10.2
      thresh= 1.102E-03 alpha_mix =  0.700 |ddv_scf|^2 =  1.689E-03

      iter #   3 total cpu time :  2420.0 secs   av.it.:   8.3
      thresh= 4.109E-03 alpha_mix =  0.700 |ddv_scf|^2 =  1.301E-09

      iter #   4 total cpu time :  2442.8 secs   av.it.:  10.9
      thresh= 3.607E-06 alpha_mix =  0.700 |ddv_scf|^2 =  4.280E-10

      iter #   5 total cpu time :  2464.2 secs   av.it.:  10.2
      thresh= 2.069E-06 alpha_mix =  0.700 |ddv_scf|^2 =  4.046E-11

      iter #   6 total cpu time :  2485.4 secs   av.it.:  10.0
      thresh= 6.361E-07 alpha_mix =  0.700 |ddv_scf|^2 =  5.520E-14

      iter #   7 total cpu time :  2506.9 secs   av.it.:  10.3
      thresh= 2.349E-08 alpha_mix =  0.700 |ddv_scf|^2 =  4.743E-15

      iter #   8 total cpu time :  2526.7 secs   av.it.:   8.9
      thresh= 6.887E-09 alpha_mix =  0.700 |ddv_scf|^2 =  2.786E-18

     End of self-consistent calculation

     Convergence has been achieved 


     Representation #   2 mode #   2

     Self-consistent Calculation

      iter #   1 total cpu time :  2542.3 secs   av.it.:   5.3
      thresh= 1.000E-02 alpha_mix =  0.700 |ddv_scf|^2 =  1.798E-07

      iter #   2 total cpu time :  2565.2 secs   av.it.:  11.2
      thresh= 4.240E-05 alpha_mix =  0.700 |ddv_scf|^2 =  5.184E-08

      iter #   3 total cpu time :  2587.6 secs   av.it.:  10.7
      thresh= 2.277E-05 alpha_mix =  0.700 |ddv_scf|^2 =  3.716E-10

      iter #   4 total cpu time :  2610.2 secs   av.it.:  11.0
      thresh= 1.928E-06 alpha_mix =  0.700 |ddv_scf|^2 =  1.782E-11

      iter #   5 total cpu time :  2632.7 secs   av.it.:  10.9
      thresh= 4.221E-07 alpha_mix =  0.700 |ddv_scf|^2 =  3.170E-14

      iter #   6 total cpu time :  2655.5 secs   av.it.:  11.2
      thresh= 1.781E-08 alpha_mix =  0.700 |ddv_scf|^2 =  9.469E-16

      iter #   7 total cpu time :  2677.9 secs   av.it.:  10.7
      thresh= 3.077E-09 alpha_mix =  0.700 |ddv_scf|^2 =  1.409E-17

     End of self-consistent calculation

     Convergence has been achieved 


     Representation #   3 modes #   3   4

     Self-consistent Calculation

      iter #   1 total cpu time :  2707.1 secs   av.it.:   5.5
      thresh= 1.000E-02 alpha_mix =  0.700 |ddv_scf|^2 =  2.478E-08

      iter #   2 total cpu time :  2755.2 secs   av.it.:  12.4
      thresh= 1.574E-05 alpha_mix =  0.700 |ddv_scf|^2 =  3.463E-09

      iter #   3 total cpu time :  2802.6 secs   av.it.:  12.1
      thresh= 5.884E-06 alpha_mix =  0.700 |ddv_scf|^2 =  4.656E-11

      iter #   4 total cpu time :  2850.0 secs   av.it.:  12.1
      thresh= 6.824E-07 alpha_mix =  0.700 |ddv_scf|^2 =  1.078E-13

      iter #   5 total cpu time :  2898.0 secs   av.it.:  12.3
      thresh= 3.283E-08 alpha_mix =  0.700 |ddv_scf|^2 =  2.342E-15

      iter #   6 total cpu time :  2946.2 secs   av.it.:  12.5
      thresh= 4.839E-09 alpha_mix =  0.700 |ddv_scf|^2 =  2.230E-17

     End of self-consistent calculation

     Convergence has been achieved 


     Representation #   4 modes #   5   6

     Self-consistent Calculation

      iter #   1 total cpu time :  2975.9 secs   av.it.:   5.6
      thresh= 1.000E-02 alpha_mix =  0.700 |ddv_scf|^2 =  3.614E-08

      iter #   2 total cpu time :  3024.0 secs   av.it.:  12.4
      thresh= 1.901E-05 alpha_mix =  0.700 |ddv_scf|^2 =  5.137E-09

      iter #   3 total cpu time :  3071.2 secs   av.it.:  12.1
      thresh= 7.167E-06 alpha_mix =  0.700 |ddv_scf|^2 =  4.902E-11

      iter #   4 total cpu time :  3118.4 secs   av.it.:  12.0
      thresh= 7.002E-07 alpha_mix =  0.700 |ddv_scf|^2 =  9.837E-14

      iter #   5 total cpu time :  3166.4 secs   av.it.:  12.4
      thresh= 3.136E-08 alpha_mix =  0.700 |ddv_scf|^2 =  2.356E-15

      iter #   6 total cpu time :  3214.6 secs   av.it.:  12.5
      thresh= 4.854E-09 alpha_mix =  0.700 |ddv_scf|^2 =  2.047E-17

     End of self-consistent calculation

     Convergence has been achieved 
 
     Number of q in the star =    6
     List of q in the star:
          1   0.000000000   0.500000000   0.000000000
          2   0.000000000  -0.500000000   0.000000000
          3   0.500000000   0.000000000   0.000000000
          4   0.000000000   0.000000000   0.500000000
          5   0.000000000   0.000000000  -0.500000000
          6  -0.500000000   0.000000000   0.000000000

     Diagonalizing the dynamical matrix

     q = (    0.000000000   0.500000000   0.000000000 ) 

 **************************************************************************
     freq (    1) =       3.679182 [THz] =     122.724294 [cm-1]
     freq (    2) =       3.679182 [THz] =     122.724294 [cm-1]
     freq (    3) =       7.217156 [THz] =     240.738409 [cm-1]
     freq (    4) =      14.281150 [THz] =     476.367903 [cm-1]
     freq (    5) =      14.281150 [THz] =     476.367903 [cm-1]
     freq (    6) =      14.810838 [THz] =     494.036379 [cm-1]
 **************************************************************************

     Mode symmetry, C_4v (4mm)  point group:

     freq (   1-   2) =        122.7  [cm-1]   --> E    G_5 D_5       
     freq (   3-   3) =        240.7  [cm-1]   --> A_1  G_1 D_1       
     freq (   4-   5) =        476.4  [cm-1]   --> E    G_5 D_5       
     freq (   6-   6) =        494.0  [cm-1]   --> B_2  G_4 D_2'      

     Calculation of q =    0.7500000  -0.2500000   0.7500000
 
     G-vector sticks info
     --------------------
     sticks:   dense  smooth     PW     G-vecs:    dense   smooth      PW
     Sum        1789     721    253                50237    12627    2733
 
     Using Slab Decomposition
 

     Title: 
     Phonons of Si                                                              


     bravais-lattice index     =            2
     lattice parameter (alat)  =      10.1941  a.u.
     unit-cell volume          =     264.8419 (a.u.)^3
     number of atoms/cell      =            2
     number of atomic types    =            1
     number of electrons       =         8.00
     number of Kohn-Sham states=            4
     kinetic-energy cutoff     =      50.0000  Ry
     charge density cutoff     =     500.0000  Ry
     Exchange-correlation= PZ
                           (   1   1   0   0   0   0   0)

     celldm(1)=  10.194100  celldm(2)=   0.000000  celldm(3)=   0.000000
     celldm(4)=   0.000000  celldm(5)=   0.000000  celldm(6)=   0.000000

     crystal axes: (cart. coord. in units of alat)
               a(1) = (  -0.500000   0.000000   0.500000 )  
               a(2) = (   0.000000   0.500000   0.500000 )  
               a(3) = (  -0.500000   0.500000   0.000000 )  

     reciprocal axes: (cart. coord. in units 2 pi/alat)
               b(1) = ( -1.000000 -1.000000  1.000000 )  
               b(2) = (  1.000000  1.000000  1.000000 )  
               b(3) = ( -1.000000  1.000000 -1.000000 )  


     PseudoPot. # 1 for Si read from file:
     ./Si_LDA.UPF
     MD5 check sum: b5ade7b37ee992b02096e360e546dc2d
     Pseudo is Ultrasoft + core correction, Zval =  4.0
     Generated by new atomic code, or converted to UPF format
     Using radial grid of  899 points,  6 beta functions with: 
                l(1) =   0
                l(2) =   0
                l(3) =   1
                l(4) =   1
                l(5) =   2
                l(6) =   2
     Q(r) pseudized with  8 coefficients,  rinner =    0.900   0.900   0.900
                                                       0.900   0.900

     atomic species   valence    mass     pseudopotential
        Si             4.00    28.08550     Si( 1.00)

     48 Sym. Ops., with inversion, found



   Cartesian axes

     site n.     atom                  positions (alat units)
         1           Si  tau(   1) = (   0.0000000   0.0000000   0.0000000  )
         2           Si  tau(   2) = (  -0.2500000   0.2500000   0.2500000  )

     number of k points=   810

     Number of k-points >= 100: set verbosity='high' to print them.

     Dense  grid:    50237 G-vectors     FFT dimensions: (  60,  60,  60)

     Smooth grid:    12627 G-vectors     FFT dimensions: (  36,  36,  36)

     Estimated max dynamical RAM per process >     167.68 MB

     The potential is recalculated from file :
     ./_ph0/Si.save/charge-density

     Starting wfcs are    8 atomic wfcs

     Band Structure Calculation
     Davidson diagonalization with overlap

     ethr =  1.25E-10,  avg # of iterations = 13.2

     total cpu time spent up to now is      295.2 secs

     End of band structure calculation

     Number of k-points >= 100: set verbosity='high' to print the bands.

     highest occupied level (ev):     6.2187

     Writing config to output data dir ./_ph0/Si.save/

     Phonons of Si                                                              

     bravais-lattice index     =            2
     lattice parameter (alat)  =      10.1941  a.u.
     unit-cell volume          =     264.8419 (a.u.)^3
     number of atoms/cell      =            2
     number of atomic types    =            1
     kinetic-energy cut-off    =      50.0000  Ry
     charge density cut-off    =     500.0000  Ry
     convergence threshold     =      1.0E-16
     beta                      =       0.7000
     number of iterations used =            4
     Exchange-correlation= PZ
                           (   1   1   0   0   0   0   0)


     celldm(1)=   10.19410  celldm(2)=    0.00000  celldm(3)=    0.00000
     celldm(4)=    0.00000  celldm(5)=    0.00000  celldm(6)=    0.00000

     crystal axes: (cart. coord. in units of alat)
               a(1) = ( -0.5000  0.0000  0.5000 )  
               a(2) = (  0.0000  0.5000  0.5000 )  
               a(3) = ( -0.5000  0.5000  0.0000 )  

     reciprocal axes: (cart. coord. in units 2 pi/alat)
               b(1) = ( -1.0000 -1.0000  1.0000 )  
               b(2) = (  1.0000  1.0000  1.0000 )  
               b(3) = ( -1.0000  1.0000 -1.0000 )  


     Atoms inside the unit cell: 

     Cartesian axes

     site n.  atom      mass           positions (alat units)
        1     Si  28.0855   tau(    1) = (    0.00000    0.00000    0.00000  )
        2     Si  28.0855   tau(    2) = (   -0.25000    0.25000    0.25000  )

     Computing dynamical matrix for 
                    q = (   0.7500000  -0.2500000   0.7500000 )
 
      2 Sym.Ops. (no q -> -q+G )


     G cutoff = 1316.1581  (  50237 G-vectors)     FFT grid: ( 60, 60, 60)
     G cutoff =  526.4632  (  12627 G-vectors)  smooth grid: ( 36, 36, 36)
     number of k points=   810

     PseudoPot. # 1 for Si read from file:
     ./Si_LDA.UPF
     MD5 check sum: b5ade7b37ee992b02096e360e546dc2d
     Pseudo is Ultrasoft + core correction, Zval =  4.0
     Generated by new atomic code, or converted to UPF format
     Using radial grid of  899 points,  6 beta functions with: 
                l(1) =   0
                l(2) =   0
                l(3) =   1
                l(4) =   1
                l(5) =   2
                l(6) =   2
     Q(r) pseudized with  8 coefficients,  rinner =    0.900   0.900   0.900
                                                       0.900   0.900

     Mode symmetry, C_s (m)     point group:


     Atomic displacements:
     There are    6 irreducible representations

     Representation     1      1 modes -  To be done

     Representation     2      1 modes -  To be done

     Representation     3      1 modes -  To be done

     Representation     4      1 modes -  To be done

     Representation     5      1 modes -  To be done

     Representation     6      1 modes -  To be done



     Alpha used in Ewald sum =   2.8000
     PHONON       :  54m 7.67s CPU  56m44.84s WALL



     Representation #   1 mode #   1

     Self-consistent Calculation

      iter #   1 total cpu time :  3447.4 secs   av.it.:   6.0
      thresh= 1.000E-02 alpha_mix =  0.700 |ddv_scf|^2 =  4.939E-06

      iter #   2 total cpu time :  3513.9 secs   av.it.:  11.7
      thresh= 2.222E-04 alpha_mix =  0.700 |ddv_scf|^2 =  1.468E-05

      iter #   3 total cpu time :  3574.8 secs   av.it.:  10.4
      thresh= 3.832E-04 alpha_mix =  0.700 |ddv_scf|^2 =  5.692E-08

      iter #   4 total cpu time :  3638.4 secs   av.it.:  11.0
      thresh= 2.386E-05 alpha_mix =  0.700 |ddv_scf|^2 =  5.041E-10

      iter #   5 total cpu time :  3704.5 secs   av.it.:  11.6
      thresh= 2.245E-06 alpha_mix =  0.700 |ddv_scf|^2 =  6.980E-11

      iter #   6 total cpu time :  3770.4 secs   av.it.:  11.5
      thresh= 8.355E-07 alpha_mix =  0.700 |ddv_scf|^2 =  1.449E-12

      iter #   7 total cpu time :  3836.4 secs   av.it.:  11.6
      thresh= 1.204E-07 alpha_mix =  0.700 |ddv_scf|^2 =  3.634E-14

      iter #   8 total cpu time :  3904.1 secs   av.it.:  11.9
      thresh= 1.906E-08 alpha_mix =  0.700 |ddv_scf|^2 =  2.192E-14

      iter #   9 total cpu time :  3972.1 secs   av.it.:  11.1
      thresh= 1.480E-08 alpha_mix =  0.700 |ddv_scf|^2 =  7.854E-15

      iter #  10 total cpu time :  4035.1 secs   av.it.:  10.9
      thresh= 8.862E-09 alpha_mix =  0.700 |ddv_scf|^2 =  3.037E-16

      iter #  11 total cpu time :  4099.9 secs   av.it.:  11.2
      thresh= 1.743E-09 alpha_mix =  0.700 |ddv_scf|^2 =  4.278E-17

     End of self-consistent calculation

     Convergence has been achieved 


     Representation #   2 mode #   2

     Self-consistent Calculation

      iter #   1 total cpu time :  4144.0 secs   av.it.:   6.0
      thresh= 1.000E-02 alpha_mix =  0.700 |ddv_scf|^2 =  3.336E-06

      iter #   2 total cpu time :  4210.5 secs   av.it.:  11.7
      thresh= 1.826E-04 alpha_mix =  0.700 |ddv_scf|^2 =  9.908E-06

      iter #   3 total cpu time :  4271.6 secs   av.it.:  10.4
      thresh= 3.148E-04 alpha_mix =  0.700 |ddv_scf|^2 =  3.516E-08

      iter #   4 total cpu time :  4336.3 secs   av.it.:  11.2
      thresh= 1.875E-05 alpha_mix =  0.700 |ddv_scf|^2 =  7.451E-10

      iter #   5 total cpu time :  4402.1 secs   av.it.:  11.5
      thresh= 2.730E-06 alpha_mix =  0.700 |ddv_scf|^2 =  1.109E-10

      iter #   6 total cpu time :  4467.4 secs   av.it.:  11.4
      thresh= 1.053E-06 alpha_mix =  0.700 |ddv_scf|^2 =  2.726E-12

      iter #   7 total cpu time :  4533.7 secs   av.it.:  11.6
      thresh= 1.651E-07 alpha_mix =  0.700 |ddv_scf|^2 =  8.538E-14

      iter #   8 total cpu time :  4600.4 secs   av.it.:  11.7
      thresh= 2.922E-08 alpha_mix =  0.700 |ddv_scf|^2 =  1.558E-14

      iter #   9 total cpu time :  4665.2 secs   av.it.:  11.2
      thresh= 1.248E-08 alpha_mix =  0.700 |ddv_scf|^2 =  7.592E-15

      iter #  10 total cpu time :  4729.4 secs   av.it.:  11.1
      thresh= 8.713E-09 alpha_mix =  0.700 |ddv_scf|^2 =  6.533E-16

      iter #  11 total cpu time :  4794.1 secs   av.it.:  11.2
      thresh= 2.556E-09 alpha_mix =  0.700 |ddv_scf|^2 =  5.505E-17

     End of self-consistent calculation

     Convergence has been achieved 


     Representation #   3 mode #   3

     Self-consistent Calculation

      iter #   1 total cpu time :  4837.7 secs   av.it.:   5.9
      thresh= 1.000E-02 alpha_mix =  0.700 |ddv_scf|^2 =  2.539E-06

      iter #   2 total cpu time :  4904.3 secs   av.it.:  11.7
      thresh= 1.593E-04 alpha_mix =  0.700 |ddv_scf|^2 =  6.640E-06

      iter #   3 total cpu time :  4965.2 secs   av.it.:  10.4
      thresh= 2.577E-04 alpha_mix =  0.700 |ddv_scf|^2 =  6.698E-08

      iter #   4 total cpu time :  5028.6 secs   av.it.:  11.0
      thresh= 2.588E-05 alpha_mix =  0.700 |ddv_scf|^2 =  8.115E-10

      iter #   5 total cpu time :  5094.1 secs   av.it.:  11.5
      thresh= 2.849E-06 alpha_mix =  0.700 |ddv_scf|^2 =  1.363E-10

      iter #   6 total cpu time :  5159.2 secs   av.it.:  11.4
      thresh= 1.167E-06 alpha_mix =  0.700 |ddv_scf|^2 =  8.819E-13

      iter #   7 total cpu time :  5225.9 secs   av.it.:  11.7
      thresh= 9.391E-08 alpha_mix =  0.700 |ddv_scf|^2 =  5.220E-14

      iter #   8 total cpu time :  5292.0 secs   av.it.:  11.7
      thresh= 2.285E-08 alpha_mix =  0.700 |ddv_scf|^2 =  1.352E-14

      iter #   9 total cpu time :  5356.5 secs   av.it.:  11.2
      thresh= 1.163E-08 alpha_mix =  0.700 |ddv_scf|^2 =  4.301E-15

      iter #  10 total cpu time :  5419.0 secs   av.it.:  10.8
      thresh= 6.559E-09 alpha_mix =  0.700 |ddv_scf|^2 =  1.828E-16

      iter #  11 total cpu time :  5484.1 secs   av.it.:  11.3
      thresh= 1.352E-09 alpha_mix =  0.700 |ddv_scf|^2 =  4.415E-17

     End of self-consistent calculation

     Convergence has been achieved 


     Representation #   4 mode #   4

     Self-consistent Calculation

      iter #   1 total cpu time :  5527.1 secs   av.it.:   5.7
      thresh= 1.000E-02 alpha_mix =  0.700 |ddv_scf|^2 =  9.326E-07

      iter #   2 total cpu time :  5594.2 secs   av.it.:  11.8
      thresh= 9.657E-05 alpha_mix =  0.700 |ddv_scf|^2 =  1.844E-06

      iter #   3 total cpu time :  5657.4 secs   av.it.:  10.7
      thresh= 1.358E-04 alpha_mix =  0.700 |ddv_scf|^2 =  5.120E-08

      iter #   4 total cpu time :  5721.6 secs   av.it.:  11.1
      thresh= 2.263E-05 alpha_mix =  0.700 |ddv_scf|^2 =  7.672E-10

      iter #   5 total cpu time :  5787.8 secs   av.it.:  11.6
      thresh= 2.770E-06 alpha_mix =  0.700 |ddv_scf|^2 =  1.684E-10

      iter #   6 total cpu time :  5853.0 secs   av.it.:  11.4
      thresh= 1.298E-06 alpha_mix =  0.700 |ddv_scf|^2 =  2.398E-12

      iter #   7 total cpu time :  5919.5 secs   av.it.:  11.7
      thresh= 1.549E-07 alpha_mix =  0.700 |ddv_scf|^2 =  8.775E-14

      iter #   8 total cpu time :  5986.2 secs   av.it.:  11.7
      thresh= 2.962E-08 alpha_mix =  0.700 |ddv_scf|^2 =  8.640E-15

      iter #   9 total cpu time :  6051.4 secs   av.it.:  11.4
      thresh= 9.295E-09 alpha_mix =  0.700 |ddv_scf|^2 =  3.792E-15

      iter #  10 total cpu time :  6115.0 secs   av.it.:  11.0
      thresh= 6.158E-09 alpha_mix =  0.700 |ddv_scf|^2 =  2.846E-16

      iter #  11 total cpu time :  6180.1 secs   av.it.:  11.3
      thresh= 1.687E-09 alpha_mix =  0.700 |ddv_scf|^2 =  1.288E-17

     End of self-consistent calculation

     Convergence has been achieved 


     Representation #   5 mode #   5

     Self-consistent Calculation

      iter #   1 total cpu time :  6222.6 secs   av.it.:   5.5
      thresh= 1.000E-02 alpha_mix =  0.700 |ddv_scf|^2 =  1.476E-07

      iter #   2 total cpu time :  6288.2 secs   av.it.:  11.5
      thresh= 3.842E-05 alpha_mix =  0.700 |ddv_scf|^2 =  2.509E-08

      iter #   3 total cpu time :  6352.3 secs   av.it.:  11.1
      thresh= 1.584E-05 alpha_mix =  0.700 |ddv_scf|^2 =  2.039E-10

      iter #   4 total cpu time :  6416.7 secs   av.it.:  11.2
      thresh= 1.428E-06 alpha_mix =  0.700 |ddv_scf|^2 =  3.587E-13

      iter #   5 total cpu time :  6482.4 secs   av.it.:  11.5
      thresh= 5.989E-08 alpha_mix =  0.700 |ddv_scf|^2 =  7.219E-15

      iter #   6 total cpu time :  6549.1 secs   av.it.:  11.6
      thresh= 8.496E-09 alpha_mix =  0.700 |ddv_scf|^2 =  8.797E-17

     End of self-consistent calculation

     Convergence has been achieved 


     Representation #   6 mode #   6

     Self-consistent Calculation

      iter #   1 total cpu time :  6591.2 secs   av.it.:   5.5
      thresh= 1.000E-02 alpha_mix =  0.700 |ddv_scf|^2 =  1.476E-07

      iter #   2 total cpu time :  6656.9 secs   av.it.:  11.5
      thresh= 3.842E-05 alpha_mix =  0.700 |ddv_scf|^2 =  2.509E-08

      iter #   3 total cpu time :  6721.1 secs   av.it.:  11.1
      thresh= 1.584E-05 alpha_mix =  0.700 |ddv_scf|^2 =  2.039E-10

      iter #   4 total cpu time :  6785.4 secs   av.it.:  11.2
      thresh= 1.428E-06 alpha_mix =  0.700 |ddv_scf|^2 =  3.587E-13

      iter #   5 total cpu time :  6851.0 secs   av.it.:  11.5
      thresh= 5.989E-08 alpha_mix =  0.700 |ddv_scf|^2 =  7.228E-15

      iter #   6 total cpu time :  6917.4 secs   av.it.:  11.6
      thresh= 8.502E-09 alpha_mix =  0.700 |ddv_scf|^2 =  8.809E-17

     End of self-consistent calculation

     Convergence has been achieved 
 
     Number of q in the star =   24
     List of q in the star:
          1   0.750000000  -0.250000000   0.750000000
          2   0.750000000  -0.250000000  -0.750000000
          3  -0.750000000  -0.250000000  -0.750000000
          4  -0.750000000  -0.250000000   0.750000000
          5  -0.750000000   0.250000000  -0.750000000
          6  -0.250000000   0.750000000  -0.750000000
          7  -0.750000000   0.750000000  -0.250000000
          8   0.750000000   0.250000000   0.750000000
          9  -0.750000000   0.250000000   0.750000000
         10   0.750000000   0.250000000  -0.750000000
         11  -0.750000000   0.750000000   0.250000000
         12  -0.250000000   0.750000000   0.750000000
         13   0.250000000   0.750000000  -0.750000000
         14  -0.250000000  -0.750000000  -0.750000000
         15   0.750000000   0.750000000  -0.250000000
         16   0.750000000  -0.750000000   0.250000000
         17  -0.750000000  -0.750000000  -0.250000000
         18   0.250000000  -0.750000000   0.750000000
         19  -0.750000000  -0.750000000   0.250000000
         20   0.250000000   0.750000000   0.750000000
         21  -0.250000000  -0.750000000   0.750000000
         22   0.750000000   0.750000000   0.250000000
         23   0.250000000  -0.750000000  -0.750000000
         24   0.750000000  -0.750000000  -0.250000000

     Diagonalizing the dynamical matrix

     q = (    0.750000000  -0.250000000   0.750000000 ) 

 **************************************************************************
     freq (    1) =       4.011101 [THz] =     133.795914 [cm-1]
     freq (    2) =       5.788647 [THz] =     193.088473 [cm-1]
     freq (    3) =       9.539511 [THz] =     318.203822 [cm-1]
     freq (    4) =      12.434785 [THz] =     414.779766 [cm-1]
     freq (    5) =      14.080203 [THz] =     469.665029 [cm-1]
     freq (    6) =      14.475690 [THz] =     482.857058 [cm-1]
 **************************************************************************

     Mode symmetry, C_s (m)     point group:

     freq (   1-   1) =        133.8  [cm-1]   --> A''                
     freq (   2-   2) =        193.1  [cm-1]   --> A'                 
     freq (   3-   3) =        318.2  [cm-1]   --> A'                 
     freq (   4-   4) =        414.8  [cm-1]   --> A'                 
     freq (   5-   5) =        469.7  [cm-1]   --> A''                
     freq (   6-   6) =        482.9  [cm-1]   --> A'                 

     Calculation of q =    0.5000000   0.0000000   0.5000000
 
     G-vector sticks info
     --------------------
     sticks:   dense  smooth     PW     G-vecs:    dense   smooth      PW
     Sum        1789     721    253                50237    12627    2637
 
     Using Slab Decomposition
 

     Title: 
     Phonons of Si                                                              


     bravais-lattice index     =            2
     lattice parameter (alat)  =      10.1941  a.u.
     unit-cell volume          =     264.8419 (a.u.)^3
     number of atoms/cell      =            2
     number of atomic types    =            1
     number of electrons       =         8.00
     number of Kohn-Sham states=            4
     kinetic-energy cutoff     =      50.0000  Ry
     charge density cutoff     =     500.0000  Ry
     Exchange-correlation= PZ
                           (   1   1   0   0   0   0   0)

     celldm(1)=  10.194100  celldm(2)=   0.000000  celldm(3)=   0.000000
     celldm(4)=   0.000000  celldm(5)=   0.000000  celldm(6)=   0.000000

     crystal axes: (cart. coord. in units of alat)
               a(1) = (  -0.500000   0.000000   0.500000 )  
               a(2) = (   0.000000   0.500000   0.500000 )  
               a(3) = (  -0.500000   0.500000   0.000000 )  

     reciprocal axes: (cart. coord. in units 2 pi/alat)
               b(1) = ( -1.000000 -1.000000  1.000000 )  
               b(2) = (  1.000000  1.000000  1.000000 )  
               b(3) = ( -1.000000  1.000000 -1.000000 )  


     PseudoPot. # 1 for Si read from file:
     ./Si_LDA.UPF
     MD5 check sum: b5ade7b37ee992b02096e360e546dc2d
     Pseudo is Ultrasoft + core correction, Zval =  4.0
     Generated by new atomic code, or converted to UPF format
     Using radial grid of  899 points,  6 beta functions with: 
                l(1) =   0
                l(2) =   0
                l(3) =   1
                l(4) =   1
                l(5) =   2
                l(6) =   2
     Q(r) pseudized with  8 coefficients,  rinner =    0.900   0.900   0.900
                                                       0.900   0.900

     atomic species   valence    mass     pseudopotential
        Si             4.00    28.08550     Si( 1.00)

     48 Sym. Ops., with inversion, found



   Cartesian axes

     site n.     atom                  positions (alat units)
         1           Si  tau(   1) = (   0.0000000   0.0000000   0.0000000  )
         2           Si  tau(   2) = (  -0.2500000   0.2500000   0.2500000  )

     number of k points=   450

     Number of k-points >= 100: set verbosity='high' to print them.

     Dense  grid:    50237 G-vectors     FFT dimensions: (  60,  60,  60)

     Smooth grid:    12627 G-vectors     FFT dimensions: (  36,  36,  36)

     Estimated max dynamical RAM per process >     167.66 MB

     The potential is recalculated from file :
     ./_ph0/Si.save/charge-density

     Starting wfcs are    8 atomic wfcs

     Band Structure Calculation
     Davidson diagonalization with overlap

     ethr =  1.25E-10,  avg # of iterations = 13.2

     total cpu time spent up to now is      378.8 secs

     End of band structure calculation

     Number of k-points >= 100: set verbosity='high' to print the bands.

     highest occupied level (ev):     6.2187

     Writing config to output data dir ./_ph0/Si.save/

     Phonons of Si                                                              

     bravais-lattice index     =            2
     lattice parameter (alat)  =      10.1941  a.u.
     unit-cell volume          =     264.8419 (a.u.)^3
     number of atoms/cell      =            2
     number of atomic types    =            1
     kinetic-energy cut-off    =      50.0000  Ry
     charge density cut-off    =     500.0000  Ry
     convergence threshold     =      1.0E-16
     beta                      =       0.7000
     number of iterations used =            4
     Exchange-correlation= PZ
                           (   1   1   0   0   0   0   0)


     celldm(1)=   10.19410  celldm(2)=    0.00000  celldm(3)=    0.00000
     celldm(4)=    0.00000  celldm(5)=    0.00000  celldm(6)=    0.00000

     crystal axes: (cart. coord. in units of alat)
               a(1) = ( -0.5000  0.0000  0.5000 )  
               a(2) = (  0.0000  0.5000  0.5000 )  
               a(3) = ( -0.5000  0.5000  0.0000 )  

     reciprocal axes: (cart. coord. in units 2 pi/alat)
               b(1) = ( -1.0000 -1.0000  1.0000 )  
               b(2) = (  1.0000  1.0000  1.0000 )  
               b(3) = ( -1.0000  1.0000 -1.0000 )  


     Atoms inside the unit cell: 

     Cartesian axes

     site n.  atom      mass           positions (alat units)
        1     Si  28.0855   tau(    1) = (    0.00000    0.00000    0.00000  )
        2     Si  28.0855   tau(    2) = (   -0.25000    0.25000    0.25000  )

     Computing dynamical matrix for 
                    q = (   0.5000000   0.0000000   0.5000000 )
 
      4 Sym.Ops. (no q -> -q+G )


     G cutoff = 1316.1581  (  50237 G-vectors)     FFT grid: ( 60, 60, 60)
     G cutoff =  526.4632  (  12627 G-vectors)  smooth grid: ( 36, 36, 36)
     number of k points=   450

     PseudoPot. # 1 for Si read from file:
     ./Si_LDA.UPF
     MD5 check sum: b5ade7b37ee992b02096e360e546dc2d
     Pseudo is Ultrasoft + core correction, Zval =  4.0
     Generated by new atomic code, or converted to UPF format
     Using radial grid of  899 points,  6 beta functions with: 
                l(1) =   0
                l(2) =   0
                l(3) =   1
                l(4) =   1
                l(5) =   2
                l(6) =   2
     Q(r) pseudized with  8 coefficients,  rinner =    0.900   0.900   0.900
                                                       0.900   0.900

     Mode symmetry, C_2v (mm2)  point group:


     Atomic displacements:
     There are    6 irreducible representations

     Representation     1      1 modes -  To be done

     Representation     2      1 modes -  To be done

     Representation     3      1 modes -  To be done

     Representation     4      1 modes -  To be done

     Representation     5      1 modes -  To be done

     Representation     6      1 modes -  To be done



     Alpha used in Ewald sum =   2.8000
     PHONON       :      1h51m CPU      1h57m WALL



     Representation #   1 mode #   1

     Self-consistent Calculation

      iter #   1 total cpu time :  7057.7 secs   av.it.:   5.7
      thresh= 1.000E-02 alpha_mix =  0.700 |ddv_scf|^2 =  2.885E-06

      iter #   2 total cpu time :  7094.5 secs   av.it.:  11.3
      thresh= 1.699E-04 alpha_mix =  0.700 |ddv_scf|^2 =  1.434E-05

      iter #   3 total cpu time :  7127.3 secs   av.it.:   9.6
      thresh= 3.787E-04 alpha_mix =  0.700 |ddv_scf|^2 =  3.598E-08

      iter #   4 total cpu time :  7163.4 secs   av.it.:  10.9
      thresh= 1.897E-05 alpha_mix =  0.700 |ddv_scf|^2 =  1.742E-10

      iter #   5 total cpu time :  7199.7 secs   av.it.:  11.0
      thresh= 1.320E-06 alpha_mix =  0.700 |ddv_scf|^2 =  7.170E-12

      iter #   6 total cpu time :  7234.9 secs   av.it.:  10.6
      thresh= 2.678E-07 alpha_mix =  0.700 |ddv_scf|^2 =  1.049E-13

      iter #   7 total cpu time :  7270.8 secs   av.it.:  10.8
      thresh= 3.238E-08 alpha_mix =  0.700 |ddv_scf|^2 =  1.833E-13

      iter #   8 total cpu time :  7304.2 secs   av.it.:   9.9
      thresh= 4.282E-08 alpha_mix =  0.700 |ddv_scf|^2 =  1.619E-15

      iter #   9 total cpu time :  7340.2 secs   av.it.:  10.9
      thresh= 4.023E-09 alpha_mix =  0.700 |ddv_scf|^2 =  5.450E-17

     End of self-consistent calculation

     Convergence has been achieved 


     Representation #   2 mode #   2

     Self-consistent Calculation

      iter #   1 total cpu time :  7366.7 secs   av.it.:   6.1
      thresh= 1.000E-02 alpha_mix =  0.700 |ddv_scf|^2 =  2.156E-05

      iter #   2 total cpu time :  7403.0 secs   av.it.:  11.0
      thresh= 4.643E-04 alpha_mix =  0.700 |ddv_scf|^2 =  1.181E-04

      iter #   3 total cpu time :  7435.6 secs   av.it.:   9.5
      thresh= 1.087E-03 alpha_mix =  0.700 |ddv_scf|^2 =  3.017E-08

      iter #   4 total cpu time :  7472.5 secs   av.it.:  11.0
      thresh= 1.737E-05 alpha_mix =  0.700 |ddv_scf|^2 =  4.675E-10

      iter #   5 total cpu time :  7508.4 secs   av.it.:  10.8
      thresh= 2.162E-06 alpha_mix =  0.700 |ddv_scf|^2 =  7.905E-12

      iter #   6 total cpu time :  7544.0 secs   av.it.:  10.8
      thresh= 2.812E-07 alpha_mix =  0.700 |ddv_scf|^2 =  2.522E-13

      iter #   7 total cpu time :  7579.0 secs   av.it.:  10.5
      thresh= 5.022E-08 alpha_mix =  0.700 |ddv_scf|^2 =  1.458E-13

      iter #   8 total cpu time :  7612.9 secs   av.it.:  10.1
      thresh= 3.819E-08 alpha_mix =  0.700 |ddv_scf|^2 =  1.415E-14

      iter #   9 total cpu time :  7647.0 secs   av.it.:  10.1
      thresh= 1.190E-08 alpha_mix =  0.700 |ddv_scf|^2 =  2.673E-16

      iter #  10 total cpu time :  7682.4 secs   av.it.:  10.7
      thresh= 1.635E-09 alpha_mix =  0.700 |ddv_scf|^2 =  4.009E-18

     End of self-consistent calculation

     Convergence has been achieved 


     Representation #   3 mode #   3

     Self-consistent Calculation

      iter #   1 total cpu time :  7707.0 secs   av.it.:   5.5
      thresh= 1.000E-02 alpha_mix =  0.700 |ddv_scf|^2 =  1.426E-07

      iter #   2 total cpu time :  7743.8 secs   av.it.:  11.2
      thresh= 3.776E-05 alpha_mix =  0.700 |ddv_scf|^2 =  1.428E-08

      iter #   3 total cpu time :  7780.0 secs   av.it.:  10.9
      thresh= 1.195E-05 alpha_mix =  0.700 |ddv_scf|^2 =  1.804E-10

      iter #   4 total cpu time :  7815.1 secs   av.it.:  10.6
      thresh= 1.343E-06 alpha_mix =  0.700 |ddv_scf|^2 =  1.484E-13

      iter #   5 total cpu time :  7851.6 secs   av.it.:  11.1
      thresh= 3.852E-08 alpha_mix =  0.700 |ddv_scf|^2 =  3.746E-15

      iter #   6 total cpu time :  7888.1 secs   av.it.:  11.1
      thresh= 6.120E-09 alpha_mix =  0.700 |ddv_scf|^2 =  3.379E-17

     End of self-consistent calculation

     Convergence has been achieved 


     Representation #   4 mode #   4

     Self-consistent Calculation

      iter #   1 total cpu time :  7911.5 secs   av.it.:   5.0
      thresh= 1.000E-02 alpha_mix =  0.700 |ddv_scf|^2 =  1.580E-08

      iter #   2 total cpu time :  7948.0 secs   av.it.:  11.1
      thresh= 1.257E-05 alpha_mix =  0.700 |ddv_scf|^2 =  8.234E-10

      iter #   3 total cpu time :  7983.7 secs   av.it.:  10.8
      thresh= 2.870E-06 alpha_mix =  0.700 |ddv_scf|^2 =  1.172E-11

      iter #   4 total cpu time :  8019.1 secs   av.it.:  10.6
      thresh= 3.424E-07 alpha_mix =  0.700 |ddv_scf|^2 =  1.608E-13

      iter #   5 total cpu time :  8055.5 secs   av.it.:  11.1
      thresh= 4.010E-08 alpha_mix =  0.700 |ddv_scf|^2 =  4.593E-16

      iter #   6 total cpu time :  8091.8 secs   av.it.:  11.0
      thresh= 2.143E-09 alpha_mix =  0.700 |ddv_scf|^2 =  3.521E-18

     End of self-consistent calculation

     Convergence has been achieved 


     Representation #   5 mode #   5

     Self-consistent Calculation

      iter #   1 total cpu time :  8115.2 secs   av.it.:   5.0
      thresh= 1.000E-02 alpha_mix =  0.700 |ddv_scf|^2 =  3.202E-08

      iter #   2 total cpu time :  8153.0 secs   av.it.:  11.6
      thresh= 1.789E-05 alpha_mix =  0.700 |ddv_scf|^2 =  1.448E-08

      iter #   3 total cpu time :  8189.5 secs   av.it.:  11.1
      thresh= 1.203E-05 alpha_mix =  0.700 |ddv_scf|^2 =  7.829E-10

      iter #   4 total cpu time :  8225.7 secs   av.it.:  11.0
      thresh= 2.798E-06 alpha_mix =  0.700 |ddv_scf|^2 =  1.170E-11

      iter #   5 total cpu time :  8262.7 secs   av.it.:  11.3
      thresh= 3.421E-07 alpha_mix =  0.700 |ddv_scf|^2 =  2.576E-13

      iter #   6 total cpu time :  8299.9 secs   av.it.:  11.4
      thresh= 5.075E-08 alpha_mix =  0.700 |ddv_scf|^2 =  1.231E-15

      iter #   7 total cpu time :  8337.0 secs   av.it.:  11.4
      thresh= 3.508E-09 alpha_mix =  0.700 |ddv_scf|^2 =  2.930E-17

     End of self-consistent calculation

     Convergence has been achieved 


     Representation #   6 mode #   6

     Self-consistent Calculation

      iter #   1 total cpu time :  8362.2 secs   av.it.:   5.8
      thresh= 1.000E-02 alpha_mix =  0.700 |ddv_scf|^2 =  9.084E-07

      iter #   2 total cpu time :  8399.5 secs   av.it.:  11.5
      thresh= 9.531E-05 alpha_mix =  0.700 |ddv_scf|^2 =  7.044E-07

      iter #   3 total cpu time :  8435.3 secs   av.it.:  10.8
      thresh= 8.393E-05 alpha_mix =  0.700 |ddv_scf|^2 =  6.344E-10

      iter #   4 total cpu time :  8472.2 secs   av.it.:  11.2
      thresh= 2.519E-06 alpha_mix =  0.700 |ddv_scf|^2 =  4.171E-11

      iter #   5 total cpu time :  8509.1 secs   av.it.:  11.2
      thresh= 6.458E-07 alpha_mix =  0.700 |ddv_scf|^2 =  9.224E-14

      iter #   6 total cpu time :  8545.7 secs   av.it.:  11.2
      thresh= 3.037E-08 alpha_mix =  0.700 |ddv_scf|^2 =  2.450E-15

      iter #   7 total cpu time :  8582.5 secs   av.it.:  11.2
      thresh= 4.950E-09 alpha_mix =  0.700 |ddv_scf|^2 =  3.385E-17

     End of self-consistent calculation

     Convergence has been achieved 
 
     Number of q in the star =   12
     List of q in the star:
          1   0.500000000   0.000000000   0.500000000
          2  -0.500000000   0.000000000   0.500000000
          3  -0.500000000   0.000000000  -0.500000000
          4   0.500000000   0.000000000  -0.500000000
          5   0.000000000   0.500000000  -0.500000000
          6  -0.500000000   0.500000000   0.000000000
          7   0.000000000   0.500000000   0.500000000
          8   0.000000000  -0.500000000  -0.500000000
          9   0.500000000   0.500000000   0.000000000
         10   0.500000000  -0.500000000   0.000000000
         11  -0.500000000  -0.500000000   0.000000000
         12   0.000000000  -0.500000000   0.500000000

     Diagonalizing the dynamical matrix

     q = (    0.500000000   0.000000000   0.500000000 ) 

 **************************************************************************
     freq (    1) =       3.985517 [THz] =     132.942525 [cm-1]
     freq (    2) =       5.705480 [THz] =     190.314337 [cm-1]
     freq (    3) =       8.462136 [THz] =     282.266483 [cm-1]
     freq (    4) =      12.624174 [THz] =     421.097113 [cm-1]
     freq (    5) =      14.269913 [THz] =     475.993062 [cm-1]
     freq (    6) =      14.723827 [THz] =     491.134009 [cm-1]
 **************************************************************************

     Mode symmetry, C_2v (mm2)  point group:

     freq (   1-   1) =        132.9  [cm-1]   --> B_1  D_3  S_3      
     freq (   2-   2) =        190.3  [cm-1]   --> B_2  D_4  S_4      
     freq (   3-   3) =        282.3  [cm-1]   --> A_1  D_1  S_1      
     freq (   4-   4) =        421.1  [cm-1]   --> B_2  D_4  S_4      
     freq (   5-   5) =        476.0  [cm-1]   --> A_2  D_2  S_2      
     freq (   6-   6) =        491.1  [cm-1]   --> A_1  D_1  S_1      

     Calculation of q =    0.0000000  -1.0000000   0.0000000
 
     G-vector sticks info
     --------------------
     sticks:   dense  smooth     PW     G-vecs:    dense   smooth      PW
[...]

      iter #   1 total cpu time :  8646.7 secs   av.it.:   5.0
      thresh= 1.000E-02 alpha_mix =  0.700 |ddv_scf|^2 =  2.897E-09

      iter #   2 total cpu time :  8674.8 secs   av.it.:  11.8
      thresh= 5.383E-06 alpha_mix =  0.700 |ddv_scf|^2 =  1.626E-10

      iter #   3 total cpu time :  8702.9 secs   av.it.:  11.8
      thresh= 1.275E-06 alpha_mix =  0.700 |ddv_scf|^2 =  9.476E-13

      iter #   4 total cpu time :  8730.0 secs   av.it.:  11.3
      thresh= 9.735E-08 alpha_mix =  0.700 |ddv_scf|^2 =  9.715E-15

      iter #   5 total cpu time :  8758.4 secs   av.it.:  12.1
      thresh= 9.856E-09 alpha_mix =  0.700 |ddv_scf|^2 =  1.734E-17

     End of self-consistent calculation

     Convergence has been achieved 


     Representation #   2 modes #   3   4

     Self-consistent Calculation

      iter #   1 total cpu time :  8777.5 secs   av.it.:   5.9
      thresh= 1.000E-02 alpha_mix =  0.700 |ddv_scf|^2 =  6.716E-07

      iter #   2 total cpu time :  8805.6 secs   av.it.:  11.9
      thresh= 8.195E-05 alpha_mix =  0.700 |ddv_scf|^2 =  9.636E-07

      iter #   3 total cpu time :  8832.4 secs   av.it.:  11.2
      thresh= 9.816E-05 alpha_mix =  0.700 |ddv_scf|^2 =  2.162E-10

      iter #   4 total cpu time :  8860.6 secs   av.it.:  11.9
      thresh= 1.470E-06 alpha_mix =  0.700 |ddv_scf|^2 =  1.502E-11

      iter #   5 total cpu time :  8888.5 secs   av.it.:  11.8
      thresh= 3.875E-07 alpha_mix =  0.700 |ddv_scf|^2 =  9.393E-14

      iter #   6 total cpu time :  8916.2 secs   av.it.:  11.8
      thresh= 3.065E-08 alpha_mix =  0.700 |ddv_scf|^2 =  3.157E-15

      iter #   7 total cpu time :  8944.0 secs   av.it.:  11.7
      thresh= 5.619E-09 alpha_mix =  0.700 |ddv_scf|^2 =  2.318E-17

     End of self-consistent calculation

     Convergence has been achieved 


     Representation #   3 modes #   5   6

     Self-consistent Calculation

      iter #   1 total cpu time :  8963.1 secs   av.it.:   5.7
      thresh= 1.000E-02 alpha_mix =  0.700 |ddv_scf|^2 =  1.152E-07

      iter #   2 total cpu time :  8991.9 secs   av.it.:  12.3
      thresh= 3.394E-05 alpha_mix =  0.700 |ddv_scf|^2 =  2.920E-08

      iter #   3 total cpu time :  9020.0 secs   av.it.:  11.9
      thresh= 1.709E-05 alpha_mix =  0.700 |ddv_scf|^2 =  6.839E-11

      iter #   4 total cpu time :  9048.0 secs   av.it.:  11.9
      thresh= 8.270E-07 alpha_mix =  0.700 |ddv_scf|^2 =  3.926E-14

      iter #   5 total cpu time :  9076.3 secs   av.it.:  12.0
      thresh= 1.982E-08 alpha_mix =  0.700 |ddv_scf|^2 =  2.735E-15

      iter #   6 total cpu time :  9105.0 secs   av.it.:  12.2
      thresh= 5.230E-09 alpha_mix =  0.700 |ddv_scf|^2 =  2.645E-18

     End of self-consistent calculation

     Convergence has been achieved 
 
     Number of q in the star =    3
     List of q in the star:
          1   0.000000000  -1.000000000   0.000000000
          2  -1.000000000   0.000000000   0.000000000
          3   0.000000000   0.000000000  -1.000000000

     Diagonalizing the dynamical matrix

     q = (    0.000000000  -1.000000000   0.000000000 ) 

 **************************************************************************
     freq (    1) =       4.024916 [THz] =     134.256746 [cm-1]
     freq (    2) =       4.024916 [THz] =     134.256746 [cm-1]
     freq (    3) =      12.289505 [THz] =     409.933754 [cm-1]
     freq (    4) =      12.289505 [THz] =     409.933754 [cm-1]
     freq (    5) =      13.903046 [THz] =     463.755692 [cm-1]
     freq (    6) =      13.903046 [THz] =     463.755692 [cm-1]
 **************************************************************************

     Calculation of q =   -0.5000000  -1.0000000   0.0000000
 
     G-vector sticks info
     --------------------
     sticks:   dense  smooth     PW     G-vecs:    dense   smooth      PW
     Sum        1789     721    253                50237    12627    2565
 
     Using Slab Decomposition
 

     Title: 
     Phonons of Si                                                              


     bravais-lattice index     =            2
     lattice parameter (alat)  =      10.1941  a.u.
     unit-cell volume          =     264.8419 (a.u.)^3
     number of atoms/cell      =            2
     number of atomic types    =            1
     number of electrons       =         8.00
     number of Kohn-Sham states=            4
     kinetic-energy cutoff     =      50.0000  Ry
     charge density cutoff     =     500.0000  Ry
     Exchange-correlation= PZ
                           (   1   1   0   0   0   0   0)

     celldm(1)=  10.194100  celldm(2)=   0.000000  celldm(3)=   0.000000
     celldm(4)=   0.000000  celldm(5)=   0.000000  celldm(6)=   0.000000

     crystal axes: (cart. coord. in units of alat)
               a(1) = (  -0.500000   0.000000   0.500000 )  
               a(2) = (   0.000000   0.500000   0.500000 )  
               a(3) = (  -0.500000   0.500000   0.000000 )  

     reciprocal axes: (cart. coord. in units 2 pi/alat)
               b(1) = ( -1.000000 -1.000000  1.000000 )  
               b(2) = (  1.000000  1.000000  1.000000 )  
               b(3) = ( -1.000000  1.000000 -1.000000 )  


     PseudoPot. # 1 for Si read from file:
     ./Si_LDA.UPF
     MD5 check sum: b5ade7b37ee992b02096e360e546dc2d
     Pseudo is Ultrasoft + core correction, Zval =  4.0
     Generated by new atomic code, or converted to UPF format
     Using radial grid of  899 points,  6 beta functions with: 
                l(1) =   0
                l(2) =   0
                l(3) =   1
                l(4) =   1
                l(5) =   2
                l(6) =   2
     Q(r) pseudized with  8 coefficients,  rinner =    0.900   0.900   0.900
                                                       0.900   0.900

     atomic species   valence    mass     pseudopotential
        Si             4.00    28.08550     Si( 1.00)

     48 Sym. Ops., with inversion, found



   Cartesian axes

     site n.     atom                  positions (alat units)
         1           Si  tau(   1) = (   0.0000000   0.0000000   0.0000000  )
         2           Si  tau(   2) = (  -0.2500000   0.2500000   0.2500000  )

     number of k points=   230

     Number of k-points >= 100: set verbosity='high' to print them.

     Dense  grid:    50237 G-vectors     FFT dimensions: (  60,  60,  60)

     Smooth grid:    12627 G-vectors     FFT dimensions: (  36,  36,  36)

     Estimated max dynamical RAM per process >     167.68 MB

     The potential is recalculated from file :
     ./_ph0/Si.save/charge-density

     Starting wfcs are    8 atomic wfcs

     Band Structure Calculation
     Davidson diagonalization with overlap

     ethr =  1.25E-10,  avg # of iterations = 13.1

     total cpu time spent up to now is      449.6 secs

     End of band structure calculation

     Number of k-points >= 100: set verbosity='high' to print the bands.

     highest occupied level (ev):     6.2187

     Writing config to output data dir ./_ph0/Si.save/

     Phonons of Si                                                              

     bravais-lattice index     =            2
     lattice parameter (alat)  =      10.1941  a.u.
     unit-cell volume          =     264.8419 (a.u.)^3
     number of atoms/cell      =            2
     number of atomic types    =            1
     kinetic-energy cut-off    =      50.0000  Ry
     charge density cut-off    =     500.0000  Ry
     convergence threshold     =      1.0E-16
     beta                      =       0.7000
     number of iterations used =            4
     Exchange-correlation= PZ
                           (   1   1   0   0   0   0   0)


     celldm(1)=   10.19410  celldm(2)=    0.00000  celldm(3)=    0.00000
     celldm(4)=    0.00000  celldm(5)=    0.00000  celldm(6)=    0.00000

     crystal axes: (cart. coord. in units of alat)
               a(1) = ( -0.5000  0.0000  0.5000 )  
               a(2) = (  0.0000  0.5000  0.5000 )  
               a(3) = ( -0.5000  0.5000  0.0000 )  

     reciprocal axes: (cart. coord. in units 2 pi/alat)
               b(1) = ( -1.0000 -1.0000  1.0000 )  
               b(2) = (  1.0000  1.0000  1.0000 )  
               b(3) = ( -1.0000  1.0000 -1.0000 )  


     Atoms inside the unit cell: 

     Cartesian axes

     site n.  atom      mass           positions (alat units)
        1     Si  28.0855   tau(    1) = (    0.00000    0.00000    0.00000  )
        2     Si  28.0855   tau(    2) = (   -0.25000    0.25000    0.25000  )

     Computing dynamical matrix for 
                    q = (  -0.5000000  -1.0000000   0.0000000 )
 
      8 Sym.Ops. (no q -> -q+G )


     G cutoff = 1316.1581  (  50237 G-vectors)     FFT grid: ( 60, 60, 60)
     G cutoff =  526.4632  (  12627 G-vectors)  smooth grid: ( 36, 36, 36)
     number of k points=   230

     PseudoPot. # 1 for Si read from file:
     ./Si_LDA.UPF
     MD5 check sum: b5ade7b37ee992b02096e360e546dc2d
     Pseudo is Ultrasoft + core correction, Zval =  4.0
     Generated by new atomic code, or converted to UPF format
     Using radial grid of  899 points,  6 beta functions with: 
                l(1) =   0
                l(2) =   0
                l(3) =   1
                l(4) =   1
                l(5) =   2
                l(6) =   2
     Q(r) pseudized with  8 coefficients,  rinner =    0.900   0.900   0.900
                                                       0.900   0.900


     Atomic displacements:
     There are    3 irreducible representations

     Representation     1      2 modes -  To be done

     Representation     2      2 modes -  To be done

     Representation     3      2 modes -  To be done



     Alpha used in Ewald sum =   2.8000
     PHONON       :      2h25m CPU      2h32m WALL



     Representation #   1 modes #   1   2

     Self-consistent Calculation

      iter #   1 total cpu time :  9194.1 secs   av.it.:   5.5
      thresh= 1.000E-02 alpha_mix =  0.700 |ddv_scf|^2 =  7.695E-08

      iter #   2 total cpu time :  9236.0 secs   av.it.:  12.6
      thresh= 2.774E-05 alpha_mix =  0.700 |ddv_scf|^2 =  4.308E-08

      iter #   3 total cpu time :  9276.8 secs   av.it.:  12.0
      thresh= 2.075E-05 alpha_mix =  0.700 |ddv_scf|^2 =  9.012E-11

      iter #   4 total cpu time :  9317.9 secs   av.it.:  12.3
      thresh= 9.493E-07 alpha_mix =  0.700 |ddv_scf|^2 =  4.076E-13

      iter #   5 total cpu time :  9359.0 secs   av.it.:  12.1
      thresh= 6.385E-08 alpha_mix =  0.700 |ddv_scf|^2 =  4.913E-15

      iter #   6 total cpu time :  9400.6 secs   av.it.:  12.4
      thresh= 7.009E-09 alpha_mix =  0.700 |ddv_scf|^2 =  3.504E-17

     End of self-consistent calculation

     Convergence has been achieved 


     Representation #   2 modes #   3   4

     Self-consistent Calculation

      iter #   1 total cpu time :  9427.2 secs   av.it.:   5.9
      thresh= 1.000E-02 alpha_mix =  0.700 |ddv_scf|^2 =  3.879E-07

      iter #   2 total cpu time :  9469.3 secs   av.it.:  12.6
      thresh= 6.228E-05 alpha_mix =  0.700 |ddv_scf|^2 =  5.490E-07

      iter #   3 total cpu time :  9509.5 secs   av.it.:  11.9
      thresh= 7.409E-05 alpha_mix =  0.700 |ddv_scf|^2 =  1.007E-10

      iter #   4 total cpu time :  9550.7 secs   av.it.:  12.1
      thresh= 1.004E-06 alpha_mix =  0.700 |ddv_scf|^2 =  2.402E-12

      iter #   5 total cpu time :  9591.9 secs   av.it.:  12.2
      thresh= 1.550E-07 alpha_mix =  0.700 |ddv_scf|^2 =  1.697E-14

      iter #   6 total cpu time :  9633.4 secs   av.it.:  12.3
      thresh= 1.303E-08 alpha_mix =  0.700 |ddv_scf|^2 =  6.773E-16

      iter #   7 total cpu time :  9674.7 secs   av.it.:  12.1
      thresh= 2.603E-09 alpha_mix =  0.700 |ddv_scf|^2 =  2.661E-18

     End of self-consistent calculation

     Convergence has been achieved 


     Representation #   3 modes #   5   6

     Self-consistent Calculation

      iter #   1 total cpu time :  9701.5 secs   av.it.:   5.9
      thresh= 1.000E-02 alpha_mix =  0.700 |ddv_scf|^2 =  2.772E-07

      iter #   2 total cpu time :  9743.5 secs   av.it.:  12.6
      thresh= 5.265E-05 alpha_mix =  0.700 |ddv_scf|^2 =  1.704E-07

      iter #   3 total cpu time :  9784.2 secs   av.it.:  11.9
      thresh= 4.128E-05 alpha_mix =  0.700 |ddv_scf|^2 =  8.276E-11

      iter #   4 total cpu time :  9825.0 secs   av.it.:  12.1
      thresh= 9.097E-07 alpha_mix =  0.700 |ddv_scf|^2 =  9.703E-13

      iter #   5 total cpu time :  9866.0 secs   av.it.:  12.1
      thresh= 9.850E-08 alpha_mix =  0.700 |ddv_scf|^2 =  7.070E-15

      iter #   6 total cpu time :  9907.3 secs   av.it.:  12.3
      thresh= 8.409E-09 alpha_mix =  0.700 |ddv_scf|^2 =  2.152E-16

      iter #   7 total cpu time :  9948.3 secs   av.it.:  12.1
      thresh= 1.467E-09 alpha_mix =  0.700 |ddv_scf|^2 =  1.528E-18

     End of self-consistent calculation

     Convergence has been achieved 
 
     Number of q in the star =    6
     List of q in the star:
          1  -0.500000000  -1.000000000   0.000000000
          2   0.000000000   1.000000000   0.500000000
          3   0.000000000  -1.000000000  -0.500000000
          4   0.500000000   1.000000000   0.000000000
          5  -1.000000000  -0.500000000   0.000000000
          6   0.000000000  -0.500000000  -1.000000000

     Diagonalizing the dynamical matrix

     q = (   -0.500000000  -1.000000000   0.000000000 ) 

 **************************************************************************
     freq (    1) =       5.892751 [THz] =     196.561031 [cm-1]
     freq (    2) =       5.892751 [THz] =     196.561031 [cm-1]
     freq (    3) =      10.594884 [THz] =     353.407282 [cm-1]
     freq (    4) =      10.594884 [THz] =     353.407282 [cm-1]
     freq (    5) =      14.074657 [THz] =     469.480016 [cm-1]
     freq (    6) =      14.074657 [THz] =     469.480016 [cm-1]
 **************************************************************************
 
     init_run     :     10.76s CPU     11.78s WALL (       7 calls)
     electrons    :    408.46s CPU    435.82s WALL (       7 calls)

     Called by init_run:
     wfcinit      :      0.00s CPU      0.02s WALL (       7 calls)
     potinit      :      0.44s CPU      0.65s WALL (       7 calls)
     hinit0       :      7.01s CPU      7.17s WALL (       7 calls)

     Called by electrons:
     c_bands      :    408.46s CPU    435.79s WALL (       7 calls)
     v_of_rho     :      0.41s CPU      0.51s WALL (       8 calls)
     newd         :      1.90s CPU      2.22s WALL (       8 calls)

     Called by c_bands:
     init_us_2    :    106.09s CPU    115.50s WALL (   68050 calls)
     init_us_2:cp :    104.30s CPU    114.28s WALL (   68050 calls)
     cegterg      :    342.70s CPU    355.94s WALL (    2410 calls)

     Called by *egterg:
     cdiaghg      :     13.10s CPU     14.24s WALL (   34138 calls)
     h_psi        :   6272.54s CPU   6476.70s WALL (  713841 calls)
     s_psi        :    488.75s CPU    552.99s WALL ( 1449109 calls)
     g_psi        :      1.49s CPU      1.62s WALL (   31728 calls)

     Called by h_psi:
     h_psi:calbec :    225.31s CPU    234.44s WALL (  713841 calls)
     vloc_psi     :   5749.74s CPU   5923.09s WALL (  713841 calls)
     add_vuspsi   :    239.74s CPU    267.15s WALL (  713841 calls)

     General routines
     calbec       :    404.48s CPU    448.61s WALL ( 1571584 calls)
     fft          :     14.21s CPU     14.43s WALL (    3289 calls)
     ffts         :      8.07s CPU      8.37s WALL (    8646 calls)
     fftw         :   5796.52s CPU   6000.55s WALL ( 6342108 calls)
     interpolate  :      4.78s CPU      4.92s WALL (     756 calls)
     davcio       :     35.90s CPU     84.80s WALL (  300261 calls)
 
     Parallel routines
 
     PHONON       :      2h38m CPU      2h45m WALL

     INITIALIZATION: 
     phq_setup    :      0.37s CPU      0.77s WALL (       8 calls)
     phq_init     :    179.25s CPU    183.34s WALL (       8 calls)
 
     phq_init     :    179.25s CPU    183.34s WALL (       8 calls)
     set_drhoc    :     25.43s CPU     25.45s WALL (      24 calls)
     init_vloc    :      0.02s CPU      0.07s WALL (       8 calls)
     init_us_1    :      7.23s CPU      7.29s WALL (       8 calls)
     init_us_2    :    106.09s CPU    115.50s WALL (   68050 calls)
     newd         :      1.90s CPU      2.22s WALL (       8 calls)
     dvanqq       :     48.56s CPU     48.67s WALL (       8 calls)
     drho         :     92.31s CPU     95.16s WALL (       8 calls)
 
     DYNAMICAL MATRIX:
     dynmat0      :     24.10s CPU     24.74s WALL (       8 calls)
     phqscf       :   8760.92s CPU   9164.50s WALL (       8 calls)
     dynmatrix    :      0.03s CPU      0.54s WALL (       8 calls)
 
     phqscf       :   8760.92s CPU   9164.50s WALL (       8 calls)
     solve_linter :   8731.19s CPU   9130.22s WALL (      32 calls)
     drhodv       :     23.52s CPU     25.25s WALL (      32 calls)
 
     dynmat0      :     24.10s CPU     24.74s WALL (       8 calls)
     dynmat_us    :      6.25s CPU      6.60s WALL (       8 calls)
     d2ionq       :      0.34s CPU      0.36s WALL (       8 calls)
     dynmatcc     :     17.48s CPU     17.54s WALL (       8 calls)
 
     dynmat_us    :      6.25s CPU      6.60s WALL (       8 calls)
     addusdynmat  :      0.00s CPU      0.00s WALL (       8 calls)
 
     phqscf       :   8760.92s CPU   9164.50s WALL (       8 calls)
     solve_linter :   8731.19s CPU   9130.22s WALL (      32 calls)
 
     solve_linter :   8731.19s CPU   9130.22s WALL (      32 calls)
     dvqpsi_us    :     96.09s CPU     99.05s WALL (    7650 calls)
     sth_kernel   :   8060.75s CPU   8431.32s WALL (     241 calls)
     apply_dpot_b :    437.34s CPU    455.22s WALL (   50220 calls)
     ortho        :     49.85s CPU     54.28s WALL (   57870 calls)
     cgsolve      :   6915.31s CPU   7204.67s WALL (   57870 calls)
     incdrhoscf   :    543.76s CPU    572.19s WALL (   57870 calls)
     addusddens   :    252.08s CPU    252.74s WALL (     268 calls)
     dv_of_drho   :      6.69s CPU      6.75s WALL (     348 calls)
     mix_pot      :      3.44s CPU     16.94s WALL (     241 calls)
     psymdvscf    :    114.46s CPU    114.70s WALL (     236 calls)
     newdq        :    293.42s CPU    293.64s WALL (     241 calls)
     adddvscf     :     23.12s CPU     24.30s WALL (   50220 calls)
     drhodvus     :      0.20s CPU      0.46s WALL (      32 calls)
 
     dvqpsi_us    :     96.09s CPU     99.05s WALL (    7650 calls)
     dvqpsi_us_on :     16.97s CPU     17.23s WALL (    7650 calls)
 
     cgsolve      :   6915.31s CPU   7204.67s WALL (   57870 calls)
     ch_psi       :   6814.15s CPU   7090.18s WALL (  677293 calls)
 
     ch_psi       :   6814.15s CPU   7090.18s WALL (  677293 calls)
     h_psi        :   6272.54s CPU   6476.70s WALL (  713841 calls)
     last         :    566.75s CPU    621.78s WALL (  677293 calls)
 
     h_psi        :   6272.54s CPU   6476.70s WALL (  713841 calls)
     add_vuspsi   :    239.74s CPU    267.15s WALL (  713841 calls)
 
     incdrhoscf   :    543.76s CPU    572.19s WALL (   57870 calls)
     addusdbec    :     23.89s CPU     24.30s WALL (   65310 calls)
 
     drhodvus     :      0.20s CPU      0.46s WALL (      32 calls)
 
      General routines
     calbec       :    404.48s CPU    448.61s WALL ( 1571584 calls)
     fft          :     14.21s CPU     14.43s WALL (    3289 calls)
     ffts         :      8.07s CPU      8.37s WALL (    8646 calls)
     fftw         :   5796.52s CPU   6000.55s WALL ( 6342108 calls)
     davcio       :     35.90s CPU     84.80s WALL (  300261 calls)
     write_rec    :      0.49s CPU     13.17s WALL (     273 calls)
 
 
     PHONON       :      2h38m CPU      2h45m WALL

 
   This run was terminated on:  11:21:20  10Apr2022            

=------------------------------------------------------------------------------=
   JOB DONE.
=------------------------------------------------------------------------------=
