
     Program PWSCF v.7.0 starts on  8Mar2022 at 12:28:27 

     This program is part of the open-source Quantum ESPRESSO suite
     for quantum simulation of materials; please cite
         "P. Giannozzi et al., J. Phys.:Condens. Matter 21 395502 (2009);
         "P. Giannozzi et al., J. Phys.:Condens. Matter 29 465901 (2017);
         "P. Giannozzi et al., J. Chem. Phys. 152 154105 (2020);
          URL http://www.quantum-espresso.org", 
     in publications or presentations arising from this work. More details at
     http://www.quantum-espresso.org/quote

     Parallel version (MPI), running on     1 processors

     MPI processes distributed on     1 nodes
     91427 MiB available memory on the printing compute node when the environment starts
 
     Waiting for input...
     Reading input from standard input

     Current dimensions of program PWSCF are:
     Max number of different atomic species (ntypx) = 10
     Max number of k-points (npk) =  40000
     Max angular momentum in pseudopotentials (lmaxx) =  4

     Atomic positions and unit cell read from directory:
     ./Si.save/
     Atomic positions from file used, from input discarded
 

     Subspace diagonalization in iterative solution of the eigenvalue problem:
     a serial algorithm will be used

 
     G-vector sticks info
     --------------------
     sticks:   dense  smooth     PW     G-vecs:    dense   smooth      PW
     Sum        1069     433    127                23289     5961     965
 
     Using Slab Decomposition
 


     bravais-lattice index     =            2
     lattice parameter (alat)  =      10.1941  a.u.
     unit-cell volume          =     264.8419 (a.u.)^3
     number of atoms/cell      =            2
     number of atomic types    =            1
     number of electrons       =         8.00
     number of Kohn-Sham states=            8
     kinetic-energy cutoff     =      30.0000  Ry
     charge density cutoff     =     300.0000  Ry
     Exchange-correlation= SLA  PZ   NOGX NOGC
                           (   1   1   0   0   0   0   0)

     celldm(1)=  10.194100  celldm(2)=   0.000000  celldm(3)=   0.000000
     celldm(4)=   0.000000  celldm(5)=   0.000000  celldm(6)=   0.000000

     crystal axes: (cart. coord. in units of alat)
               a(1) = (  -0.500000   0.000000   0.500000 )  
               a(2) = (   0.000000   0.500000   0.500000 )  
               a(3) = (  -0.500000   0.500000   0.000000 )  

     reciprocal axes: (cart. coord. in units 2 pi/alat)
               b(1) = ( -1.000000 -1.000000  1.000000 )  
               b(2) = (  1.000000  1.000000  1.000000 )  
               b(3) = ( -1.000000  1.000000 -1.000000 )  


     PseudoPot. # 1 for Si read from file:
     ./Si_LDA.UPF
     MD5 check sum: b5ade7b37ee992b02096e360e546dc2d
     Pseudo is Ultrasoft + core correction, Zval =  4.0
     Generated by new atomic code, or converted to UPF format
     Using radial grid of  899 points,  6 beta functions with: 
                l(1) =   0
                l(2) =   0
                l(3) =   1
                l(4) =   1
                l(5) =   2
                l(6) =   2
     Q(r) pseudized with  8 coefficients,  rinner =    0.900   0.900   0.900
                                                       0.900   0.900

     atomic species   valence    mass     pseudopotential
        Si             4.00    28.08600     Si( 1.00)

     48 Sym. Ops., with inversion, found (24 have fractional translation)


                                    s                        frac. trans.

      isym =  1     identity                                     

 cryst.   s( 1) = (     1          0          0      )
                  (     0          1          0      )
                  (     0          0          1      )

 cart.    s( 1) = (  1.0000000  0.0000000  0.0000000 )
                  (  0.0000000  1.0000000  0.0000000 )
                  (  0.0000000  0.0000000  1.0000000 )


      isym =  2     180 deg rotation - cart. axis [0,0,1]        

 cryst.   s( 2) = (     0          1         -1      )
                  (     1          0         -1      )
                  (     0          0         -1      )

 cart.    s( 2) = ( -1.0000000  0.0000000  0.0000000 )
                  (  0.0000000 -1.0000000  0.0000000 )
                  (  0.0000000  0.0000000  1.0000000 )


      isym =  3     180 deg rotation - cart. axis [0,1,0]        

 cryst.   s( 3) = (    -1          0          0      )
                  (    -1          0          1      )
                  (    -1          1          0      )

 cart.    s( 3) = ( -1.0000000  0.0000000  0.0000000 )
                  (  0.0000000  1.0000000  0.0000000 )
                  (  0.0000000  0.0000000 -1.0000000 )


      isym =  4     180 deg rotation - cart. axis [1,0,0]        

 cryst.   s( 4) = (     0         -1          1      )
                  (     0         -1          0      )
                  (     1         -1          0      )

 cart.    s( 4) = (  1.0000000  0.0000000  0.0000000 )
                  (  0.0000000 -1.0000000  0.0000000 )
                  (  0.0000000  0.0000000 -1.0000000 )


      isym =  5     180 deg rotation - cart. axis [1,1,0]        

 cryst.   s( 5) = (     0         -1          0      )    f =( -0.2500000 )
                  (    -1          0          0      )       ( -0.2500000 )
                  (     0          0         -1      )       ( -0.2500000 )

 cart.    s( 5) = (  0.0000000  1.0000000  0.0000000 )    f =(  0.2500000 )
                  (  1.0000000  0.0000000  0.0000000 )       ( -0.2500000 )
                  (  0.0000000  0.0000000 -1.0000000 )       ( -0.2500000 )


      isym =  6     180 deg rotation - cart. axis [1,-1,0]       

 cryst.   s( 6) = (    -1          0          1      )    f =( -0.2500000 )
                  (     0         -1          1      )       ( -0.2500000 )
                  (     0          0          1      )       ( -0.2500000 )

 cart.    s( 6) = (  0.0000000 -1.0000000  0.0000000 )    f =(  0.2500000 )
                  ( -1.0000000  0.0000000  0.0000000 )       ( -0.2500000 )
                  (  0.0000000  0.0000000 -1.0000000 )       ( -0.2500000 )


      isym =  7      90 deg rotation - cart. axis [0,0,-1]       

 cryst.   s( 7) = (     0          1          0      )    f =( -0.2500000 )
                  (     0          1         -1      )       ( -0.2500000 )
                  (    -1          1          0      )       ( -0.2500000 )

 cart.    s( 7) = (  0.0000000  1.0000000  0.0000000 )    f =(  0.2500000 )
                  ( -1.0000000  0.0000000  0.0000000 )       ( -0.2500000 )
                  (  0.0000000  0.0000000  1.0000000 )       ( -0.2500000 )


      isym =  8      90 deg rotation - cart. axis [0,0,1]        

 cryst.   s( 8) = (     1          0         -1      )    f =( -0.2500000 )
                  (     1          0          0      )       ( -0.2500000 )
                  (     1         -1          0      )       ( -0.2500000 )

 cart.    s( 8) = (  0.0000000 -1.0000000  0.0000000 )    f =(  0.2500000 )
                  (  1.0000000  0.0000000  0.0000000 )       ( -0.2500000 )
                  (  0.0000000  0.0000000  1.0000000 )       ( -0.2500000 )


      isym =  9     180 deg rotation - cart. axis [1,0,1]        

 cryst.   s( 9) = (    -1          0          0      )    f =( -0.2500000 )
                  (     0          0         -1      )       ( -0.2500000 )
                  (     0         -1          0      )       ( -0.2500000 )

 cart.    s( 9) = (  0.0000000  0.0000000  1.0000000 )    f =(  0.2500000 )
                  (  0.0000000 -1.0000000  0.0000000 )       ( -0.2500000 )
                  (  1.0000000  0.0000000  0.0000000 )       ( -0.2500000 )


      isym = 10     180 deg rotation - cart. axis [-1,0,1]       

 cryst.   s(10) = (     1          0          0      )    f =( -0.2500000 )
                  (     1         -1          0      )       ( -0.2500000 )
                  (     1          0         -1      )       ( -0.2500000 )

 cart.    s(10) = (  0.0000000  0.0000000 -1.0000000 )    f =(  0.2500000 )
                  (  0.0000000 -1.0000000  0.0000000 )       ( -0.2500000 )
                  ( -1.0000000  0.0000000  0.0000000 )       ( -0.2500000 )


      isym = 11      90 deg rotation - cart. axis [0,1,0]        

 cryst.   s(11) = (     0          1         -1      )    f =( -0.2500000 )
                  (    -1          1          0      )       ( -0.2500000 )
                  (     0          1          0      )       ( -0.2500000 )

 cart.    s(11) = (  0.0000000  0.0000000  1.0000000 )    f =(  0.2500000 )
                  (  0.0000000  1.0000000  0.0000000 )       ( -0.2500000 )
                  ( -1.0000000  0.0000000  0.0000000 )       ( -0.2500000 )


      isym = 12      90 deg rotation - cart. axis [0,-1,0]       

 cryst.   s(12) = (     0         -1          1      )    f =( -0.2500000 )
                  (     0          0          1      )       ( -0.2500000 )
                  (    -1          0          1      )       ( -0.2500000 )

 cart.    s(12) = (  0.0000000  0.0000000 -1.0000000 )    f =(  0.2500000 )
                  (  0.0000000  1.0000000  0.0000000 )       ( -0.2500000 )
                  (  1.0000000  0.0000000  0.0000000 )       ( -0.2500000 )


      isym = 13     180 deg rotation - cart. axis [0,1,1]        

 cryst.   s(13) = (    -1          1          0      )    f =( -0.2500000 )
                  (     0          1          0      )       ( -0.2500000 )
                  (     0          1         -1      )       ( -0.2500000 )

 cart.    s(13) = ( -1.0000000  0.0000000  0.0000000 )    f =(  0.2500000 )
                  (  0.0000000  0.0000000  1.0000000 )       ( -0.2500000 )
                  (  0.0000000  1.0000000  0.0000000 )       ( -0.2500000 )


      isym = 14     180 deg rotation - cart. axis [0,1,-1]       

 cryst.   s(14) = (     0          0         -1      )    f =( -0.2500000 )
                  (     0         -1          0      )       ( -0.2500000 )
                  (    -1          0          0      )       ( -0.2500000 )

 cart.    s(14) = ( -1.0000000  0.0000000  0.0000000 )    f =(  0.2500000 )
                  (  0.0000000  0.0000000 -1.0000000 )       ( -0.2500000 )
                  (  0.0000000 -1.0000000  0.0000000 )       ( -0.2500000 )


      isym = 15      90 deg rotation - cart. axis [-1,0,0]       

 cryst.   s(15) = (     0          0          1      )    f =( -0.2500000 )
                  (    -1          0          1      )       ( -0.2500000 )
                  (     0         -1          1      )       ( -0.2500000 )

 cart.    s(15) = (  1.0000000  0.0000000  0.0000000 )    f =(  0.2500000 )
                  (  0.0000000  0.0000000  1.0000000 )       ( -0.2500000 )
                  (  0.0000000 -1.0000000  0.0000000 )       ( -0.2500000 )


      isym = 16      90 deg rotation - cart. axis [1,0,0]        

 cryst.   s(16) = (     1         -1          0      )    f =( -0.2500000 )
                  (     1          0         -1      )       ( -0.2500000 )
                  (     1          0          0      )       ( -0.2500000 )

 cart.    s(16) = (  1.0000000  0.0000000  0.0000000 )    f =(  0.2500000 )
                  (  0.0000000  0.0000000 -1.0000000 )       ( -0.2500000 )
                  (  0.0000000  1.0000000  0.0000000 )       ( -0.2500000 )


      isym = 17     120 deg rotation - cart. axis [-1,-1,-1]     

 cryst.   s(17) = (    -1          0          1      )
                  (    -1          1          0      )
                  (    -1          0          0      )

 cart.    s(17) = (  0.0000000  1.0000000  0.0000000 )
                  (  0.0000000  0.0000000  1.0000000 )
                  (  1.0000000  0.0000000  0.0000000 )


      isym = 18     120 deg rotation - cart. axis [-1,1,1]       

 cryst.   s(18) = (     0          1          0      )
                  (     0          0          1      )
                  (     1          0          0      )

 cart.    s(18) = (  0.0000000 -1.0000000  0.0000000 )
                  (  0.0000000  0.0000000  1.0000000 )
                  ( -1.0000000  0.0000000  0.0000000 )


      isym = 19     120 deg rotation - cart. axis [1,1,-1]       

 cryst.   s(19) = (     1          0         -1      )
                  (     0          0         -1      )
                  (     0          1         -1      )

 cart.    s(19) = (  0.0000000  1.0000000  0.0000000 )
                  (  0.0000000  0.0000000 -1.0000000 )
                  ( -1.0000000  0.0000000  0.0000000 )


      isym = 20     120 deg rotation - cart. axis [1,-1,1]       

 cryst.   s(20) = (     0         -1          0      )
                  (     1         -1          0      )
                  (     0         -1          1      )

 cart.    s(20) = (  0.0000000 -1.0000000  0.0000000 )
                  (  0.0000000  0.0000000 -1.0000000 )
                  (  1.0000000  0.0000000  0.0000000 )


      isym = 21     120 deg rotation - cart. axis [1,1,1]        

 cryst.   s(21) = (     0          0         -1      )
                  (     0          1         -1      )
                  (     1          0         -1      )

 cart.    s(21) = (  0.0000000  0.0000000  1.0000000 )
                  (  1.0000000  0.0000000  0.0000000 )
                  (  0.0000000  1.0000000  0.0000000 )


      isym = 22     120 deg rotation - cart. axis [-1,1,-1]      

 cryst.   s(22) = (    -1          1          0      )
                  (    -1          0          0      )
                  (    -1          0          1      )

 cart.    s(22) = (  0.0000000  0.0000000  1.0000000 )
                  ( -1.0000000  0.0000000  0.0000000 )
                  (  0.0000000 -1.0000000  0.0000000 )


      isym = 23     120 deg rotation - cart. axis [1,-1,-1]      

 cryst.   s(23) = (     0          0          1      )
                  (     1          0          0      )
                  (     0          1          0      )

 cart.    s(23) = (  0.0000000  0.0000000 -1.0000000 )
                  ( -1.0000000  0.0000000  0.0000000 )
                  (  0.0000000  1.0000000  0.0000000 )


      isym = 24     120 deg rotation - cart. axis [-1,-1,1]      

 cryst.   s(24) = (     1         -1          0      )
                  (     0         -1          1      )
                  (     0         -1          0      )

 cart.    s(24) = (  0.0000000  0.0000000 -1.0000000 )
                  (  1.0000000  0.0000000  0.0000000 )
                  (  0.0000000 -1.0000000  0.0000000 )


      isym = 25     inversion                                    

 cryst.   s(25) = (    -1          0          0      )    f =( -0.2500000 )
                  (     0         -1          0      )       ( -0.2500000 )
                  (     0          0         -1      )       ( -0.2500000 )

 cart.    s(25) = ( -1.0000000  0.0000000  0.0000000 )    f =(  0.2500000 )
                  (  0.0000000 -1.0000000  0.0000000 )       ( -0.2500000 )
                  (  0.0000000  0.0000000 -1.0000000 )       ( -0.2500000 )


      isym = 26     inv. 180 deg rotation - cart. axis [0,0,1]   

 cryst.   s(26) = (     0         -1          1      )    f =( -0.2500000 )
                  (    -1          0          1      )       ( -0.2500000 )
                  (     0          0          1      )       ( -0.2500000 )

 cart.    s(26) = (  1.0000000  0.0000000  0.0000000 )    f =(  0.2500000 )
                  (  0.0000000  1.0000000  0.0000000 )       ( -0.2500000 )
                  (  0.0000000  0.0000000 -1.0000000 )       ( -0.2500000 )


      isym = 27     inv. 180 deg rotation - cart. axis [0,1,0]   

 cryst.   s(27) = (     1          0          0      )    f =( -0.2500000 )
                  (     1          0         -1      )       ( -0.2500000 )
                  (     1         -1          0      )       ( -0.2500000 )

 cart.    s(27) = (  1.0000000  0.0000000  0.0000000 )    f =(  0.2500000 )
                  (  0.0000000 -1.0000000  0.0000000 )       ( -0.2500000 )
                  (  0.0000000  0.0000000  1.0000000 )       ( -0.2500000 )


      isym = 28     inv. 180 deg rotation - cart. axis [1,0,0]   

 cryst.   s(28) = (     0          1         -1      )    f =( -0.2500000 )
                  (     0          1          0      )       ( -0.2500000 )
                  (    -1          1          0      )       ( -0.2500000 )

 cart.    s(28) = ( -1.0000000  0.0000000  0.0000000 )    f =(  0.2500000 )
                  (  0.0000000  1.0000000  0.0000000 )       ( -0.2500000 )
                  (  0.0000000  0.0000000  1.0000000 )       ( -0.2500000 )


      isym = 29     inv. 180 deg rotation - cart. axis [1,1,0]   

 cryst.   s(29) = (     0          1          0      )
                  (     1          0          0      )
                  (     0          0          1      )

 cart.    s(29) = (  0.0000000 -1.0000000  0.0000000 )
                  ( -1.0000000  0.0000000  0.0000000 )
                  (  0.0000000  0.0000000  1.0000000 )


      isym = 30     inv. 180 deg rotation - cart. axis [1,-1,0]  

 cryst.   s(30) = (     1          0         -1      )
                  (     0          1         -1      )
                  (     0          0         -1      )

 cart.    s(30) = (  0.0000000  1.0000000  0.0000000 )
                  (  1.0000000  0.0000000  0.0000000 )
                  (  0.0000000  0.0000000  1.0000000 )


      isym = 31     inv.  90 deg rotation - cart. axis [0,0,-1]  

 cryst.   s(31) = (     0         -1          0      )
                  (     0         -1          1      )
                  (     1         -1          0      )

 cart.    s(31) = (  0.0000000 -1.0000000  0.0000000 )
                  (  1.0000000  0.0000000  0.0000000 )
                  (  0.0000000  0.0000000 -1.0000000 )


      isym = 32     inv.  90 deg rotation - cart. axis [0,0,1]   

 cryst.   s(32) = (    -1          0          1      )
                  (    -1          0          0      )
                  (    -1          1          0      )

 cart.    s(32) = (  0.0000000  1.0000000  0.0000000 )
                  ( -1.0000000  0.0000000  0.0000000 )
                  (  0.0000000  0.0000000 -1.0000000 )


      isym = 33     inv. 180 deg rotation - cart. axis [1,0,1]   

 cryst.   s(33) = (     1          0          0      )
                  (     0          0          1      )
                  (     0          1          0      )

 cart.    s(33) = (  0.0000000  0.0000000 -1.0000000 )
                  (  0.0000000  1.0000000  0.0000000 )
                  ( -1.0000000  0.0000000  0.0000000 )


      isym = 34     inv. 180 deg rotation - cart. axis [-1,0,1]  

 cryst.   s(34) = (    -1          0          0      )
                  (    -1          1          0      )
                  (    -1          0          1      )

 cart.    s(34) = (  0.0000000  0.0000000  1.0000000 )
                  (  0.0000000  1.0000000  0.0000000 )
                  (  1.0000000  0.0000000  0.0000000 )


      isym = 35     inv.  90 deg rotation - cart. axis [0,1,0]   

 cryst.   s(35) = (     0         -1          1      )
                  (     1         -1          0      )
                  (     0         -1          0      )

 cart.    s(35) = (  0.0000000  0.0000000 -1.0000000 )
                  (  0.0000000 -1.0000000  0.0000000 )
                  (  1.0000000  0.0000000  0.0000000 )


      isym = 36     inv.  90 deg rotation - cart. axis [0,-1,0]  

 cryst.   s(36) = (     0          1         -1      )
                  (     0          0         -1      )
                  (     1          0         -1      )

 cart.    s(36) = (  0.0000000  0.0000000  1.0000000 )
                  (  0.0000000 -1.0000000  0.0000000 )
                  ( -1.0000000  0.0000000  0.0000000 )


      isym = 37     inv. 180 deg rotation - cart. axis [0,1,1]   

 cryst.   s(37) = (     1         -1          0      )
                  (     0         -1          0      )
                  (     0         -1          1      )

 cart.    s(37) = (  1.0000000  0.0000000  0.0000000 )
                  (  0.0000000  0.0000000 -1.0000000 )
                  (  0.0000000 -1.0000000  0.0000000 )


      isym = 38     inv. 180 deg rotation - cart. axis [0,1,-1]  

 cryst.   s(38) = (     0          0          1      )
                  (     0          1          0      )
                  (     1          0          0      )

 cart.    s(38) = (  1.0000000  0.0000000  0.0000000 )
                  (  0.0000000  0.0000000  1.0000000 )
                  (  0.0000000  1.0000000  0.0000000 )


      isym = 39     inv.  90 deg rotation - cart. axis [-1,0,0]  

 cryst.   s(39) = (     0          0         -1      )
                  (     1          0         -1      )
                  (     0          1         -1      )

 cart.    s(39) = ( -1.0000000  0.0000000  0.0000000 )
                  (  0.0000000  0.0000000 -1.0000000 )
                  (  0.0000000  1.0000000  0.0000000 )


      isym = 40     inv.  90 deg rotation - cart. axis [1,0,0]   

 cryst.   s(40) = (    -1          1          0      )
                  (    -1          0          1      )
                  (    -1          0          0      )

 cart.    s(40) = ( -1.0000000  0.0000000  0.0000000 )
                  (  0.0000000  0.0000000  1.0000000 )
                  (  0.0000000 -1.0000000  0.0000000 )


      isym = 41     inv. 120 deg rotation - cart. axis [-1,-1,-1]

 cryst.   s(41) = (     1          0         -1      )    f =( -0.2500000 )
                  (     1         -1          0      )       ( -0.2500000 )
                  (     1          0          0      )       ( -0.2500000 )

 cart.    s(41) = (  0.0000000 -1.0000000  0.0000000 )    f =(  0.2500000 )
                  (  0.0000000  0.0000000 -1.0000000 )       ( -0.2500000 )
                  ( -1.0000000  0.0000000  0.0000000 )       ( -0.2500000 )


      isym = 42     inv. 120 deg rotation - cart. axis [-1,1,1]  

 cryst.   s(42) = (     0         -1          0      )    f =( -0.2500000 )
                  (     0          0         -1      )       ( -0.2500000 )
                  (    -1          0          0      )       ( -0.2500000 )

 cart.    s(42) = (  0.0000000  1.0000000  0.0000000 )    f =(  0.2500000 )
                  (  0.0000000  0.0000000 -1.0000000 )       ( -0.2500000 )
                  (  1.0000000  0.0000000  0.0000000 )       ( -0.2500000 )


      isym = 43     inv. 120 deg rotation - cart. axis [1,1,-1]  

 cryst.   s(43) = (    -1          0          1      )    f =( -0.2500000 )
                  (     0          0          1      )       ( -0.2500000 )
                  (     0         -1          1      )       ( -0.2500000 )

 cart.    s(43) = (  0.0000000 -1.0000000  0.0000000 )    f =(  0.2500000 )
                  (  0.0000000  0.0000000  1.0000000 )       ( -0.2500000 )
                  (  1.0000000  0.0000000  0.0000000 )       ( -0.2500000 )


      isym = 44     inv. 120 deg rotation - cart. axis [1,-1,1]  

 cryst.   s(44) = (     0          1          0      )    f =( -0.2500000 )
                  (    -1          1          0      )       ( -0.2500000 )
                  (     0          1         -1      )       ( -0.2500000 )

 cart.    s(44) = (  0.0000000  1.0000000  0.0000000 )    f =(  0.2500000 )
                  (  0.0000000  0.0000000  1.0000000 )       ( -0.2500000 )
                  ( -1.0000000  0.0000000  0.0000000 )       ( -0.2500000 )


      isym = 45     inv. 120 deg rotation - cart. axis [1,1,1]   

 cryst.   s(45) = (     0          0          1      )    f =( -0.2500000 )
                  (     0         -1          1      )       ( -0.2500000 )
                  (    -1          0          1      )       ( -0.2500000 )

 cart.    s(45) = (  0.0000000  0.0000000 -1.0000000 )    f =(  0.2500000 )
                  ( -1.0000000  0.0000000  0.0000000 )       ( -0.2500000 )
                  (  0.0000000 -1.0000000  0.0000000 )       ( -0.2500000 )


      isym = 46     inv. 120 deg rotation - cart. axis [-1,1,-1] 

 cryst.   s(46) = (     1         -1          0      )    f =( -0.2500000 )
                  (     1          0          0      )       ( -0.2500000 )
                  (     1          0         -1      )       ( -0.2500000 )

 cart.    s(46) = (  0.0000000  0.0000000 -1.0000000 )    f =(  0.2500000 )
                  (  1.0000000  0.0000000  0.0000000 )       ( -0.2500000 )
                  (  0.0000000  1.0000000  0.0000000 )       ( -0.2500000 )


      isym = 47     inv. 120 deg rotation - cart. axis [1,-1,-1] 

 cryst.   s(47) = (     0          0         -1      )    f =( -0.2500000 )
                  (    -1          0          0      )       ( -0.2500000 )
                  (     0         -1          0      )       ( -0.2500000 )

 cart.    s(47) = (  0.0000000  0.0000000  1.0000000 )    f =(  0.2500000 )
                  (  1.0000000  0.0000000  0.0000000 )       ( -0.2500000 )
                  (  0.0000000 -1.0000000  0.0000000 )       ( -0.2500000 )


      isym = 48     inv. 120 deg rotation - cart. axis [-1,-1,1] 

 cryst.   s(48) = (    -1          1          0      )    f =( -0.2500000 )
                  (     0          1         -1      )       ( -0.2500000 )
                  (     0          1          0      )       ( -0.2500000 )

 cart.    s(48) = (  0.0000000  0.0000000  1.0000000 )    f =(  0.2500000 )
                  ( -1.0000000  0.0000000  0.0000000 )       ( -0.2500000 )
                  (  0.0000000  1.0000000  0.0000000 )       ( -0.2500000 )


     point group O_h (m-3m) 
     there are 10 classes
     the character table:

       E     8C3   3C2   6C4   6C2'  i     8S6   3s_h  6S4   6s_d 
A_1g   1.00  1.00  1.00  1.00  1.00  1.00  1.00  1.00  1.00  1.00
A_2g   1.00  1.00  1.00 -1.00 -1.00  1.00  1.00  1.00 -1.00 -1.00
E_g    2.00 -1.00  2.00  0.00  0.00  2.00 -1.00  2.00  0.00  0.00
T_1g   3.00  0.00 -1.00  1.00 -1.00  3.00  0.00 -1.00  1.00 -1.00
T_2g   3.00  0.00 -1.00 -1.00  1.00  3.00  0.00 -1.00 -1.00  1.00
A_1u   1.00  1.00  1.00  1.00  1.00 -1.00 -1.00 -1.00 -1.00 -1.00
A_2u   1.00  1.00  1.00 -1.00 -1.00 -1.00 -1.00 -1.00  1.00  1.00
E_u    2.00 -1.00  2.00  0.00  0.00 -2.00  1.00 -2.00  0.00  0.00
T_1u   3.00  0.00 -1.00  1.00 -1.00 -3.00  0.00  1.00 -1.00  1.00
T_2u   3.00  0.00 -1.00 -1.00  1.00 -3.00  0.00  1.00  1.00 -1.00

     the symmetry operations in each class and the name of the first element:

     E        1
          identity                                               
     8C3     17   19   20   18   24   21   22   23
          120 deg rotation - cart. axis [-1,-1,-1]               
     3C2      2    4    3
          180 deg rotation - cart. axis [0,0,1]                  
     6C4      7    8   15   16   12   11
           90 deg rotation - cart. axis [0,0,-1]                 
     6C2'     5    6   14   13   10    9
          180 deg rotation - cart. axis [1,1,0]                  
     i       25
          inversion                                              
     8S6     41   43   44   42   48   45   46   47
          inv. 120 deg rotation - cart. axis [-1,-1,-1]          
     3s_h    26   28   27
          inv. 180 deg rotation - cart. axis [0,0,1]             
     6S4     31   32   39   40   36   35
          inv.  90 deg rotation - cart. axis [0,0,-1]            
     6s_d    29   30   38   37   34   33
          inv. 180 deg rotation - cart. axis [1,1,0]             

   Cartesian axes

     site n.     atom                  positions (alat units)
         1           Si  tau(   1) = (   0.0000000   0.0000000   0.0000000  )
         2           Si  tau(   2) = (  -0.2500000   0.2500000   0.2500000  )

   Crystallographic axes

     site n.     atom                  positions (cryst. coord.)
         1           Si  tau(   1) = (  0.0000000  0.0000000  0.0000000  )
         2           Si  tau(   2) = (  0.2500000  0.2500000  0.2500000  )

     number of k points=    91
                       cart. coord. in units 2pi/alat
        k(    1) = (   0.5000000   0.5000000   0.5000000), wk =   0.0219780
        k(    2) = (   0.4750000   0.4750000   0.4750000), wk =   0.0219780
        k(    3) = (   0.4500000   0.4500000   0.4500000), wk =   0.0219780
        k(    4) = (   0.4250000   0.4250000   0.4250000), wk =   0.0219780
        k(    5) = (   0.4000000   0.4000000   0.4000000), wk =   0.0219780
        k(    6) = (   0.3750000   0.3750000   0.3750000), wk =   0.0219780
        k(    7) = (   0.3500000   0.3500000   0.3500000), wk =   0.0219780
        k(    8) = (   0.3250000   0.3250000   0.3250000), wk =   0.0219780
        k(    9) = (   0.3000000   0.3000000   0.3000000), wk =   0.0219780
        k(   10) = (   0.2750000   0.2750000   0.2750000), wk =   0.0219780
        k(   11) = (   0.2500000   0.2500000   0.2500000), wk =   0.0219780
        k(   12) = (   0.2250000   0.2250000   0.2250000), wk =   0.0219780
        k(   13) = (   0.2000000   0.2000000   0.2000000), wk =   0.0219780
        k(   14) = (   0.1750000   0.1750000   0.1750000), wk =   0.0219780
        k(   15) = (   0.1500000   0.1500000   0.1500000), wk =   0.0219780
        k(   16) = (   0.1250000   0.1250000   0.1250000), wk =   0.0219780
        k(   17) = (   0.1000000   0.1000000   0.1000000), wk =   0.0219780
        k(   18) = (   0.0750000   0.0750000   0.0750000), wk =   0.0219780
        k(   19) = (   0.0500000   0.0500000   0.0500000), wk =   0.0219780
        k(   20) = (   0.0250000   0.0250000   0.0250000), wk =   0.0219780
        k(   21) = (   0.0000000   0.0000000   0.0000000), wk =   0.0219780
        k(   22) = (   0.0333333   0.0000000   0.0000000), wk =   0.0219780
        k(   23) = (   0.0666667   0.0000000   0.0000000), wk =   0.0219780
        k(   24) = (   0.1000000   0.0000000   0.0000000), wk =   0.0219780
        k(   25) = (   0.1333333   0.0000000   0.0000000), wk =   0.0219780
        k(   26) = (   0.1666667   0.0000000   0.0000000), wk =   0.0219780
        k(   27) = (   0.2000000   0.0000000   0.0000000), wk =   0.0219780
        k(   28) = (   0.2333333   0.0000000   0.0000000), wk =   0.0219780
        k(   29) = (   0.2666667   0.0000000   0.0000000), wk =   0.0219780
        k(   30) = (   0.3000000   0.0000000   0.0000000), wk =   0.0219780
        k(   31) = (   0.3333333   0.0000000   0.0000000), wk =   0.0219780
        k(   32) = (   0.3666667   0.0000000   0.0000000), wk =   0.0219780
        k(   33) = (   0.4000000   0.0000000   0.0000000), wk =   0.0219780
        k(   34) = (   0.4333333   0.0000000   0.0000000), wk =   0.0219780
        k(   35) = (   0.4666667   0.0000000   0.0000000), wk =   0.0219780
        k(   36) = (   0.5000000   0.0000000   0.0000000), wk =   0.0219780
        k(   37) = (   0.5333333   0.0000000   0.0000000), wk =   0.0219780
        k(   38) = (   0.5666667   0.0000000   0.0000000), wk =   0.0219780
        k(   39) = (   0.6000000   0.0000000   0.0000000), wk =   0.0219780
        k(   40) = (   0.6333333   0.0000000   0.0000000), wk =   0.0219780
        k(   41) = (   0.6666667   0.0000000   0.0000000), wk =   0.0219780
        k(   42) = (   0.7000000   0.0000000   0.0000000), wk =   0.0219780
        k(   43) = (   0.7333333   0.0000000   0.0000000), wk =   0.0219780
        k(   44) = (   0.7666667   0.0000000   0.0000000), wk =   0.0219780
        k(   45) = (   0.8000000   0.0000000   0.0000000), wk =   0.0219780
        k(   46) = (   0.8333333   0.0000000   0.0000000), wk =   0.0219780
        k(   47) = (   0.8666667   0.0000000   0.0000000), wk =   0.0219780
        k(   48) = (   0.9000000   0.0000000   0.0000000), wk =   0.0219780
        k(   49) = (   0.9333333   0.0000000   0.0000000), wk =   0.0219780
        k(   50) = (   0.9666667   0.0000000   0.0000000), wk =   0.0219780
        k(   51) = (   1.0000000   0.0000000   0.0000000), wk =   0.0219780
        k(   52) = (   1.0000000   0.0250000   0.0250000), wk =   0.0219780
        k(   53) = (   1.0000000   0.0500000   0.0500000), wk =   0.0219780
        k(   54) = (   1.0000000   0.0750000   0.0750000), wk =   0.0219780
        k(   55) = (   1.0000000   0.1000000   0.1000000), wk =   0.0219780
        k(   56) = (   1.0000000   0.1250000   0.1250000), wk =   0.0219780
        k(   57) = (   1.0000000   0.1500000   0.1500000), wk =   0.0219780
        k(   58) = (   1.0000000   0.1750000   0.1750000), wk =   0.0219780
        k(   59) = (   1.0000000   0.2000000   0.2000000), wk =   0.0219780
        k(   60) = (   1.0000000   0.2250000   0.2250000), wk =   0.0219780
        k(   61) = (   1.0000000   0.2500000   0.2500000), wk =   0.0219780
        k(   62) = (   0.9666667   0.2416667   0.2416667), wk =   0.0219780
        k(   63) = (   0.9333333   0.2333333   0.2333333), wk =   0.0219780
        k(   64) = (   0.9000000   0.2250000   0.2250000), wk =   0.0219780
        k(   65) = (   0.8666667   0.2166667   0.2166667), wk =   0.0219780
        k(   66) = (   0.8333333   0.2083333   0.2083333), wk =   0.0219780
        k(   67) = (   0.8000000   0.2000000   0.2000000), wk =   0.0219780
        k(   68) = (   0.7666667   0.1916667   0.1916667), wk =   0.0219780
        k(   69) = (   0.7333333   0.1833333   0.1833333), wk =   0.0219780
        k(   70) = (   0.7000000   0.1750000   0.1750000), wk =   0.0219780
        k(   71) = (   0.6666667   0.1666667   0.1666667), wk =   0.0219780
        k(   72) = (   0.6333333   0.1583333   0.1583333), wk =   0.0219780
        k(   73) = (   0.6000000   0.1500000   0.1500000), wk =   0.0219780
        k(   74) = (   0.5666667   0.1416667   0.1416667), wk =   0.0219780
        k(   75) = (   0.5333333   0.1333333   0.1333333), wk =   0.0219780
        k(   76) = (   0.5000000   0.1250000   0.1250000), wk =   0.0219780
        k(   77) = (   0.4666667   0.1166667   0.1166667), wk =   0.0219780
        k(   78) = (   0.4333333   0.1083333   0.1083333), wk =   0.0219780
        k(   79) = (   0.4000000   0.1000000   0.1000000), wk =   0.0219780
        k(   80) = (   0.3666667   0.0916667   0.0916667), wk =   0.0219780
        k(   81) = (   0.3333333   0.0833333   0.0833333), wk =   0.0219780
        k(   82) = (   0.3000000   0.0750000   0.0750000), wk =   0.0219780
        k(   83) = (   0.2666667   0.0666667   0.0666667), wk =   0.0219780
        k(   84) = (   0.2333333   0.0583333   0.0583333), wk =   0.0219780
        k(   85) = (   0.2000000   0.0500000   0.0500000), wk =   0.0219780
        k(   86) = (   0.1666667   0.0416667   0.0416667), wk =   0.0219780
        k(   87) = (   0.1333333   0.0333333   0.0333333), wk =   0.0219780
        k(   88) = (   0.1000000   0.0250000   0.0250000), wk =   0.0219780
        k(   89) = (   0.0666667   0.0166667   0.0166667), wk =   0.0219780
        k(   90) = (   0.0333333   0.0083333   0.0083333), wk =   0.0219780
        k(   91) = (   0.0000000   0.0000000   0.0000000), wk =   0.0219780

                       cryst. coord.
        k(    1) = (   0.0000000   0.5000000   0.0000000), wk =   0.0219780
        k(    2) = (   0.0000000   0.4750000   0.0000000), wk =   0.0219780
        k(    3) = (   0.0000000   0.4500000   0.0000000), wk =   0.0219780
        k(    4) = (   0.0000000   0.4250000   0.0000000), wk =   0.0219780
        k(    5) = (   0.0000000   0.4000000   0.0000000), wk =   0.0219780
        k(    6) = (   0.0000000   0.3750000   0.0000000), wk =   0.0219780
        k(    7) = (   0.0000000   0.3500000   0.0000000), wk =   0.0219780
        k(    8) = (   0.0000000   0.3250000   0.0000000), wk =   0.0219780
        k(    9) = (   0.0000000   0.3000000   0.0000000), wk =   0.0219780
        k(   10) = (   0.0000000   0.2750000   0.0000000), wk =   0.0219780
        k(   11) = (   0.0000000   0.2500000   0.0000000), wk =   0.0219780
        k(   12) = (   0.0000000   0.2250000   0.0000000), wk =   0.0219780
        k(   13) = (   0.0000000   0.2000000   0.0000000), wk =   0.0219780
        k(   14) = (   0.0000000   0.1750000   0.0000000), wk =   0.0219780
        k(   15) = (   0.0000000   0.1500000   0.0000000), wk =   0.0219780
        k(   16) = (   0.0000000   0.1250000   0.0000000), wk =   0.0219780
        k(   17) = (   0.0000000   0.1000000   0.0000000), wk =   0.0219780
        k(   18) = (   0.0000000   0.0750000   0.0000000), wk =   0.0219780
        k(   19) = (   0.0000000   0.0500000   0.0000000), wk =   0.0219780
        k(   20) = (   0.0000000   0.0250000   0.0000000), wk =   0.0219780
        k(   21) = (   0.0000000   0.0000000   0.0000000), wk =   0.0219780
        k(   22) = (  -0.0166667   0.0000000  -0.0166667), wk =   0.0219780
        k(   23) = (  -0.0333333   0.0000000  -0.0333333), wk =   0.0219780
        k(   24) = (  -0.0500000   0.0000000  -0.0500000), wk =   0.0219780
        k(   25) = (  -0.0666667   0.0000000  -0.0666667), wk =   0.0219780
        k(   26) = (  -0.0833333   0.0000000  -0.0833333), wk =   0.0219780
        k(   27) = (  -0.1000000   0.0000000  -0.1000000), wk =   0.0219780
        k(   28) = (  -0.1166667   0.0000000  -0.1166667), wk =   0.0219780
        k(   29) = (  -0.1333333   0.0000000  -0.1333333), wk =   0.0219780
        k(   30) = (  -0.1500000   0.0000000  -0.1500000), wk =   0.0219780
        k(   31) = (  -0.1666667   0.0000000  -0.1666667), wk =   0.0219780
        k(   32) = (  -0.1833333   0.0000000  -0.1833333), wk =   0.0219780
        k(   33) = (  -0.2000000   0.0000000  -0.2000000), wk =   0.0219780
        k(   34) = (  -0.2166667   0.0000000  -0.2166667), wk =   0.0219780
        k(   35) = (  -0.2333333   0.0000000  -0.2333333), wk =   0.0219780
        k(   36) = (  -0.2500000   0.0000000  -0.2500000), wk =   0.0219780
        k(   37) = (  -0.2666667   0.0000000  -0.2666667), wk =   0.0219780
        k(   38) = (  -0.2833333   0.0000000  -0.2833333), wk =   0.0219780
        k(   39) = (  -0.3000000   0.0000000  -0.3000000), wk =   0.0219780
        k(   40) = (  -0.3166667   0.0000000  -0.3166667), wk =   0.0219780
        k(   41) = (  -0.3333333   0.0000000  -0.3333333), wk =   0.0219780
        k(   42) = (  -0.3500000   0.0000000  -0.3500000), wk =   0.0219780
        k(   43) = (  -0.3666667   0.0000000  -0.3666667), wk =   0.0219780
        k(   44) = (  -0.3833333   0.0000000  -0.3833333), wk =   0.0219780
        k(   45) = (  -0.4000000   0.0000000  -0.4000000), wk =   0.0219780
        k(   46) = (  -0.4166667   0.0000000  -0.4166667), wk =   0.0219780
        k(   47) = (  -0.4333333   0.0000000  -0.4333333), wk =   0.0219780
        k(   48) = (  -0.4500000   0.0000000  -0.4500000), wk =   0.0219780
        k(   49) = (  -0.4666667   0.0000000  -0.4666667), wk =   0.0219780
        k(   50) = (  -0.4833333   0.0000000  -0.4833333), wk =   0.0219780
        k(   51) = (  -0.5000000   0.0000000  -0.5000000), wk =   0.0219780
        k(   52) = (  -0.4875000   0.0250000  -0.4875000), wk =   0.0219780
        k(   53) = (  -0.4750000   0.0500000  -0.4750000), wk =   0.0219780
        k(   54) = (  -0.4625000   0.0750000  -0.4625000), wk =   0.0219780
        k(   55) = (  -0.4500000   0.1000000  -0.4500000), wk =   0.0219780
        k(   56) = (  -0.4375000   0.1250000  -0.4375000), wk =   0.0219780
        k(   57) = (  -0.4250000   0.1500000  -0.4250000), wk =   0.0219780
        k(   58) = (  -0.4125000   0.1750000  -0.4125000), wk =   0.0219780
        k(   59) = (  -0.4000000   0.2000000  -0.4000000), wk =   0.0219780
        k(   60) = (  -0.3875000   0.2250000  -0.3875000), wk =   0.0219780
        k(   61) = (  -0.3750000   0.2500000  -0.3750000), wk =   0.0219780
        k(   62) = (  -0.3625000   0.2416667  -0.3625000), wk =   0.0219780
        k(   63) = (  -0.3500000   0.2333333  -0.3500000), wk =   0.0219780
        k(   64) = (  -0.3375000   0.2250000  -0.3375000), wk =   0.0219780
        k(   65) = (  -0.3250000   0.2166667  -0.3250000), wk =   0.0219780
        k(   66) = (  -0.3125000   0.2083333  -0.3125000), wk =   0.0219780
        k(   67) = (  -0.3000000   0.2000000  -0.3000000), wk =   0.0219780
        k(   68) = (  -0.2875000   0.1916667  -0.2875000), wk =   0.0219780
        k(   69) = (  -0.2750000   0.1833333  -0.2750000), wk =   0.0219780
        k(   70) = (  -0.2625000   0.1750000  -0.2625000), wk =   0.0219780
        k(   71) = (  -0.2500000   0.1666667  -0.2500000), wk =   0.0219780
        k(   72) = (  -0.2375000   0.1583333  -0.2375000), wk =   0.0219780
        k(   73) = (  -0.2250000   0.1500000  -0.2250000), wk =   0.0219780
        k(   74) = (  -0.2125000   0.1416667  -0.2125000), wk =   0.0219780
        k(   75) = (  -0.2000000   0.1333333  -0.2000000), wk =   0.0219780
        k(   76) = (  -0.1875000   0.1250000  -0.1875000), wk =   0.0219780
        k(   77) = (  -0.1750000   0.1166667  -0.1750000), wk =   0.0219780
        k(   78) = (  -0.1625000   0.1083333  -0.1625000), wk =   0.0219780
        k(   79) = (  -0.1500000   0.1000000  -0.1500000), wk =   0.0219780
        k(   80) = (  -0.1375000   0.0916667  -0.1375000), wk =   0.0219780
        k(   81) = (  -0.1250000   0.0833333  -0.1250000), wk =   0.0219780
        k(   82) = (  -0.1125000   0.0750000  -0.1125000), wk =   0.0219780
        k(   83) = (  -0.1000000   0.0666667  -0.1000000), wk =   0.0219780
        k(   84) = (  -0.0875000   0.0583333  -0.0875000), wk =   0.0219780
        k(   85) = (  -0.0750000   0.0500000  -0.0750000), wk =   0.0219780
        k(   86) = (  -0.0625000   0.0416667  -0.0625000), wk =   0.0219780
        k(   87) = (  -0.0500000   0.0333333  -0.0500000), wk =   0.0219780
        k(   88) = (  -0.0375000   0.0250000  -0.0375000), wk =   0.0219780
        k(   89) = (  -0.0250000   0.0166667  -0.0250000), wk =   0.0219780
        k(   90) = (  -0.0125000   0.0083333  -0.0125000), wk =   0.0219780
        k(   91) = (   0.0000000   0.0000000   0.0000000), wk =   0.0219780

     Dense  grid:    23289 G-vectors     FFT dimensions: (  40,  40,  40)

     Smooth grid:     5961 G-vectors     FFT dimensions: (  32,  32,  32)

     Dynamical RAM for                 wfc:       0.09 MB

     Dynamical RAM for     wfc (w. buffer):       0.09 MB

     Dynamical RAM for           str. fact:       0.36 MB

     Dynamical RAM for           local pot:       0.00 MB

     Dynamical RAM for          nlocal pot:       0.40 MB

     Dynamical RAM for                qrad:       1.39 MB

     Dynamical RAM for          rho,v,vnew:       2.53 MB

     Dynamical RAM for           G-vectors:       1.38 MB

     Dynamical RAM for          h,s,v(r/c):       0.01 MB

     Dynamical RAM for          <psi|beta>:       0.00 MB

     Dynamical RAM for                 psi:       0.18 MB

     Dynamical RAM for                hpsi:       0.18 MB

     Dynamical RAM for                spsi:       0.18 MB

     Dynamical RAM for      wfcinit/wfcrot:       0.18 MB

     Dynamical RAM for           addusdens:      66.81 MB

     Estimated static dynamical RAM per process >       9.30 MB

     Estimated max dynamical RAM per process >      76.11 MB

     The potential is recalculated from file :
     ./Si.save/charge-density

     Starting wfcs are    8 randomized atomic wfcs

     Band Structure Calculation
     Davidson diagonalization with overlap

     Computing kpt #:     1  of    91
     total cpu time spent up to now is        2.6 secs

     Computing kpt #:     2  of    91
     total cpu time spent up to now is        2.8 secs

     Computing kpt #:     3  of    91
     total cpu time spent up to now is        3.1 secs

     Computing kpt #:     4  of    91
     total cpu time spent up to now is        3.4 secs

     Computing kpt #:     5  of    91
     total cpu time spent up to now is        3.7 secs

     Computing kpt #:     6  of    91
     total cpu time spent up to now is        4.0 secs

     Computing kpt #:     7  of    91
     total cpu time spent up to now is        4.3 secs

     Computing kpt #:     8  of    91
     total cpu time spent up to now is        4.7 secs

     Computing kpt #:     9  of    91
     total cpu time spent up to now is        5.0 secs

     Computing kpt #:    10  of    91
     total cpu time spent up to now is        5.3 secs

     Computing kpt #:    11  of    91
     total cpu time spent up to now is        5.6 secs

     Computing kpt #:    12  of    91
     total cpu time spent up to now is        5.9 secs

     Computing kpt #:    13  of    91
     total cpu time spent up to now is        6.2 secs

     Computing kpt #:    14  of    91
     total cpu time spent up to now is        6.4 secs

     Computing kpt #:    15  of    91
     total cpu time spent up to now is        6.7 secs

     Computing kpt #:    16  of    91
     total cpu time spent up to now is        7.0 secs

     Computing kpt #:    17  of    91
     total cpu time spent up to now is        7.2 secs

     Computing kpt #:    18  of    91
     total cpu time spent up to now is        7.5 secs

     Computing kpt #:    19  of    91
     total cpu time spent up to now is        7.7 secs

     Computing kpt #:    20  of    91
     total cpu time spent up to now is        7.9 secs

     Computing kpt #:    21  of    91
     total cpu time spent up to now is        8.1 secs

     Computing kpt #:    22  of    91
     total cpu time spent up to now is        8.3 secs

     Computing kpt #:    23  of    91
     total cpu time spent up to now is        8.6 secs

     Computing kpt #:    24  of    91
     total cpu time spent up to now is        8.8 secs

     Computing kpt #:    25  of    91
     total cpu time spent up to now is        9.0 secs

     Computing kpt #:    26  of    91
     total cpu time spent up to now is        9.3 secs

     Computing kpt #:    27  of    91
     total cpu time spent up to now is        9.5 secs

     Computing kpt #:    28  of    91
     total cpu time spent up to now is        9.8 secs

     Computing kpt #:    29  of    91
     total cpu time spent up to now is       10.1 secs

     Computing kpt #:    30  of    91
     total cpu time spent up to now is       10.3 secs

     Computing kpt #:    31  of    91
     total cpu time spent up to now is       10.6 secs

     Computing kpt #:    32  of    91
     total cpu time spent up to now is       10.9 secs

     Computing kpt #:    33  of    91
     total cpu time spent up to now is       11.1 secs

     Computing kpt #:    34  of    91
     total cpu time spent up to now is       11.4 secs

     Computing kpt #:    35  of    91
     total cpu time spent up to now is       11.7 secs

     Computing kpt #:    36  of    91
     total cpu time spent up to now is       11.9 secs

     Computing kpt #:    37  of    91
     total cpu time spent up to now is       12.2 secs

     Computing kpt #:    38  of    91
     total cpu time spent up to now is       12.4 secs

     Computing kpt #:    39  of    91
     total cpu time spent up to now is       12.7 secs

     Computing kpt #:    40  of    91
     total cpu time spent up to now is       13.0 secs

     Computing kpt #:    41  of    91
     total cpu time spent up to now is       13.3 secs

     Computing kpt #:    42  of    91
     total cpu time spent up to now is       13.5 secs

     Computing kpt #:    43  of    91
     total cpu time spent up to now is       13.8 secs

     Computing kpt #:    44  of    91
     total cpu time spent up to now is       14.1 secs

     Computing kpt #:    45  of    91
     total cpu time spent up to now is       14.4 secs

     Computing kpt #:    46  of    91
     total cpu time spent up to now is       14.6 secs

     Computing kpt #:    47  of    91
     total cpu time spent up to now is       14.9 secs

     Computing kpt #:    48  of    91
     total cpu time spent up to now is       15.2 secs

     Computing kpt #:    49  of    91
     total cpu time spent up to now is       15.5 secs

     Computing kpt #:    50  of    91
     total cpu time spent up to now is       15.8 secs

     Computing kpt #:    51  of    91
     total cpu time spent up to now is       16.1 secs

     Computing kpt #:    52  of    91
     total cpu time spent up to now is       16.4 secs

     Computing kpt #:    53  of    91
     total cpu time spent up to now is       16.7 secs

     Computing kpt #:    54  of    91
     total cpu time spent up to now is       17.0 secs

     Computing kpt #:    55  of    91
     total cpu time spent up to now is       17.3 secs

     Computing kpt #:    56  of    91
     total cpu time spent up to now is       17.6 secs

     Computing kpt #:    57  of    91
     total cpu time spent up to now is       18.0 secs

     Computing kpt #:    58  of    91
     total cpu time spent up to now is       18.4 secs

     Computing kpt #:    59  of    91
     total cpu time spent up to now is       18.7 secs

     Computing kpt #:    60  of    91
     total cpu time spent up to now is       19.2 secs

     Computing kpt #:    61  of    91
     total cpu time spent up to now is       19.5 secs

     Computing kpt #:    62  of    91
     total cpu time spent up to now is       19.9 secs

     Computing kpt #:    63  of    91
     total cpu time spent up to now is       20.2 secs

     Computing kpt #:    64  of    91
     total cpu time spent up to now is       20.4 secs

     Computing kpt #:    65  of    91
     total cpu time spent up to now is       20.7 secs

     Computing kpt #:    66  of    91
     total cpu time spent up to now is       21.0 secs

     Computing kpt #:    67  of    91
     total cpu time spent up to now is       21.3 secs

     Computing kpt #:    68  of    91
     total cpu time spent up to now is       21.5 secs

     Computing kpt #:    69  of    91
     total cpu time spent up to now is       21.8 secs

     Computing kpt #:    70  of    91
     total cpu time spent up to now is       22.1 secs

     Computing kpt #:    71  of    91
     total cpu time spent up to now is       22.4 secs

     Computing kpt #:    72  of    91
     total cpu time spent up to now is       22.7 secs

     Computing kpt #:    73  of    91
     total cpu time spent up to now is       22.9 secs

     Computing kpt #:    74  of    91
     total cpu time spent up to now is       23.2 secs

     Computing kpt #:    75  of    91
     total cpu time spent up to now is       23.5 secs

     Computing kpt #:    76  of    91
     total cpu time spent up to now is       23.8 secs

     Computing kpt #:    77  of    91
     total cpu time spent up to now is       24.0 secs

     Computing kpt #:    78  of    91
     total cpu time spent up to now is       24.3 secs

     Computing kpt #:    79  of    91
     total cpu time spent up to now is       24.6 secs

     Computing kpt #:    80  of    91
     total cpu time spent up to now is       24.9 secs

     Computing kpt #:    81  of    91
     total cpu time spent up to now is       25.2 secs

     Computing kpt #:    82  of    91
     total cpu time spent up to now is       25.5 secs

     Computing kpt #:    83  of    91
     total cpu time spent up to now is       25.7 secs

     Computing kpt #:    84  of    91
     total cpu time spent up to now is       26.0 secs

     Computing kpt #:    85  of    91
     total cpu time spent up to now is       26.3 secs

     Computing kpt #:    86  of    91
     total cpu time spent up to now is       26.6 secs

     Computing kpt #:    87  of    91
     total cpu time spent up to now is       26.8 secs

     Computing kpt #:    88  of    91
     total cpu time spent up to now is       27.1 secs

     Computing kpt #:    89  of    91
     total cpu time spent up to now is       27.3 secs

     Computing kpt #:    90  of    91
     total cpu time spent up to now is       27.5 secs

     Computing kpt #:    91  of    91
     total cpu time spent up to now is       27.7 secs

     ethr =  1.25E-10,  avg # of iterations = 29.0

     total cpu time spent up to now is       27.7 secs

     End of band structure calculation

          k = 0.5000 0.5000 0.5000 (   754 PWs)   bands (ev):

    -3.4946  -0.8690   5.0057   5.0057   7.7138   9.5117   9.5117  13.7674

          k = 0.4750 0.4750 0.4750 (   742 PWs)   bands (ev):

    -3.5317  -0.8163   5.0102   5.0102   7.7190   9.5172   9.5172  13.7761

          k = 0.4500 0.4500 0.4500 (   736 PWs)   bands (ev):

    -3.6345  -0.6665   5.0237   5.0237   7.7346   9.5335   9.5335  13.8014

          k = 0.4250 0.4250 0.4250 (   739 PWs)   bands (ev):

    -3.7845  -0.4384   5.0462   5.0462   7.7606   9.5592   9.5592  13.8416

          k = 0.4000 0.4000 0.4000 (   745 PWs)   bands (ev):

    -3.9626  -0.1511   5.0776   5.0776   7.7967   9.5926   9.5926  13.8923

          k = 0.3750 0.3750 0.3750 (   748 PWs)   bands (ev):

    -4.1544   0.1804   5.1180   5.1180   7.8429   9.6305   9.6305  13.9449

          k = 0.3500 0.3500 0.3500 (   751 PWs)   bands (ev):

    -4.3499   0.5461   5.1671   5.1671   7.8990   9.6689   9.6689  13.9797

          k = 0.3250 0.3250 0.3250 (   751 PWs)   bands (ev):

    -4.5426   0.9387   5.2250   5.2250   7.9645   9.7024   9.7024  13.9536

          k = 0.3000 0.3000 0.3000 (   748 PWs)   bands (ev):

    -4.7283   1.3536   5.2912   5.2912   8.0390   9.7242   9.7242  13.8021

          k = 0.2750 0.2750 0.2750 (   751 PWs)   bands (ev):

    -4.9041   1.7869   5.3655   5.3655   8.1217   9.7271   9.7271  13.5118

          k = 0.2500 0.2500 0.2500 (   745 PWs)   bands (ev):

    -5.0682   2.2357   5.4473   5.4473   8.2117   9.7040   9.7040  13.1369

          k = 0.2250 0.2250 0.2250 (   733 PWs)   bands (ev):

    -5.2191   2.6971   5.5357   5.5357   8.3075   9.6504   9.6504  12.7221

          k = 0.2000 0.2000 0.2000 (   733 PWs)   bands (ev):

    -5.3558   3.1680   5.6296   5.6296   8.4072   9.5660   9.5660  12.2884

          k = 0.1750 0.1750 0.1750 (   730 PWs)   bands (ev):

    -5.4777   3.6452   5.7273   5.7273   8.5081   9.4550   9.4550  11.8458

          k = 0.1500 0.1500 0.1500 (   736 PWs)   bands (ev):

    -5.5841   4.1240   5.8266   5.8266   8.6063   9.3256   9.3256  11.4014

          k = 0.1250 0.1250 0.1250 (   728 PWs)   bands (ev):

    -5.6747   4.5982   5.9244   5.9244   8.6963   9.1882   9.1882  10.9633

          k = 0.1000 0.1000 0.1000 (   731 PWs)   bands (ev):

    -5.7492   5.0579   6.0167   6.0167   8.7698   9.0540   9.0540  10.5447

          k = 0.0750 0.0750 0.0750 (   731 PWs)   bands (ev):

    -5.8074   5.4868   6.0983   6.0983   8.8148   8.9341   8.9341  10.1683

          k = 0.0500 0.0500 0.0500 (   731 PWs)   bands (ev):

    -5.8490   5.8568   6.1632   6.1632   8.8173   8.8388   8.8388   9.8707

          k = 0.0250 0.0250 0.0250 (   725 PWs)   bands (ev):

    -5.8740   6.1212   6.2053   6.2053   8.7772   8.7772   8.7812   9.6898

          k = 0.0000 0.0000 0.0000 (   725 PWs)   bands (ev):

    -5.8824   6.2200   6.2200   6.2200   8.7559   8.7559   8.7559   9.6325

          k = 0.0333 0.0000 0.0000 (   725 PWs)   bands (ev):

    -5.8774   6.1866   6.1981   6.1981   8.7429   8.7838   8.7838   9.6652

          k = 0.0667 0.0000 0.0000 (   729 PWs)   bands (ev):

    -5.8626   6.0903   6.1352   6.1352   8.7045   8.8647   8.8647   9.7588

          k = 0.1000 0.0000 0.0000 (   729 PWs)   bands (ev):

    -5.8379   5.9407   6.0384   6.0384   8.6430   8.9914   8.9914   9.9016

          k = 0.1333 0.0000 0.0000 (   733 PWs)   bands (ev):

    -5.8033   5.7494   5.9164   5.9164   8.5613   9.1552   9.1552  10.0776

          k = 0.1667 0.0000 0.0000 (   733 PWs)   bands (ev):

    -5.7588   5.5270   5.7772   5.7772   8.4632   9.3480   9.3480  10.2683

          k = 0.2000 0.0000 0.0000 (   733 PWs)   bands (ev):

    -5.7045   5.2821   5.6271   5.6271   8.3524   9.5633   9.5633  10.4509

          k = 0.2333 0.0000 0.0000 (   737 PWs)   bands (ev):

    -5.6405   5.0209   5.4711   5.4711   8.2324   9.7960   9.7960  10.5952

          k = 0.2667 0.0000 0.0000 (   729 PWs)   bands (ev):

    -5.5667   4.7480   5.3126   5.3126   8.1065  10.0426  10.0426  10.6634

          k = 0.3000 0.0000 0.0000 (   729 PWs)   bands (ev):

    -5.4831   4.4665   5.1544   5.1544   7.9775  10.3002  10.3002  10.6271

          k = 0.3333 0.0000 0.0000 (   737 PWs)   bands (ev):

    -5.3900   4.1787   4.9983   4.9983   7.8477  10.4914  10.5667  10.5667

          k = 0.3667 0.0000 0.0000 (   737 PWs)   bands (ev):

    -5.2872   3.8862   4.8458   4.8458   7.7192  10.2871  10.8406  10.8406

          k = 0.4000 0.0000 0.0000 (   725 PWs)   bands (ev):

    -5.1749   3.5903   4.6979   4.6979   7.5937  10.0449  11.1206  11.1206

          k = 0.4333 0.0000 0.0000 (   729 PWs)   bands (ev):

    -5.0532   3.2918   4.5556   4.5556   7.4725   9.7850  11.4059  11.4059

          k = 0.4667 0.0000 0.0000 (   729 PWs)   bands (ev):

    -4.9222   2.9916   4.4193   4.4193   7.3568   9.5200  11.6956  11.6956

          k = 0.5000 0.0000 0.0000 (   729 PWs)   bands (ev):

    -4.7818   2.6900   4.2897   4.2897   7.2477   9.2570  11.9892  11.9892

          k = 0.5333 0.0000 0.0000 (   729 PWs)   bands (ev):

    -4.6324   2.3878   4.1672   4.1672   7.1460   9.0007  12.2862  12.2862

          k = 0.5667 0.0000 0.0000 (   725 PWs)   bands (ev):

    -4.4738   2.0852   4.0521   4.0521   7.0525   8.7539  12.5863  12.5863

          k = 0.6000 0.0000 0.0000 (   725 PWs)   bands (ev):

    -4.3064   1.7829   3.9447   3.9447   6.9676   8.5185  12.8892  12.8892

          k = 0.6333 0.0000 0.0000 (   725 PWs)   bands (ev):

    -4.1302   1.4812   3.8453   3.8453   6.8921   8.2960  13.1947  13.1947

          k = 0.6667 0.0000 0.0000 (   717 PWs)   bands (ev):

    -3.9454   1.1805   3.7540   3.7540   6.8264   8.0870  13.5026  13.5026

          k = 0.7000 0.0000 0.0000 (   733 PWs)   bands (ev):

    -3.7521   0.8814   3.6709   3.6709   6.7709   7.8922  13.8128  13.8128

          k = 0.7333 0.0000 0.0000 (   733 PWs)   bands (ev):

    -3.5505   0.5842   3.5963   3.5963   6.7261   7.7119  14.1251  14.1251

          k = 0.7667 0.0000 0.0000 (   733 PWs)   bands (ev):

    -3.3409   0.2895   3.5303   3.5303   6.6922   7.5462  14.4393  14.4393

          k = 0.8000 0.0000 0.0000 (   741 PWs)   bands (ev):

    -3.1233  -0.0023   3.4728   3.4728   6.6698   7.3951  14.7548  14.7548

          k = 0.8333 0.0000 0.0000 (   745 PWs)   bands (ev):

    -2.8982  -0.2907   3.4241   3.4241   6.6590   7.2588  15.0710  15.0710

          k = 0.8667 0.0000 0.0000 (   741 PWs)   bands (ev):

    -2.6656  -0.5753   3.3842   3.3842   6.6602   7.1369  15.3861  15.3861

          k = 0.9000 0.0000 0.0000 (   740 PWs)   bands (ev):

    -2.4259  -0.8557   3.3530   3.3530   6.6738   7.0295  15.6965  15.6965

          k = 0.9333 0.0000 0.0000 (   740 PWs)   bands (ev):

    -2.1794  -1.1314   3.3308   3.3308   6.6999   6.9362  15.9929  15.9929

          k = 0.9667 0.0000 0.0000 (   740 PWs)   bands (ev):

    -1.9263  -1.4020   3.3174   3.3174   6.7390   6.8568  16.2464  16.2464

          k = 1.0000 0.0000 0.0000 (   740 PWs)   bands (ev):

    -1.6671  -1.6671   3.3130   3.3130   6.7912   6.7912  16.3642  16.3642

          k = 1.0000 0.0250 0.0250 (   740 PWs)   bands (ev):

    -1.6692  -1.6611   3.2730   3.3175   6.7964   6.8491  16.3024  16.3310

          k = 1.0000 0.0500 0.0500 (   736 PWs)   bands (ev):

    -1.6756  -1.6432   3.1614   3.3309   6.8120   7.0151  16.1340  16.2358

          k = 1.0000 0.0750 0.0750 (   736 PWs)   bands (ev):

    -1.6873  -1.6133   2.9978   3.3532   6.8380   7.2700  15.8936  16.0894

          k = 1.0000 0.1000 0.1000 (   734 PWs)   bands (ev):

    -1.7056  -1.5716   2.8039   3.3844   6.8743   7.5934  15.6106  15.9045

          k = 1.0000 0.1250 0.1250 (   734 PWs)   bands (ev):

    -1.7323  -1.5179   2.5986   3.4242   6.9208   7.9683  15.3046  15.6923

          k = 1.0000 0.1500 0.1500 (   736 PWs)   bands (ev):

    -1.7698  -1.4523   2.3960   3.4727   6.9773   8.3822  14.9869  15.4619

          k = 1.0000 0.1750 0.1750 (   734 PWs)   bands (ev):

    -1.8205  -1.3748   2.2072   3.5296   7.0438   8.8263  14.6648  15.2200

          k = 1.0000 0.2000 0.2000 (   736 PWs)   bands (ev):

    -1.8869  -1.2856   2.0402   3.5947   7.1199   9.2944  14.3424  14.8886

          k = 1.0000 0.2250 0.2250 (   730 PWs)   bands (ev):

    -1.9712  -1.1845   1.9011   3.6679   7.2055   9.7815  14.0228  14.5534

          k = 1.0000 0.2500 0.2500 (   724 PWs)   bands (ev):

    -2.0745  -1.0716   1.7938   3.7486   7.3002  10.2833  13.7079  14.2286

          k = 0.9667 0.2417 0.2417 (   730 PWs)   bands (ev):

    -2.0791  -1.0729   1.8405   3.7249   7.2737  10.1205  13.7309  14.1050

          k = 0.9333 0.2333 0.2333 (   731 PWs)   bands (ev):

    -2.1679  -0.9947   1.9167   3.7103   7.2601   9.9708  13.6419  13.8898

          k = 0.9000 0.2250 0.2250 (   729 PWs)   bands (ev):

    -2.3178  -0.8557   2.0179   3.7049   7.2592   9.8353  13.5067  13.6682

          k = 0.8667 0.2167 0.2167 (   731 PWs)   bands (ev):

    -2.5024  -0.6789   2.1402   3.7089   7.2707   9.7148  13.3553  13.4460

          k = 0.8333 0.2083 0.2083 (   733 PWs)   bands (ev):

    -2.7046  -0.4781   2.2800   3.7223   7.2939   9.6106  13.1988  13.2244

          k = 0.8000 0.2000 0.2000 (   737 PWs)   bands (ev):

    -2.9148  -0.2608   2.4347   3.7452   7.3281   9.5238  13.0040  13.0416

          k = 0.7667 0.1917 0.1917 (   735 PWs)   bands (ev):

    -3.1275  -0.0307   2.6017   3.7776   7.3719   9.4561  12.7850  12.8852

          k = 0.7333 0.1833 0.1833 (   731 PWs)   bands (ev):

    -3.3391   0.2101   2.7789   3.8196   7.4240   9.4092  12.5677  12.7298

          k = 0.7000 0.1750 0.1750 (   735 PWs)   bands (ev):

    -3.5473   0.4603   2.9644   3.8711   7.4824   9.3851  12.3521  12.5747

          k = 0.6667 0.1667 0.1667 (   738 PWs)   bands (ev):

    -3.7505   0.7190   3.1566   3.9320   7.5450   9.3859  12.1386  12.4188

          k = 0.6333 0.1583 0.1583 (   733 PWs)   bands (ev):

    -3.9473   0.9859   3.3538   4.0023   7.6096   9.4137  11.9274  12.2608

          k = 0.6000 0.1500 0.1500 (   735 PWs)   bands (ev):

    -4.1369   1.2603   3.5545   4.0819   7.6743   9.4696  11.7190  12.0987

          k = 0.5667 0.1417 0.1417 (   737 PWs)   bands (ev):

    -4.3185   1.5420   3.7573   4.1707   7.7378   9.5538  11.5144  11.9307

          k = 0.5333 0.1333 0.1333 (   731 PWs)   bands (ev):

    -4.4916   1.8307   3.9610   4.2684   7.7995   9.6648  11.3150  11.7550

          k = 0.5000 0.1250 0.1250 (   733 PWs)   bands (ev):

    -4.6557   2.1259   4.1642   4.3747   7.8597   9.7980  11.1237  11.5699

          k = 0.4667 0.1167 0.1167 (   732 PWs)   bands (ev):

    -4.8105   2.4274   4.3658   4.4895   7.9192   9.9440  10.9471  11.3744

          k = 0.4333 0.1083 0.1083 (   736 PWs)   bands (ev):

    -4.9556   2.7346   4.5645   4.6123   7.9794  10.0801  10.8030  11.1680

          k = 0.4000 0.1000 0.1000 (   732 PWs)   bands (ev):

    -5.0907   3.0470   4.7427   4.7593   8.0415  10.1526  10.7378  10.9514

          k = 0.3667 0.0917 0.0917 (   735 PWs)   bands (ev):

    -5.2157   3.3639   4.8799   4.9488   8.1064  10.1072  10.7259  10.7942

          k = 0.3333 0.0833 0.0833 (   733 PWs)   bands (ev):

    -5.3304   3.6843   5.0232   5.1319   8.1748   9.9833  10.4937  10.9121

          k = 0.3000 0.0750 0.0750 (   731 PWs)   bands (ev):

    -5.4345   4.0069   5.1715   5.3073   8.2467   9.8328  10.2577  11.0043

          k = 0.2667 0.0667 0.0667 (   730 PWs)   bands (ev):

    -5.5279   4.3300   5.3233   5.4734   8.3216   9.6761  10.0214  11.0040

          k = 0.2333 0.0583 0.0583 (   732 PWs)   bands (ev):

    -5.6107   4.6513   5.4768   5.6286   8.3981   9.5211   9.7886  10.8839

          k = 0.2000 0.0500 0.0500 (   731 PWs)   bands (ev):

    -5.6825   4.9671   5.6293   5.7710   8.4746   9.3711   9.5638  10.6744

          k = 0.1667 0.0417 0.0417 (   731 PWs)   bands (ev):

    -5.7435   5.2725   5.7772   5.8984   8.5482   9.2280   9.3522  10.4252

          k = 0.1333 0.0333 0.0333 (   731 PWs)   bands (ev):

    -5.7934   5.5598   5.9153   6.0083   8.6158   9.0932   9.1601  10.1752

          k = 0.1000 0.0250 0.0250 (   731 PWs)   bands (ev):

    -5.8323   5.8173   6.0372   6.0981   8.6737   8.9689   8.9953   9.9525

          k = 0.0667 0.0167 0.0167 (   727 PWs)   bands (ev):

    -5.8601   6.0280   6.1344   6.1648   8.7182   8.8615   8.8668   9.7789

          k = 0.0333 0.0083 0.0083 (   725 PWs)   bands (ev):

    -5.8768   6.1695   6.1978   6.2060   8.7463   8.7844   8.7845   9.6696

          k = 0.0000 0.0000 0.0000 (   725 PWs)   bands (ev):

    -5.8824   6.2200   6.2200   6.2200   8.7559   8.7559   8.7559   9.6325

     Writing all to output data dir ./Si.save/
 
     init_run     :      1.04s CPU      1.10s WALL (       1 calls)
     electrons    :     23.69s CPU     25.43s WALL (       1 calls)

     Called by init_run:
     wfcinit      :      0.00s CPU      0.00s WALL (       1 calls)
     wfcinit:atom :      0.03s CPU      0.03s WALL (      91 calls)
     wfcinit:wfcr :      0.86s CPU      0.88s WALL (      91 calls)
     potinit      :      0.02s CPU      0.03s WALL (       1 calls)
     hinit0       :      0.83s CPU      0.85s WALL (       1 calls)

     Called by electrons:
     c_bands      :     23.69s CPU     25.42s WALL (       1 calls)
     v_of_rho     :      0.02s CPU      0.02s WALL (       1 calls)
     v_h          :      0.00s CPU      0.00s WALL (       1 calls)
     v_xc         :      0.02s CPU      0.02s WALL (       1 calls)
     newd         :      0.12s CPU      0.13s WALL (       1 calls)

     Called by c_bands:
     init_us_2    :      0.06s CPU      0.08s WALL (      91 calls)
     init_us_2:cp :      0.06s CPU      0.08s WALL (      91 calls)
     cegterg      :     22.40s CPU     23.20s WALL (     183 calls)

     Called by sum_band:

     Called by *egterg:
     cdiaghg      :      1.61s CPU      1.70s WALL (    2726 calls)
     cegterg:over :      0.72s CPU      0.79s WALL (    2635 calls)
     cegterg:upda :      0.32s CPU      0.34s WALL (    2635 calls)
     cegterg:last :      0.73s CPU      0.77s WALL (    2128 calls)
     h_psi        :     18.63s CPU     19.20s WALL (    2909 calls)
     s_psi        :      0.57s CPU      0.61s WALL (    2909 calls)
     g_psi        :      0.10s CPU      0.11s WALL (    2635 calls)

     Called by h_psi:
     h_psi:calbec :      0.66s CPU      0.69s WALL (    2909 calls)
     vloc_psi     :     17.18s CPU     17.67s WALL (    2909 calls)
     add_vuspsi   :      0.60s CPU      0.65s WALL (    2909 calls)

     General routines
     calbec       :      0.58s CPU      0.64s WALL (    2909 calls)
     fft          :      0.01s CPU      0.01s WALL (       6 calls)
     ffts         :      0.00s CPU      0.00s WALL (       1 calls)
     fftw         :     13.85s CPU     14.31s WALL (   35740 calls)
     interpolate  :      0.00s CPU      0.00s WALL (       1 calls)
     davcio       :      0.04s CPU      0.77s WALL (     182 calls)
 
     Parallel routines
 
     PWSCF        :     25.96s CPU     30.28s WALL

 
   This run was terminated on:  12:28:57   8Mar2022            

=------------------------------------------------------------------------------=
   JOB DONE.
=------------------------------------------------------------------------------=
