
     Program BANDS v.7.0 starts on  8Mar2022 at 12:28:59 

     This program is part of the open-source Quantum ESPRESSO suite
     for quantum simulation of materials; please cite
         "P. Giannozzi et al., J. Phys.:Condens. Matter 21 395502 (2009);
         "P. Giannozzi et al., J. Phys.:Condens. Matter 29 465901 (2017);
         "P. Giannozzi et al., J. Chem. Phys. 152 154105 (2020);
          URL http://www.quantum-espresso.org", 
     in publications or presentations arising from this work. More details at
     http://www.quantum-espresso.org/quote

     Parallel version (MPI), running on     1 processors

     MPI processes distributed on     1 nodes
     91398 MiB available memory on the printing compute node when the environment starts
 

     Reading xml data from directory:

     ./Si.save/

     IMPORTANT: XC functional enforced from input :
     Exchange-correlation= PZ
                           (   1   1   0   0   0   0   0)
     Any further DFT definition will be discarded
     Please, verify this is what you really want

 
     G-vector sticks info
     --------------------
     sticks:   dense  smooth     PW     G-vecs:    dense   smooth      PW
     Sum        1069     433    127                23289     5961     965
 
     Using Slab Decomposition
 
     Reading collected, re-writing distributed wavefunctions
     high-symmetry point:  0.5000 0.5000 0.5000   x coordinate   0.0000
     high-symmetry point:  0.0000 0.0000 0.0000   x coordinate   0.8660
     high-symmetry point:  1.0000 0.0000 0.0000   x coordinate   1.8660
     high-symmetry point:  1.0000 0.2500 0.2500   x coordinate   2.2196
     high-symmetry point:  0.0000 0.0000 0.0000   x coordinate   3.2802

     Plottable bands (eV) written to file Si.bandsplot.gnu
     Bands written to file Si.bandsplot

 **************************************************************************

                    xk=(   0.50000,   0.50000,   0.50000  )

     zone border point and non-symmorphic group 
     symmetry decomposition not available

 **************************************************************************

 **************************************************************************

                    xk=(   0.47500,   0.47500,   0.47500  )

     point group C_3v (3m)  
     there are  3 classes
     the character table:

       E     2C3   3s_v 
A_1    1.00  1.00  1.00
A_2    1.00  1.00 -1.00
E      2.00 -1.00  0.00

     the symmetry operations in each class and the name of the first element:

     E        1
                                                                 
     2C3      2    3
                                                                 
     3s_v     4    5    6
                                                                 

     Band symmetry, C_3v (3m)   point group:

     e(  1 -  1) =     -3.53166  eV     1   --> A_1  L_1       
     e(  2 -  2) =     -0.81634  eV     1   --> A_1  L_1       
     e(  3 -  4) =      5.01021  eV     2   --> E    L_3       
     e(  5 -  5) =      7.71904  eV     1   --> A_1  L_1       
     e(  6 -  7) =      9.51723  eV     2   --> E    L_3       
     e(  8 -  8) =     13.77608  eV     1   --> A_1  L_1       

 **************************************************************************

 **************************************************************************

                    xk=(   0.45000,   0.45000,   0.45000  )

     Band symmetry, C_3v (3m)   point group:

     e(  1 -  1) =     -3.63450  eV     1   --> A_1  L_1       
     e(  2 -  2) =     -0.66655  eV     1   --> A_1  L_1       
     e(  3 -  4) =      5.02371  eV     2   --> E    L_3       
     e(  5 -  5) =      7.73464  eV     1   --> A_1  L_1       
     e(  6 -  7) =      9.53345  eV     2   --> E    L_3       
     e(  8 -  8) =     13.80143  eV     1   --> A_1  L_1       

 **************************************************************************

 **************************************************************************

                    xk=(   0.42500,   0.42500,   0.42500  )

     Band symmetry, C_3v (3m)   point group:

     e(  1 -  1) =     -3.78450  eV     1   --> A_1  L_1       
     e(  2 -  2) =     -0.43842  eV     1   --> A_1  L_1       
     e(  3 -  4) =      5.04618  eV     2   --> E    L_3       
     e(  5 -  5) =      7.76056  eV     1   --> A_1  L_1       
     e(  6 -  7) =      9.55923  eV     2   --> E    L_3       
     e(  8 -  8) =     13.84157  eV     1   --> A_1  L_1       

 **************************************************************************

 **************************************************************************

                    xk=(   0.40000,   0.40000,   0.40000  )

     Band symmetry, C_3v (3m)   point group:

     e(  1 -  1) =     -3.96265  eV     1   --> A_1  L_1       
     e(  2 -  2) =     -0.15115  eV     1   --> A_1  L_1       
     e(  3 -  4) =      5.07762  eV     2   --> E    L_3       
     e(  5 -  5) =      7.79671  eV     1   --> A_1  L_1       
     e(  6 -  7) =      9.59259  eV     2   --> E    L_3       
     e(  8 -  8) =     13.89232  eV     1   --> A_1  L_1       

 **************************************************************************

 **************************************************************************

                    xk=(   0.37500,   0.37500,   0.37500  )

     Band symmetry, C_3v (3m)   point group:

     e(  1 -  1) =     -4.15439  eV     1   --> A_1  L_1       
     e(  2 -  2) =      0.18043  eV     1   --> A_1  L_1       
     e(  3 -  4) =      5.11798  eV     2   --> E    L_3       
     e(  5 -  5) =      7.84293  eV     1   --> A_1  L_1       
     e(  6 -  7) =      9.63054  eV     2   --> E    L_3       
     e(  8 -  8) =     13.94490  eV     1   --> A_1  L_1       

 **************************************************************************

 **************************************************************************

                    xk=(   0.35000,   0.35000,   0.35000  )

     Band symmetry, C_3v (3m)   point group:

     e(  1 -  1) =     -4.34986  eV     1   --> A_1  L_1       
     e(  2 -  2) =      0.54605  eV     1   --> A_1  L_1       
     e(  3 -  4) =      5.16715  eV     2   --> E    L_3       
     e(  5 -  5) =      7.89897  eV     1   --> A_1  L_1       
     e(  6 -  7) =      9.66895  eV     2   --> E    L_3       
     e(  8 -  8) =     13.97973  eV     1   --> A_1  L_1       

 **************************************************************************

 **************************************************************************

                    xk=(   0.32500,   0.32500,   0.32500  )

     Band symmetry, C_3v (3m)   point group:

     e(  1 -  1) =     -4.54256  eV     1   --> A_1  L_1       
     e(  2 -  2) =      0.93875  eV     1   --> A_1  L_1       
     e(  3 -  4) =      5.22499  eV     2   --> E    L_3       
     e(  5 -  5) =      7.96449  eV     1   --> A_1  L_1       
     e(  6 -  7) =      9.70240  eV     2   --> E    L_3       
     e(  8 -  8) =     13.95362  eV     1   --> A_1  L_1       

 **************************************************************************

 **************************************************************************

                    xk=(   0.30000,   0.30000,   0.30000  )

     Band symmetry, C_3v (3m)   point group:

     e(  1 -  1) =     -4.72826  eV     1   --> A_1  L_1       
     e(  2 -  2) =      1.35361  eV     1   --> A_1  L_1       
     e(  3 -  4) =      5.29124  eV     2   --> E    L_3       
     e(  5 -  5) =      8.03897  eV     1   --> A_1  L_1       
     e(  6 -  7) =      9.72423  eV     2   --> E    L_3       
     e(  8 -  8) =     13.80208  eV     1   --> A_1  L_1       

 **************************************************************************

 **************************************************************************

                    xk=(   0.27500,   0.27500,   0.27500  )

     Band symmetry, C_3v (3m)   point group:

     e(  1 -  1) =     -4.90413  eV     1   --> A_1  L_1       
     e(  2 -  2) =      1.78695  eV     1   --> A_1  L_1       
     e(  3 -  4) =      5.36553  eV     2   --> E    L_3       
     e(  5 -  5) =      8.12170  eV     1   --> A_1  L_1       
     e(  6 -  7) =      9.72707  eV     2   --> E    L_3       
     e(  8 -  8) =     13.51180  eV     1   --> A_1  L_1       

 **************************************************************************

 **************************************************************************

                    xk=(   0.25000,   0.25000,   0.25000  )

     Band symmetry, C_3v (3m)   point group:

     e(  1 -  1) =     -5.06819  eV     1   --> A_1  L_1       
     e(  2 -  2) =      2.23571  eV     1   --> A_1  L_1       
     e(  3 -  4) =      5.44729  eV     2   --> E    L_3       
     e(  5 -  5) =      8.21168  eV     1   --> A_1  L_1       
     e(  6 -  7) =      9.70400  eV     2   --> E    L_3       
     e(  8 -  8) =     13.13691  eV     1   --> A_1  L_1       

 **************************************************************************

 **************************************************************************

                    xk=(   0.22500,   0.22500,   0.22500  )

     Band symmetry, C_3v (3m)   point group:

     e(  1 -  1) =     -5.21907  eV     1   --> A_1  L_1       
     e(  2 -  2) =      2.69706  eV     1   --> A_1  L_1       
     e(  3 -  4) =      5.53569  eV     2   --> E    L_3       
     e(  5 -  5) =      8.30751  eV     1   --> A_1  L_1       
     e(  6 -  7) =      9.65045  eV     2   --> E    L_3       
     e(  8 -  8) =     12.72211  eV     1   --> A_1  L_1       

 **************************************************************************

 **************************************************************************

                    xk=(   0.20000,   0.20000,   0.20000  )

     Band symmetry, C_3v (3m)   point group:

     e(  1 -  1) =     -5.35580  eV     1   --> A_1  L_1       
     e(  2 -  2) =      3.16804  eV     1   --> A_1  L_1       
     e(  3 -  4) =      5.62957  eV     2   --> E    L_3       
     e(  5 -  5) =      8.40723  eV     1   --> A_1  L_1       
     e(  6 -  7) =      9.56599  eV     2   --> E    L_3       
     e(  8 -  8) =     12.28836  eV     1   --> A_1  L_1       

 **************************************************************************

 **************************************************************************

                    xk=(   0.17500,   0.17500,   0.17500  )

     Band symmetry, C_3v (3m)   point group:

     e(  1 -  1) =     -5.47766  eV     1   --> A_1  L_1       
     e(  2 -  2) =      3.64521  eV     1   --> A_1  L_1       
     e(  3 -  4) =      5.72729  eV     2   --> E    L_3       
     e(  5 -  5) =      8.50812  eV     1   --> A_1  L_1       
     e(  6 -  7) =      9.45496  eV     2   --> E    L_3       
     e(  8 -  8) =     11.84578  eV     1   --> A_1  L_1       

 **************************************************************************

 **************************************************************************

                    xk=(   0.15000,   0.15000,   0.15000  )

     Band symmetry, C_3v (3m)   point group:

     e(  1 -  1) =     -5.58410  eV     1   --> A_1  L_1       
     e(  2 -  2) =      4.12405  eV     1   --> A_1  L_1       
     e(  3 -  4) =      5.82660  eV     2   --> E    L_3       
     e(  5 -  5) =      8.60633  eV     1   --> A_1  L_1       
     e(  6 -  7) =      9.32557  eV     2   --> E    L_3       
     e(  8 -  8) =     11.40138  eV     1   --> A_1  L_1       

 **************************************************************************

 **************************************************************************

                    xk=(   0.12500,   0.12500,   0.12500  )

     Band symmetry, C_3v (3m)   point group:

     e(  1 -  1) =     -5.67471  eV     1   --> A_1  L_1       
     e(  2 -  2) =      4.59822  eV     1   --> A_1  L_1       
     e(  3 -  4) =      5.92442  eV     2   --> E    L_3       
     e(  5 -  5) =      8.69630  eV     1   --> A_1  L_1       
     e(  6 -  7) =      9.18823  eV     2   --> E    L_3       
     e(  8 -  8) =     10.96332  eV     1   --> A_1  L_1       

 **************************************************************************

 **************************************************************************

                    xk=(   0.10000,   0.10000,   0.10000  )

     Band symmetry, C_3v (3m)   point group:

     e(  1 -  1) =     -5.74921  eV     1   --> A_1  L_1       
     e(  2 -  2) =      5.05788  eV     1   --> A_1  L_1       
     e(  3 -  4) =      6.01670  eV     2   --> E    L_3       
     e(  5 -  5) =      8.76983  eV     1   --> A_1  L_1       
     e(  6 -  7) =      9.05404  eV     2   --> E    L_3       
     e(  8 -  8) =     10.54469  eV     1   --> A_1  L_1       

 **************************************************************************

 **************************************************************************

                    xk=(   0.07500,   0.07500,   0.07500  )

     Band symmetry, C_3v (3m)   point group:

     e(  1 -  1) =     -5.80736  eV     1   --> A_1  L_1       
     e(  2 -  2) =      5.48677  eV     1   --> A_1  L_1       
     e(  3 -  4) =      6.09829  eV     2   --> E    L_3       
     e(  5 -  5) =      8.81483  eV     1   --> A_1  L_1       
     e(  6 -  7) =      8.93407  eV     2   --> E    L_3       
     e(  8 -  8) =     10.16832  eV     1   --> A_1  L_1       

 **************************************************************************

 **************************************************************************

                    xk=(   0.05000,   0.05000,   0.05000  )

     Band symmetry, C_3v (3m)   point group:

     e(  1 -  1) =     -5.84900  eV     1   --> A_1  L_1       
     e(  2 -  2) =      5.85680  eV     1   --> A_1  L_1       
     e(  3 -  4) =      6.16319  eV     2   --> E    L_3       
     e(  5 -  5) =      8.81733  eV     1   --> A_1  L_1       
     e(  6 -  7) =      8.83876  eV     2   --> E    L_3       
     e(  8 -  8) =      9.87071  eV     1   --> A_1  L_1       

 **************************************************************************

 **************************************************************************

                    xk=(   0.02500,   0.02500,   0.02500  )

     Band symmetry, C_3v (3m)   point group:

     e(  1 -  1) =     -5.87403  eV     1   --> A_1  L_1       
     e(  2 -  2) =      6.12121  eV     1   --> A_1  L_1       
     e(  3 -  4) =      6.20532  eV     2   --> E    L_3       
     e(  5 -  6) =      8.77721  eV     2   --> E    L_3       
     e(  7 -  7) =      8.78116  eV     1   --> A_1  L_1       
     e(  8 -  8) =      9.68980  eV     1   --> A_1  L_1       

 **************************************************************************

 **************************************************************************

                    xk=(   0.00000,   0.00000,   0.00000  )

     point group O_h (m-3m) 
     there are 10 classes
     the character table:

       E     8C3   3C2   6C4   6C2'  i     8S6   3s_h  6S4   6s_d 
A_1g   1.00  1.00  1.00  1.00  1.00  1.00  1.00  1.00  1.00  1.00
A_2g   1.00  1.00  1.00 -1.00 -1.00  1.00  1.00  1.00 -1.00 -1.00
E_g    2.00 -1.00  2.00  0.00  0.00  2.00 -1.00  2.00  0.00  0.00
T_1g   3.00  0.00 -1.00  1.00 -1.00  3.00  0.00 -1.00  1.00 -1.00
T_2g   3.00  0.00 -1.00 -1.00  1.00  3.00  0.00 -1.00 -1.00  1.00
A_1u   1.00  1.00  1.00  1.00  1.00 -1.00 -1.00 -1.00 -1.00 -1.00
A_2u   1.00  1.00  1.00 -1.00 -1.00 -1.00 -1.00 -1.00  1.00  1.00
E_u    2.00 -1.00  2.00  0.00  0.00 -2.00  1.00 -2.00  0.00  0.00
T_1u   3.00  0.00 -1.00  1.00 -1.00 -3.00  0.00  1.00 -1.00  1.00
T_2u   3.00  0.00 -1.00 -1.00  1.00 -3.00  0.00  1.00  1.00 -1.00

     the symmetry operations in each class and the name of the first element:

     E        1
                                                                 
     8C3     17   19   20   18   24   21   22   23
                                                                 
     3C2      2    4    3
                                                                 
     6C4      7    8   15   16   12   11
                                                                 
     6C2'     5    6   14   13   10    9
                                                                 
     i       25
                                                                 
     8S6     41   43   44   42   48   45   46   47
                                                                 
     3s_h    26   28   27
                                                                 
     6S4     31   32   39   40   36   35
                                                                 
     6s_d    29   30   38   37   34   33
                                                                 

     Band symmetry, O_h (m-3m)  point group:

     e(  1 -  1) =     -5.88238  eV     1   --> A_1g G_1   G_1+
     e(  2 -  4) =      6.21997  eV     3   --> T_2g G_25' G_5+
     e(  5 -  7) =      8.75590  eV     3   --> T_1u G_15  G_4-
     e(  8 -  8) =      9.63251  eV     1   --> A_2u G_2'  G_2-

 **************************************************************************

 **************************************************************************

                    xk=(   0.03333,   0.00000,   0.00000  )

     point group C_4v (4mm) 
     there are  5 classes
     the character table:

       E     2C4   C2    2s_v  2s_d 
A_1    1.00  1.00  1.00  1.00  1.00
A_2    1.00  1.00  1.00 -1.00 -1.00
B_1    1.00 -1.00  1.00  1.00 -1.00
B_2    1.00 -1.00  1.00 -1.00  1.00
E      2.00  0.00 -2.00  0.00  0.00

     the symmetry operations in each class and the name of the first element:

     E        1
                                                                 
     2C4      3    4
                                                                 
     C2       2
                                                                 
     2s_v     5    6
                                                                 
     2s_d     7    8
                                                                 

     Band symmetry, C_4v (4mm)  point group:

     e(  1 -  1) =     -5.87743  eV     1   --> A_1  G_1 D_1   
     e(  2 -  2) =      6.18659  eV     1   --> B_2  G_4 D_2'  
     e(  3 -  4) =      6.19807  eV     2   --> E    G_5 D_5   
     e(  5 -  5) =      8.74287  eV     1   --> A_1  G_1 D_1   
     e(  6 -  7) =      8.78381  eV     2   --> E    G_5 D_5   
     e(  8 -  8) =      9.66521  eV     1   --> B_2  G_4 D_2'  

 **************************************************************************

 **************************************************************************

                    xk=(   0.06667,   0.00000,   0.00000  )

     Band symmetry, C_4v (4mm)  point group:

     e(  1 -  1) =     -5.86259  eV     1   --> A_1  G_1 D_1   
     e(  2 -  2) =      6.09028  eV     1   --> B_2  G_4 D_2'  
     e(  3 -  4) =      6.13517  eV     2   --> E    G_5 D_5   
     e(  5 -  5) =      8.70453  eV     1   --> A_1  G_1 D_1   
     e(  6 -  7) =      8.86468  eV     2   --> E    G_5 D_5   
     e(  8 -  8) =      9.75884  eV     1   --> B_2  G_4 D_2'  

 **************************************************************************

 **************************************************************************

                    xk=(   0.10000,   0.00000,   0.00000  )

     Band symmetry, C_4v (4mm)  point group:

     e(  1 -  1) =     -5.83786  eV     1   --> A_1  G_1 D_1   
     e(  2 -  2) =      5.94066  eV     1   --> B_2  G_4 D_2'  
     e(  3 -  4) =      6.03840  eV     2   --> E    G_5 D_5   
     e(  5 -  5) =      8.64299  eV     1   --> A_1  G_1 D_1   
     e(  6 -  7) =      8.99137  eV     2   --> E    G_5 D_5   
     e(  8 -  8) =      9.90161  eV     1   --> B_2  G_4 D_2'  

 **************************************************************************

 **************************************************************************

                    xk=(   0.13333,   0.00000,   0.00000  )

     Band symmetry, C_4v (4mm)  point group:

     e(  1 -  1) =     -5.80326  eV     1   --> A_1  G_1 D_1   
     e(  2 -  2) =      5.74936  eV     1   --> B_2  G_4 D_2'  
     e(  3 -  4) =      5.91640  eV     2   --> E    G_5 D_5   
     e(  5 -  5) =      8.56135  eV     1   --> A_1  G_1 D_1   
     e(  6 -  7) =      9.15516  eV     2   --> E    G_5 D_5   
     e(  8 -  8) =     10.07761  eV     1   --> B_2  G_4 D_2'  

 **************************************************************************

 **************************************************************************

                    xk=(   0.16667,   0.00000,   0.00000  )

     Band symmetry, C_4v (4mm)  point group:

     e(  1 -  1) =     -5.75881  eV     1   --> A_1  G_1 D_1   
     e(  2 -  2) =      5.52702  eV     1   --> B_2  G_4 D_2'  
     e(  3 -  4) =      5.77715  eV     2   --> E    G_5 D_5   
     e(  5 -  5) =      8.46324  eV     1   --> A_1  G_1 D_1   
     e(  6 -  7) =      9.34797  eV     2   --> E    G_5 D_5   
     e(  8 -  8) =     10.26826  eV     1   --> B_2  G_4 D_2'  

 **************************************************************************

 **************************************************************************

                    xk=(   0.20000,   0.00000,   0.00000  )

     Band symmetry, C_4v (4mm)  point group:

     e(  1 -  1) =     -5.70454  eV     1   --> A_1  G_1 D_1   
     e(  2 -  2) =      5.28212  eV     1   --> B_2  G_4 D_2'  
     e(  3 -  4) =      5.62708  eV     2   --> E    G_5 D_5   
     e(  5 -  5) =      8.35242  eV     1   --> A_1  G_1 D_1   
     e(  6 -  7) =      9.56326  eV     2   --> E    G_5 D_5   
     e(  8 -  8) =     10.45091  eV     1   --> B_2  G_4 D_2'  

 **************************************************************************

 **************************************************************************

                    xk=(   0.23333,   0.00000,   0.00000  )

     Band symmetry, C_4v (4mm)  point group:

     e(  1 -  1) =     -5.64048  eV     1   --> A_1  G_1 D_1   
     e(  2 -  2) =      5.02094  eV     1   --> B_2  G_4 D_2'  
     e(  3 -  4) =      5.47105  eV     2   --> E    G_5 D_5   
     e(  5 -  5) =      8.23244  eV     1   --> A_1  G_1 D_1   
     e(  6 -  7) =      9.79603  eV     2   --> E    G_5 D_5   
     e(  8 -  8) =     10.59521  eV     1   --> B_2  G_4 D_2'  

 **************************************************************************

 **************************************************************************

                    xk=(   0.26667,   0.00000,   0.00000  )

     Band symmetry, C_4v (4mm)  point group:

     e(  1 -  1) =     -5.56666  eV     1   --> A_1  G_1 D_1   
     e(  2 -  2) =      4.74800  eV     1   --> B_2  G_4 D_2'  
     e(  3 -  4) =      5.31263  eV     2   --> E    G_5 D_5   
     e(  5 -  5) =      8.10653  eV     1   --> A_1  G_1 D_1   
     e(  6 -  7) =     10.04258  eV     2   --> E    G_5 D_5   
     e(  8 -  8) =     10.66340  eV     1   --> B_2  G_4 D_2'  

 **************************************************************************

 **************************************************************************

                    xk=(   0.30000,   0.00000,   0.00000  )

     Band symmetry, C_4v (4mm)  point group:

     e(  1 -  1) =     -5.48314  eV     1   --> A_1  G_1 D_1   
     e(  2 -  2) =      4.46648  eV     1   --> B_2  G_4 D_2'  
     e(  3 -  4) =      5.15442  eV     2   --> E    G_5 D_5   
     e(  5 -  5) =      7.97749  eV     1   --> A_1  G_1 D_1   
     e(  6 -  7) =     10.30015  eV     2   --> E    G_5 D_5   
     e(  8 -  8) =     10.62709  eV     1   --> B_2  G_4 D_2'  

 **************************************************************************

 **************************************************************************

                    xk=(   0.33333,   0.00000,   0.00000  )

     Band symmetry, C_4v (4mm)  point group:

     e(  1 -  1) =     -5.38998  eV     1   --> A_1  G_1 D_1   
     e(  2 -  2) =      4.17866  eV     1   --> B_2  G_4 D_2'  
     e(  3 -  4) =      4.99833  eV     2   --> E    G_5 D_5   
     e(  5 -  5) =      7.84771  eV     1   --> A_1  G_1 D_1   
     e(  6 -  6) =     10.49139  eV     1   --> B_2  G_4 D_2'  
     e(  7 -  8) =     10.56667  eV     2   --> E    G_5 D_5   

 **************************************************************************

 **************************************************************************

                    xk=(   0.36667,   0.00000,   0.00000  )

     Band symmetry, C_4v (4mm)  point group:

     e(  1 -  1) =     -5.28723  eV     1   --> A_1  G_1 D_1   
     e(  2 -  2) =      3.88621  eV     1   --> B_2  G_4 D_2'  
     e(  3 -  4) =      4.84582  eV     2   --> E    G_5 D_5   
     e(  5 -  5) =      7.71920  eV     1   --> A_1  G_1 D_1   
     e(  6 -  6) =     10.28713  eV     1   --> B_2  G_4 D_2'  
     e(  7 -  8) =     10.84056  eV     2   --> E    G_5 D_5   

 **************************************************************************

 **************************************************************************

                    xk=(   0.40000,   0.00000,   0.00000  )

     Band symmetry, C_4v (4mm)  point group:

     e(  1 -  1) =     -5.17495  eV     1   --> A_1  G_1 D_1   
     e(  2 -  2) =      3.59030  eV     1   --> B_2  G_4 D_2'  
     e(  3 -  4) =      4.69795  eV     2   --> E    G_5 D_5   
     e(  5 -  5) =      7.59365  eV     1   --> A_1  G_1 D_1   
     e(  6 -  6) =     10.04486  eV     1   --> B_2  G_4 D_2'  
     e(  7 -  8) =     11.12061  eV     2   --> E    G_5 D_5   

 **************************************************************************

 **************************************************************************

                    xk=(   0.43333,   0.00000,   0.00000  )

     Band symmetry, C_4v (4mm)  point group:

     e(  1 -  1) =     -5.05323  eV     1   --> A_1  G_1 D_1   
     e(  2 -  2) =      3.29184  eV     1   --> B_2  G_4 D_2'  
     e(  3 -  4) =      4.55556  eV     2   --> E    G_5 D_5   
     e(  5 -  5) =      7.47247  eV     1   --> A_1  G_1 D_1   
     e(  6 -  6) =      9.78505  eV     1   --> B_2  G_4 D_2'  
     e(  7 -  8) =     11.40587  eV     2   --> E    G_5 D_5   

 **************************************************************************

 **************************************************************************

                    xk=(   0.46667,   0.00000,   0.00000  )

     Band symmetry, C_4v (4mm)  point group:

     e(  1 -  1) =     -4.92216  eV     1   --> A_1  G_1 D_1   
     e(  2 -  2) =      2.99156  eV     1   --> B_2  G_4 D_2'  
     e(  3 -  4) =      4.41931  eV     2   --> E    G_5 D_5   
     e(  5 -  5) =      7.35683  eV     1   --> A_1  G_1 D_1   
     e(  6 -  6) =      9.51998  eV     1   --> B_2  G_4 D_2'  
     e(  7 -  8) =     11.69559  eV     2   --> E    G_5 D_5   

 **************************************************************************

 **************************************************************************

                    xk=(   0.50000,   0.00000,   0.00000  )

     Band symmetry, C_4v (4mm)  point group:

     e(  1 -  1) =     -4.78184  eV     1   --> A_1  G_1 D_1   
     e(  2 -  2) =      2.69003  eV     1   --> B_2  G_4 D_2'  
     e(  3 -  4) =      4.28972  eV     2   --> E    G_5 D_5   
     e(  5 -  5) =      7.24774  eV     1   --> A_1  G_1 D_1   
     e(  6 -  6) =      9.25700  eV     1   --> B_2  G_4 D_2'  
     e(  7 -  8) =     11.98918  eV     2   --> E    G_5 D_5   

 **************************************************************************

 **************************************************************************

                    xk=(   0.53333,   0.00000,   0.00000  )

     Band symmetry, C_4v (4mm)  point group:

     e(  1 -  1) =     -4.63235  eV     1   --> A_1  G_1 D_1   
     e(  2 -  2) =      2.38776  eV     1   --> B_2  G_4 D_2'  
     e(  3 -  4) =      4.16722  eV     2   --> E    G_5 D_5   
     e(  5 -  5) =      7.14604  eV     1   --> A_1  G_1 D_1   
     e(  6 -  6) =      9.00066  eV     1   --> B_2  G_4 D_2'  
     e(  7 -  8) =     12.28619  eV     2   --> E    G_5 D_5   

 **************************************************************************

 **************************************************************************

                    xk=(   0.56667,   0.00000,   0.00000  )

     Band symmetry, C_4v (4mm)  point group:

     e(  1 -  1) =     -4.47382  eV     1   --> A_1  G_1 D_1   
     e(  2 -  2) =      2.08523  eV     1   --> B_2  G_4 D_2'  
     e(  3 -  4) =      4.05213  eV     2   --> E    G_5 D_5   
     e(  5 -  5) =      7.05247  eV     1   --> A_1  G_1 D_1   
     e(  6 -  6) =      8.75386  eV     1   --> B_2  G_4 D_2'  
     e(  7 -  8) =     12.58628  eV     2   --> E    G_5 D_5   

 **************************************************************************

 **************************************************************************

                    xk=(   0.60000,   0.00000,   0.00000  )

     Band symmetry, C_4v (4mm)  point group:

     e(  1 -  1) =     -4.30639  eV     1   --> A_1  G_1 D_1   
     e(  2 -  2) =      1.78288  eV     1   --> B_2  G_4 D_2'  
     e(  3 -  4) =      3.94475  eV     2   --> E    G_5 D_5   
     e(  5 -  5) =      6.96764  eV     1   --> A_1  G_1 D_1   
     e(  6 -  6) =      8.51854  eV     1   --> B_2  G_4 D_2'  
     e(  7 -  8) =     12.88917  eV     2   --> E    G_5 D_5   

 **************************************************************************

 **************************************************************************

                    xk=(   0.63333,   0.00000,   0.00000  )

     Band symmetry, C_4v (4mm)  point group:

     e(  1 -  1) =     -4.13018  eV     1   --> A_1  G_1 D_1   
     e(  2 -  2) =      1.48116  eV     1   --> B_2  G_4 D_2'  
     e(  3 -  4) =      3.84529  eV     2   --> E    G_5 D_5   
     e(  5 -  5) =      6.89212  eV     1   --> A_1  G_1 D_1   
     e(  6 -  6) =      8.29598  eV     1   --> B_2  G_4 D_2'  
     e(  7 -  8) =     13.19466  eV     2   --> E    G_5 D_5   

 **************************************************************************

 **************************************************************************

                    xk=(   0.66667,   0.00000,   0.00000  )

     Band symmetry, C_4v (4mm)  point group:

     e(  1 -  1) =     -3.94535  eV     1   --> A_1  G_1 D_1   
     e(  2 -  2) =      1.18052  eV     1   --> B_2  G_4 D_2'  
     e(  3 -  4) =      3.75397  eV     2   --> E    G_5 D_5   
     e(  5 -  5) =      6.82639  eV     1   --> A_1  G_1 D_1   
     e(  6 -  6) =      8.08701  eV     1   --> B_2  G_4 D_2'  
     e(  7 -  8) =     13.50259  eV     2   --> E    G_5 D_5   

 **************************************************************************

 **************************************************************************

                    xk=(   0.70000,   0.00000,   0.00000  )

     Band symmetry, C_4v (4mm)  point group:

     e(  1 -  1) =     -3.75207  eV     1   --> A_1  G_1 D_1   
     e(  2 -  2) =      0.88136  eV     1   --> B_2  G_4 D_2'  
     e(  3 -  4) =      3.67094  eV     2   --> E    G_5 D_5   
     e(  5 -  5) =      6.77090  eV     1   --> A_1  G_1 D_1   
     e(  6 -  6) =      7.89220  eV     1   --> B_2  G_4 D_2'  
     e(  7 -  8) =     13.81280  eV     2   --> E    G_5 D_5   

 **************************************************************************

 **************************************************************************

                    xk=(   0.73333,   0.00000,   0.00000  )

     Band symmetry, C_4v (4mm)  point group:

     e(  1 -  1) =     -3.55050  eV     1   --> A_1  G_1 D_1   
     e(  2 -  2) =      0.58422  eV     1   --> B_2  G_4 D_2'  
     e(  3 -  4) =      3.59633  eV     2   --> E    G_5 D_5   
     e(  5 -  5) =      6.72606  eV     1   --> A_1  G_1 D_1   
     e(  6 -  6) =      7.71185  eV     1   --> B_2  G_4 D_2'  
     e(  7 -  8) =     14.12511  eV     2   --> E    G_5 D_5   

 **************************************************************************

 **************************************************************************

                    xk=(   0.76667,   0.00000,   0.00000  )

     Band symmetry, C_4v (4mm)  point group:

     e(  1 -  1) =     -3.34085  eV     1   --> A_1  G_1 D_1   
     e(  2 -  2) =      0.28952  eV     1   --> B_2  G_4 D_2'  
     e(  3 -  4) =      3.53027  eV     2   --> E    G_5 D_5   
     e(  5 -  5) =      6.69223  eV     1   --> A_1  G_1 D_1   
     e(  6 -  6) =      7.54615  eV     1   --> B_2  G_4 D_2'  
     e(  7 -  8) =     14.43928  eV     2   --> E    G_5 D_5   

 **************************************************************************

 **************************************************************************

                    xk=(   0.80000,   0.00000,   0.00000  )

     Band symmetry, C_4v (4mm)  point group:

     e(  1 -  1) =     -3.12333  eV     1   --> A_1  G_1 D_1   
     e(  2 -  2) =     -0.00228  eV     1   --> B_2  G_4 D_2'  
     e(  3 -  4) =      3.47282  eV     2   --> E    G_5 D_5   
     e(  5 -  5) =      6.66976  eV     1   --> A_1  G_1 D_1   
     e(  6 -  6) =      7.39514  eV     1   --> B_2  G_4 D_2'  
     e(  7 -  8) =     14.75485  eV     2   --> E    G_5 D_5   

 **************************************************************************

 **************************************************************************

                    xk=(   0.83333,   0.00000,   0.00000  )

     Band symmetry, C_4v (4mm)  point group:

     e(  1 -  1) =     -2.89817  eV     1   --> A_1  G_1 D_1   
     e(  2 -  2) =     -0.29071  eV     1   --> B_2  G_4 D_2'  
     e(  3 -  4) =      3.42410  eV     2   --> E    G_5 D_5   
     e(  5 -  5) =      6.65898  eV     1   --> A_1  G_1 D_1   
     e(  6 -  6) =      7.25877  eV     1   --> B_2  G_4 D_2'  
     e(  7 -  8) =     15.07100  eV     2   --> E    G_5 D_5   

 **************************************************************************

 **************************************************************************

                    xk=(   0.86667,   0.00000,   0.00000  )

     Band symmetry, C_4v (4mm)  point group:

     e(  1 -  1) =     -2.66561  eV     1   --> A_1  G_1 D_1   
     e(  2 -  2) =     -0.57533  eV     1   --> B_2  G_4 D_2'  
     e(  3 -  4) =      3.38416  eV     2   --> E    G_5 D_5   
     e(  5 -  5) =      6.66021  eV     1   --> A_1  G_1 D_1   
     e(  6 -  6) =      7.13693  eV     1   --> B_2  G_4 D_2'  
     e(  7 -  8) =     15.38610  eV     2   --> E    G_5 D_5   

 **************************************************************************

 **************************************************************************

                    xk=(   0.90000,   0.00000,   0.00000  )

     Band symmetry, C_4v (4mm)  point group:

     e(  1 -  1) =     -2.42592  eV     1   --> A_1  G_1 D_1   
     e(  2 -  2) =     -0.85570  eV     1   --> B_2  G_4 D_2'  
     e(  3 -  4) =      3.35304  eV     2   --> E    G_5 D_5   
     e(  5 -  5) =      6.67376  eV     1   --> A_1  G_1 D_1   
     e(  6 -  6) =      7.02947  eV     1   --> B_2  G_4 D_2'  
     e(  7 -  8) =     15.69651  eV     2   --> E    G_5 D_5   

 **************************************************************************

 **************************************************************************

                    xk=(   0.93333,   0.00000,   0.00000  )

     Band symmetry, C_4v (4mm)  point group:

     e(  1 -  1) =     -2.17940  eV     1   --> A_1  G_1 D_1   
     e(  2 -  2) =     -1.13138  eV     1   --> B_2  G_4 D_2'  
     e(  3 -  4) =      3.33079  eV     2   --> E    G_5 D_5   
     e(  5 -  5) =      6.69991  eV     1   --> A_1  G_1 D_1   
     e(  6 -  6) =      6.93617  eV     1   --> B_2  G_4 D_2'  
     e(  7 -  8) =     15.99295  eV     2   --> E    G_5 D_5   

 **************************************************************************

 **************************************************************************

                    xk=(   0.96667,   0.00000,   0.00000  )

     Band symmetry, C_4v (4mm)  point group:

     e(  1 -  1) =     -1.92635  eV     1   --> A_1  G_1 D_1   
     e(  2 -  2) =     -1.40198  eV     1   --> B_2  G_4 D_2'  
     e(  3 -  4) =      3.31743  eV     2   --> E    G_5 D_5   
     e(  5 -  5) =      6.73895  eV     1   --> A_1  G_1 D_1   
     e(  6 -  6) =      6.85682  eV     1   --> B_2  G_4 D_2'  
     e(  7 -  8) =     16.24645  eV     2   --> E    G_5 D_5   

 **************************************************************************

 **************************************************************************

                    xk=(   1.00000,   0.00000,   0.00000  )

     zone border point and non-symmorphic group 
     symmetry decomposition not available

 **************************************************************************

 **************************************************************************

                    xk=(   1.00000,   0.02500,   0.02500  )

     zone border point and non-symmorphic group 
     symmetry decomposition not available

 **************************************************************************

 **************************************************************************

                    xk=(   1.00000,   0.05000,   0.05000  )

     zone border point and non-symmorphic group 
     symmetry decomposition not available

 **************************************************************************

 **************************************************************************

                    xk=(   1.00000,   0.07500,   0.07500  )

     zone border point and non-symmorphic group 
     symmetry decomposition not available

 **************************************************************************

 **************************************************************************

                    xk=(   1.00000,   0.10000,   0.10000  )

     zone border point and non-symmorphic group 
     symmetry decomposition not available

 **************************************************************************

 **************************************************************************

                    xk=(   1.00000,   0.12500,   0.12500  )

     zone border point and non-symmorphic group 
     symmetry decomposition not available

 **************************************************************************

 **************************************************************************

                    xk=(   1.00000,   0.15000,   0.15000  )

     zone border point and non-symmorphic group 
     symmetry decomposition not available

 **************************************************************************

 **************************************************************************

                    xk=(   1.00000,   0.17500,   0.17500  )

     zone border point and non-symmorphic group 
     symmetry decomposition not available

 **************************************************************************

 **************************************************************************

                    xk=(   1.00000,   0.20000,   0.20000  )

     zone border point and non-symmorphic group 
     symmetry decomposition not available

 **************************************************************************

 **************************************************************************

                    xk=(   1.00000,   0.22500,   0.22500  )

     zone border point and non-symmorphic group 
     symmetry decomposition not available

 **************************************************************************

 **************************************************************************

                    xk=(   1.00000,   0.25000,   0.25000  )

     zone border point and non-symmorphic group 
     symmetry decomposition not available

 **************************************************************************

 **************************************************************************

                    xk=(   0.96667,   0.24167,   0.24167  )

     point group C_s (m)    
     there are  2 classes
     the character table:

       E     s    
A'     1.00  1.00
A''    1.00 -1.00

     the symmetry operations in each class and the name of the first element:

     E        1
                                                                 
     s        2
                                                                 

     Band symmetry, C_s (m)     point group:

     e(  1 -  1) =     -2.07911  eV     1   --> A'             
     e(  2 -  2) =     -1.07288  eV     1   --> A'             
     e(  3 -  3) =      1.84045  eV     1   --> A'             
     e(  4 -  4) =      3.72494  eV     1   --> A''            
     e(  5 -  5) =      7.27365  eV     1   --> A'             
     e(  6 -  6) =     10.12045  eV     1   --> A'             
     e(  7 -  7) =     13.73091  eV     1   --> A''            
     e(  8 -  8) =     14.10496  eV     1   --> A'             

 **************************************************************************

 **************************************************************************

                    xk=(   0.93333,   0.23333,   0.23333  )

     Band symmetry, C_s (m)     point group:

     e(  1 -  1) =     -2.16788  eV     1   --> A'             
     e(  2 -  2) =     -0.99473  eV     1   --> A'             
     e(  3 -  3) =      1.91671  eV     1   --> A'             
     e(  4 -  4) =      3.71032  eV     1   --> A''            
     e(  5 -  5) =      7.26005  eV     1   --> A'             
     e(  6 -  6) =      9.97080  eV     1   --> A'             
     e(  7 -  7) =     13.64186  eV     1   --> A''            
     e(  8 -  8) =     13.88976  eV     1   --> A'             

 **************************************************************************

 **************************************************************************

                    xk=(   0.90000,   0.22500,   0.22500  )

     Band symmetry, C_s (m)     point group:

     e(  1 -  1) =     -2.31785  eV     1   --> A'             
     e(  2 -  2) =     -0.85573  eV     1   --> A'             
     e(  3 -  3) =      2.01794  eV     1   --> A'             
     e(  4 -  4) =      3.70494  eV     1   --> A''            
     e(  5 -  5) =      7.25919  eV     1   --> A'             
     e(  6 -  6) =      9.83528  eV     1   --> A'             
     e(  7 -  7) =     13.50669  eV     1   --> A''            
     e(  8 -  8) =     13.66821  eV     1   --> A'             

 **************************************************************************

 **************************************************************************

                    xk=(   0.86667,   0.21667,   0.21667  )

     Band symmetry, C_s (m)     point group:

     e(  1 -  1) =     -2.50239  eV     1   --> A'             
     e(  2 -  2) =     -0.67886  eV     1   --> A'             
     e(  3 -  3) =      2.14018  eV     1   --> A'             
     e(  4 -  4) =      3.70890  eV     1   --> A''            
     e(  5 -  5) =      7.27069  eV     1   --> A'             
     e(  6 -  6) =      9.71484  eV     1   --> A'             
     e(  7 -  7) =     13.35527  eV     1   --> A''            
     e(  8 -  8) =     13.44596  eV     1   --> A'             

 **************************************************************************

 **************************************************************************

                    xk=(   0.83333,   0.20833,   0.20833  )

     Band symmetry, C_s (m)     point group:

     e(  1 -  1) =     -2.70457  eV     1   --> A'             
     e(  2 -  2) =     -0.47811  eV     1   --> A'             
     e(  3 -  3) =      2.28003  eV     1   --> A'             
     e(  4 -  4) =      3.72231  eV     1   --> A''            
     e(  5 -  5) =      7.29394  eV     1   --> A'             
     e(  6 -  6) =      9.61059  eV     1   --> A'             
     e(  7 -  7) =     13.19881  eV     1   --> A''            
     e(  8 -  8) =     13.22437  eV     1   --> A'             

 **************************************************************************

 **************************************************************************

                    xk=(   0.80000,   0.20000,   0.20000  )

     Band symmetry, C_s (m)     point group:

     e(  1 -  1) =     -2.91482  eV     1   --> A'             
     e(  2 -  2) =     -0.26078  eV     1   --> A'             
     e(  3 -  3) =      2.43467  eV     1   --> A'             
     e(  4 -  4) =      3.74520  eV     1   --> A''            
     e(  5 -  5) =      7.32809  eV     1   --> A'             
     e(  6 -  6) =      9.52382  eV     1   --> A'             
     e(  7 -  7) =     13.00396  eV     1   --> A'             
     e(  8 -  8) =     13.04162  eV     1   --> A''            

 **************************************************************************

 **************************************************************************

                    xk=(   0.76667,   0.19167,   0.19167  )

     Band symmetry, C_s (m)     point group:

     e(  1 -  1) =     -3.12751  eV     1   --> A'             
     e(  2 -  2) =     -0.03066  eV     1   --> A'             
     e(  3 -  3) =      2.60166  eV     1   --> A'             
     e(  4 -  4) =      3.77763  eV     1   --> A''            
     e(  5 -  5) =      7.37194  eV     1   --> A'             
     e(  6 -  6) =      9.45608  eV     1   --> A'             
     e(  7 -  7) =     12.78501  eV     1   --> A'             
     e(  8 -  8) =     12.88521  eV     1   --> A''            

 **************************************************************************

 **************************************************************************

                    xk=(   0.73333,   0.18333,   0.18333  )

     Band symmetry, C_s (m)     point group:

     e(  1 -  1) =     -3.33914  eV     1   --> A'             
     e(  2 -  2) =      0.21011  eV     1   --> A'             
     e(  3 -  3) =      2.77888  eV     1   --> A'             
     e(  4 -  4) =      3.81960  eV     1   --> A''            
     e(  5 -  5) =      7.42399  eV     1   --> A'             
     e(  6 -  6) =      9.40915  eV     1   --> A'             
     e(  7 -  7) =     12.56767  eV     1   --> A'             
     e(  8 -  8) =     12.72976  eV     1   --> A''            

 **************************************************************************

 **************************************************************************

                    xk=(   0.70000,   0.17500,   0.17500  )

     Band symmetry, C_s (m)     point group:

     e(  1 -  1) =     -3.54735  eV     1   --> A'             
     e(  2 -  2) =      0.46027  eV     1   --> A'             
     e(  3 -  3) =      2.96443  eV     1   --> A'             
     e(  4 -  4) =      3.87107  eV     1   --> A''            
     e(  5 -  5) =      7.48237  eV     1   --> A'             
     e(  6 -  6) =      9.38507  eV     1   --> A'             
     e(  7 -  7) =     12.35211  eV     1   --> A'             
     e(  8 -  8) =     12.57467  eV     1   --> A''            

 **************************************************************************

 **************************************************************************

                    xk=(   0.66667,   0.16667,   0.16667  )

     Band symmetry, C_s (m)     point group:

     e(  1 -  1) =     -3.75047  eV     1   --> A'             
     e(  2 -  2) =      0.71904  eV     1   --> A'             
     e(  3 -  3) =      3.15659  eV     1   --> A'             
     e(  4 -  4) =      3.93200  eV     1   --> A''            
     e(  5 -  5) =      7.54497  eV     1   --> A'             
     e(  6 -  6) =      9.38593  eV     1   --> A'             
     e(  7 -  7) =     12.13856  eV     1   --> A'             
     e(  8 -  8) =     12.41883  eV     1   --> A''            

 **************************************************************************

 **************************************************************************

                    xk=(   0.63333,   0.15833,   0.15833  )

     Band symmetry, C_s (m)     point group:

     e(  1 -  1) =     -3.94729  eV     1   --> A'             
     e(  2 -  2) =      0.98585  eV     1   --> A'             
     e(  3 -  3) =      3.35378  eV     1   --> A'             
     e(  4 -  4) =      4.00233  eV     1   --> A''            
     e(  5 -  5) =      7.60960  eV     1   --> A'             
     e(  6 -  6) =      9.41366  eV     1   --> A'             
     e(  7 -  7) =     11.92735  eV     1   --> A'             
     e(  8 -  8) =     12.26076  eV     1   --> A''            

 **************************************************************************

 **************************************************************************

                    xk=(   0.60000,   0.15000,   0.15000  )

     Band symmetry, C_s (m)     point group:

     e(  1 -  1) =     -4.13687  eV     1   --> A'             
     e(  2 -  2) =      1.26029  eV     1   --> A'             
     e(  3 -  3) =      3.55449  eV     1   --> A'             
     e(  4 -  4) =      4.08193  eV     1   --> A''            
     e(  5 -  5) =      7.67434  eV     1   --> A'             
     e(  6 -  6) =      9.46957  eV     1   --> A'             
     e(  7 -  7) =     11.71900  eV     1   --> A'             
     e(  8 -  8) =     12.09870  eV     1   --> A''            

 **************************************************************************

 **************************************************************************

                    xk=(   0.56667,   0.14167,   0.14167  )

     Band symmetry, C_s (m)     point group:

     e(  1 -  1) =     -4.31851  eV     1   --> A'             
     e(  2 -  2) =      1.54200  eV     1   --> A'             
     e(  3 -  3) =      3.75734  eV     1   --> A'             
     e(  4 -  4) =      4.17067  eV     1   --> A''            
     e(  5 -  5) =      7.73782  eV     1   --> A'             
     e(  6 -  6) =      9.55384  eV     1   --> A'             
     e(  7 -  7) =     11.51437  eV     1   --> A'             
     e(  8 -  8) =     11.93074  eV     1   --> A''            

 **************************************************************************

 **************************************************************************

                    xk=(   0.53333,   0.13333,   0.13333  )

     Band symmetry, C_s (m)     point group:

     e(  1 -  1) =     -4.49162  eV     1   --> A'             
     e(  2 -  2) =      1.83066  eV     1   --> A'             
     e(  3 -  3) =      3.96100  eV     1   --> A'             
     e(  4 -  4) =      4.26835  eV     1   --> A''            
     e(  5 -  5) =      7.79950  eV     1   --> A'             
     e(  6 -  6) =      9.66480  eV     1   --> A'             
     e(  7 -  7) =     11.31497  eV     1   --> A'             
     e(  8 -  8) =     11.75503  eV     1   --> A''            

 **************************************************************************

 **************************************************************************

                    xk=(   0.50000,   0.12500,   0.12500  )

     Band symmetry, C_s (m)     point group:

     e(  1 -  1) =     -4.65575  eV     1   --> A'             
     e(  2 -  2) =      2.12592  eV     1   --> A'             
     e(  3 -  3) =      4.16422  eV     1   --> A'             
     e(  4 -  4) =      4.37474  eV     1   --> A''            
     e(  5 -  5) =      7.85967  eV     1   --> A'             
     e(  6 -  6) =      9.79804  eV     1   --> A'             
     e(  7 -  7) =     11.12369  eV     1   --> A'             
     e(  8 -  8) =     11.56995  eV     1   --> A''            

 **************************************************************************

 **************************************************************************

                    xk=(   0.46667,   0.11667,   0.11667  )

     Band symmetry, C_s (m)     point group:

     e(  1 -  1) =     -4.81051  eV     1   --> A'             
     e(  2 -  2) =      2.42740  eV     1   --> A'             
     e(  3 -  3) =      4.36578  eV     1   --> A'             
     e(  4 -  4) =      4.48953  eV     1   --> A''            
     e(  5 -  5) =      7.91924  eV     1   --> A'             
     e(  6 -  6) =      9.94397  eV     1   --> A'             
     e(  7 -  7) =     10.94712  eV     1   --> A'             
     e(  8 -  8) =     11.37441  eV     1   --> A''            

 **************************************************************************

 **************************************************************************

                    xk=(   0.43333,   0.10833,   0.10833  )

     Band symmetry, C_s (m)     point group:

     e(  1 -  1) =     -4.95560  eV     1   --> A'             
     e(  2 -  2) =      2.73462  eV     1   --> A'             
     e(  3 -  3) =      4.56451  eV     1   --> A'             
     e(  4 -  4) =      4.61233  eV     1   --> A''            
     e(  5 -  5) =      7.97944  eV     1   --> A'             
     e(  6 -  6) =     10.08010  eV     1   --> A'             
     e(  7 -  7) =     10.80299  eV     1   --> A'             
     e(  8 -  8) =     11.16805  eV     1   --> A''            

 **************************************************************************

 **************************************************************************

                    xk=(   0.40000,   0.10000,   0.10000  )

     Band symmetry, C_s (m)     point group:

     e(  1 -  1) =     -5.09075  eV     1   --> A'             
     e(  2 -  2) =      3.04704  eV     1   --> A'             
     e(  3 -  3) =      4.74266  eV     1   --> A''            
     e(  4 -  4) =      4.75926  eV     1   --> A'             
     e(  5 -  5) =      8.04151  eV     1   --> A'             
     e(  6 -  6) =     10.15265  eV     1   --> A'             
     e(  7 -  7) =     10.73780  eV     1   --> A'             
     e(  8 -  8) =     10.95140  eV     1   --> A''            

 **************************************************************************

 **************************************************************************

                    xk=(   0.36667,   0.09167,   0.09167  )

     Band symmetry, C_s (m)     point group:

     e(  1 -  1) =     -5.21573  eV     1   --> A'             
     e(  2 -  2) =      3.36391  eV     1   --> A'             
     e(  3 -  3) =      4.87988  eV     1   --> A''            
     e(  4 -  4) =      4.94881  eV     1   --> A'             
     e(  5 -  5) =      8.10645  eV     1   --> A'             
     e(  6 -  6) =     10.10717  eV     1   --> A'             
     e(  7 -  7) =     10.72586  eV     1   --> A''            
     e(  8 -  8) =     10.79420  eV     1   --> A'             

 **************************************************************************

 **************************************************************************

                    xk=(   0.33333,   0.08333,   0.08333  )

     Band symmetry, C_s (m)     point group:

     e(  1 -  1) =     -5.33036  eV     1   --> A'             
     e(  2 -  2) =      3.68429  eV     1   --> A'             
     e(  3 -  3) =      5.02318  eV     1   --> A''            
     e(  4 -  4) =      5.13193  eV     1   --> A'             
     e(  5 -  5) =      8.17483  eV     1   --> A'             
     e(  6 -  6) =      9.98328  eV     1   --> A'             
     e(  7 -  7) =     10.49368  eV     1   --> A''            
     e(  8 -  8) =     10.91207  eV     1   --> A'             

 **************************************************************************

 **************************************************************************

                    xk=(   0.30000,   0.07500,   0.07500  )

     Band symmetry, C_s (m)     point group:

     e(  1 -  1) =     -5.43447  eV     1   --> A'             
     e(  2 -  2) =      4.00690  eV     1   --> A'             
     e(  3 -  3) =      5.17148  eV     1   --> A''            
     e(  4 -  4) =      5.30729  eV     1   --> A'             
     e(  5 -  5) =      8.24671  eV     1   --> A'             
     e(  6 -  6) =      9.83275  eV     1   --> A'             
     e(  7 -  7) =     10.25773  eV     1   --> A''            
     e(  8 -  8) =     11.00428  eV     1   --> A'             

 **************************************************************************

 **************************************************************************

                    xk=(   0.26667,   0.06667,   0.06667  )

     Band symmetry, C_s (m)     point group:

     e(  1 -  1) =     -5.52795  eV     1   --> A'             
     e(  2 -  2) =      4.33004  eV     1   --> A'             
     e(  3 -  3) =      5.32334  eV     1   --> A''            
     e(  4 -  4) =      5.47340  eV     1   --> A'             
     e(  5 -  5) =      8.32156  eV     1   --> A'             
     e(  6 -  6) =      9.67612  eV     1   --> A'             
     e(  7 -  7) =     10.02140  eV     1   --> A''            
     e(  8 -  8) =     11.00405  eV     1   --> A'             

 **************************************************************************

 **************************************************************************

                    xk=(   0.23333,   0.05833,   0.05833  )

     Band symmetry, C_s (m)     point group:

     e(  1 -  1) =     -5.61067  eV     1   --> A'             
     e(  2 -  2) =      4.65126  eV     1   --> A'             
     e(  3 -  3) =      5.47684  eV     1   --> A''            
     e(  4 -  4) =      5.62861  eV     1   --> A'             
     e(  5 -  5) =      8.39815  eV     1   --> A'             
     e(  6 -  6) =      9.52107  eV     1   --> A'             
     e(  7 -  7) =      9.78861  eV     1   --> A''            
     e(  8 -  8) =     10.88389  eV     1   --> A'             

 **************************************************************************

 **************************************************************************

                    xk=(   0.20000,   0.05000,   0.05000  )

     Band symmetry, C_s (m)     point group:

     e(  1 -  1) =     -5.68254  eV     1   --> A'             
     e(  2 -  2) =      4.96712  eV     1   --> A'             
     e(  3 -  3) =      5.62932  eV     1   --> A''            
     e(  4 -  4) =      5.77101  eV     1   --> A'             
     e(  5 -  5) =      8.47457  eV     1   --> A'             
     e(  6 -  6) =      9.37106  eV     1   --> A'             
     e(  7 -  7) =      9.56380  eV     1   --> A''            
     e(  8 -  8) =     10.67436  eV     1   --> A'             

 **************************************************************************

 **************************************************************************

                    xk=(   0.16667,   0.04167,   0.04167  )

     Band symmetry, C_s (m)     point group:

     e(  1 -  1) =     -5.74347  eV     1   --> A'             
     e(  2 -  2) =      5.27251  eV     1   --> A'             
     e(  3 -  3) =      5.77715  eV     1   --> A''            
     e(  4 -  4) =      5.89842  eV     1   --> A'             
     e(  5 -  5) =      8.54819  eV     1   --> A'             
     e(  6 -  6) =      9.22797  eV     1   --> A'             
     e(  7 -  7) =      9.35220  eV     1   --> A''            
     e(  8 -  8) =     10.42521  eV     1   --> A'             

 **************************************************************************

 **************************************************************************

                    xk=(   0.13333,   0.03333,   0.03333  )

     Band symmetry, C_s (m)     point group:

     e(  1 -  1) =     -5.79341  eV     1   --> A'             
     e(  2 -  2) =      5.55976  eV     1   --> A'             
     e(  3 -  3) =      5.91533  eV     1   --> A''            
     e(  4 -  4) =      6.00835  eV     1   --> A'             
     e(  5 -  5) =      8.61577  eV     1   --> A'             
     e(  6 -  6) =      9.09315  eV     1   --> A'             
     e(  7 -  7) =      9.16012  eV     1   --> A''            
     e(  8 -  8) =     10.17524  eV     1   --> A'             

 **************************************************************************

 **************************************************************************

                    xk=(   0.10000,   0.02500,   0.02500  )

     Band symmetry, C_s (m)     point group:

     e(  1 -  1) =     -5.83231  eV     1   --> A'             
     e(  2 -  2) =      5.81726  eV     1   --> A'             
     e(  3 -  3) =      6.03718  eV     1   --> A''            
     e(  4 -  4) =      6.09806  eV     1   --> A'             
     e(  5 -  5) =      8.67366  eV     1   --> A'             
     e(  6 -  6) =      8.96889  eV     1   --> A'             
     e(  7 -  7) =      8.99528  eV     1   --> A''            
     e(  8 -  8) =      9.95254  eV     1   --> A'             

 **************************************************************************

 **************************************************************************

                    xk=(   0.06667,   0.01667,   0.01667  )

     Band symmetry, C_s (m)     point group:

     e(  1 -  1) =     -5.86011  eV     1   --> A'             
     e(  2 -  2) =      6.02796  eV     1   --> A'             
     e(  3 -  3) =      6.13438  eV     1   --> A''            
     e(  4 -  4) =      6.16479  eV     1   --> A'             
     e(  5 -  5) =      8.71821  eV     1   --> A'             
     e(  6 -  6) =      8.86146  eV     1   --> A'             
     e(  7 -  7) =      8.86683  eV     1   --> A''            
     e(  8 -  8) =      9.77888  eV     1   --> A'             

 **************************************************************************

 **************************************************************************

                    xk=(   0.03333,   0.00833,   0.00833  )

     Band symmetry, C_s (m)     point group:

     e(  1 -  1) =     -5.87681  eV     1   --> A'             
     e(  2 -  2) =      6.16953  eV     1   --> A'             
     e(  3 -  3) =      6.19782  eV     1   --> A''            
     e(  4 -  4) =      6.20602  eV     1   --> A'             
     e(  5 -  5) =      8.74631  eV     1   --> A'             
     e(  6 -  6) =      8.78441  eV     1   --> A''            
     e(  7 -  7) =      8.78452  eV     1   --> A'             
     e(  8 -  8) =      9.66960  eV     1   --> A'             

 **************************************************************************

 **************************************************************************

                    xk=(   0.00000,   0.00000,   0.00000  )

     point group O_h (m-3m) 
     there are 10 classes
     the character table:

       E     8C3   3C2   6C4   6C2'  i     8S6   3s_h  6S4   6s_d 
A_1g   1.00  1.00  1.00  1.00  1.00  1.00  1.00  1.00  1.00  1.00
A_2g   1.00  1.00  1.00 -1.00 -1.00  1.00  1.00  1.00 -1.00 -1.00
E_g    2.00 -1.00  2.00  0.00  0.00  2.00 -1.00  2.00  0.00  0.00
T_1g   3.00  0.00 -1.00  1.00 -1.00  3.00  0.00 -1.00  1.00 -1.00
T_2g   3.00  0.00 -1.00 -1.00  1.00  3.00  0.00 -1.00 -1.00  1.00
A_1u   1.00  1.00  1.00  1.00  1.00 -1.00 -1.00 -1.00 -1.00 -1.00
A_2u   1.00  1.00  1.00 -1.00 -1.00 -1.00 -1.00 -1.00  1.00  1.00
E_u    2.00 -1.00  2.00  0.00  0.00 -2.00  1.00 -2.00  0.00  0.00
T_1u   3.00  0.00 -1.00  1.00 -1.00 -3.00  0.00  1.00 -1.00  1.00
T_2u   3.00  0.00 -1.00 -1.00  1.00 -3.00  0.00  1.00  1.00 -1.00

     the symmetry operations in each class and the name of the first element:

     E        1
                                                                 
     8C3     17   19   20   18   24   21   22   23
                                                                 
     3C2      2    4    3
                                                                 
     6C4      7    8   15   16   12   11
                                                                 
     6C2'     5    6   14   13   10    9
                                                                 
     i       25
                                                                 
     8S6     41   43   44   42   48   45   46   47
                                                                 
     3s_h    26   28   27
                                                                 
     6S4     31   32   39   40   36   35
                                                                 
     6s_d    29   30   38   37   34   33
                                                                 

     Band symmetry, O_h (m-3m)  point group:

     e(  1 -  1) =     -5.88238  eV     1   --> A_1g G_1   G_1+
     e(  2 -  4) =      6.21997  eV     3   --> T_2g G_25' G_5+
     e(  5 -  7) =      8.75590  eV     3   --> T_1u G_15  G_4-
     e(  8 -  8) =      9.63251  eV     1   --> A_2u G_2'  G_2-

 **************************************************************************
 
     BANDS        :     21.36s CPU     23.33s WALL

 
   This run was terminated on:  12:29:23   8Mar2022            

=------------------------------------------------------------------------------=
   JOB DONE.
=------------------------------------------------------------------------------=
