
     Program PWSCF v.6.4.1 starts on 24Apr2022 at 14:49:21 

     This program is part of the open-source Quantum ESPRESSO suite
     for quantum simulation of materials; please cite
         "P. Giannozzi et al., J. Phys.:Condens. Matter 21 395502 (2009);
         "P. Giannozzi et al., J. Phys.:Condens. Matter 29 465901 (2017);
          URL http://www.quantum-espresso.org", 
     in publications or presentations arising from this work. More details at
     http://www.quantum-espresso.org/quote

     Parallel version (MPI & OpenMP), running on     120 processor cores
     Number of MPI processes:               120
     Threads/MPI process:                     1

     MPI processes distributed on     2 nodes
     R & G space division:  proc/nbgrp/npool/nimage =     120
     Waiting for input...
     Reading input from standard input

     Current dimensions of program PWSCF are:
     Max number of different atomic species (ntypx) = 10
     Max number of k-points (npk) =  40000
     Max angular momentum in pseudopotentials (lmaxx) =  3

     Subspace diagonalization in iterative solution of the eigenvalue problem:
     one sub-group per band group will be used
     scalapack distributed-memory algorithm (size of sub-group:  7*  7 procs)

 
     Parallelization info
     --------------------
     sticks:   dense  smooth     PW     G-vecs:    dense   smooth      PW
     Min          13      13      4                  322      322      52
     Max          14      14      5                  329      329      55
     Sum        1657    1657    493                39049    39049    6453
 


     bravais-lattice index     =            5
     lattice parameter (alat)  =      11.9984  a.u.
     unit-cell volume          =     818.4150 (a.u.)^3
     number of atoms/cell      =           10
     number of atomic types    =            3
     number of electrons       =        64.00
     number of Kohn-Sham states=           32
     kinetic-energy cutoff     =      50.0000  Ry
     charge density cutoff     =     200.0000  Ry
     convergence threshold     =      1.0E-08
     mixing beta               =       0.7000
     number of iterations used =            8  plain     mixing
     Exchange-correlation      = SLA  PW   PBE  PBE ( 1  4  3  4 0 0)
     nstep                     =           50


     celldm(1)=  11.998400  celldm(2)=   0.000000  celldm(3)=   0.000000
     celldm(4)=   0.693300  celldm(5)=   0.000000  celldm(6)=   0.000000

     crystal axes: (cart. coord. in units of alat)
               a(1) = (   0.391599  -0.226090   0.891927 )  
               a(2) = (   0.000000   0.452180   0.891927 )  
               a(3) = (  -0.391599  -0.226090   0.891927 )  

     reciprocal axes: (cart. coord. in units 2 pi/alat)
               b(1) = (  1.276815 -0.737170  0.373723 )  
               b(2) = ( -0.000000  1.474339  0.373723 )  
               b(3) = ( -1.276815 -0.737170  0.373723 )  


     PseudoPot. # 1 for Ca read from file:
     ./Ca_PBE.UPF
     MD5 check sum: 403a4c14b9e4d4dfdc3024c9a3812218
     Pseudo is Ultrasoft + core correction, Zval = 10.0
     Generated by new atomic code, or converted to UPF format
     Using radial grid of  845 points,  6 beta functions with: 
                l(1) =   0
                l(2) =   0
                l(3) =   1
                l(4) =   1
                l(5) =   2
                l(6) =   2
     Q(r) pseudized with  8 coefficients,  rinner =    1.500   1.500   1.500
                                                       1.500   1.500

     PseudoPot. # 2 for C  read from file:
     ./C_PBE.UPF
     MD5 check sum: d1aef80898a10debaa0f26306b886e00
     Pseudo is Ultrasoft + core correction, Zval =  4.0
     Generated by new atomic code, or converted to UPF format
     Using radial grid of  721 points,  4 beta functions with: 
                l(1) =   0
                l(2) =   0
                l(3) =   1
                l(4) =   1
     Q(r) pseudized with  8 coefficients,  rinner =    1.100   1.100   1.100


     PseudoPot. # 3 for O  read from file:
     ./O_PBE.UPF
     MD5 check sum: 734c27235a0248c51dbae37a1fbe46ec
     Pseudo is Ultrasoft + core correction, Zval =  6.0
     Generated by new atomic code, or converted to UPF format
     Using radial grid of  737 points,  5 beta functions with: 
                l(1) =   0
                l(2) =   0
                l(3) =   1
                l(4) =   1
                l(5) =   2
     Q(r) pseudized with  8 coefficients,  rinner =    0.900   0.900   0.900
                                                       0.900   0.900

     atomic species   valence    mass     pseudopotential
        Ca            10.00    40.07800     Ca( 1.00)
        C              4.00    12.01070     C ( 1.00)
        O              6.00    16.00000     O ( 1.00)

     12 Sym. Ops., with inversion, found ( 6 have fractional translation)



   Cartesian axes

     site n.     atom                  positions (alat units)
         1           Ca  tau(   1) = (   0.0000000  -0.0000000   1.3378901  )
         2           Ca  tau(   2) = (   0.0000000   0.0000000   0.0000000  )
         3           C   tau(   3) = (   0.0000000  -0.0000000   0.6689451  )
         4           C   tau(   4) = (   0.0000000  -0.0000000   2.0068352  )
         5           O   tau(   5) = (   0.1006418   0.2778633   1.5608718  )
         6           O   tau(   6) = (   0.1903158  -0.2260900   1.5608718  )
         7           O   tau(   7) = (  -0.2909575  -0.0517733   1.5608718  )
         8           O   tau(   8) = (  -0.1903158   0.2260900   1.1149084  )
         9           O   tau(   9) = (   0.2909575   0.0517733   1.1149084  )
        10           O   tau(  10) = (  -0.1006418  -0.2778633   1.1149084  )

     number of k points=    85
                       cart. coord. in units 2pi/alat
        k(    1) = (   0.0000000   0.0000000   0.0000000), wk =   0.0027435
        k(    2) = (  -0.1418684  -0.0819077   0.0415248), wk =   0.0164609
        k(    3) = (  -0.2837368  -0.1638155   0.0830495), wk =   0.0164609
        k(    4) = (  -0.4256051  -0.2457232   0.1245743), wk =   0.0164609
        k(    5) = (  -0.5674735  -0.3276310   0.1660990), wk =   0.0164609
        k(    6) = (  -0.1418684   0.0819077   0.0830495), wk =   0.0164609
        k(    7) = (  -0.2837368  -0.0000000   0.1245743), wk =   0.0329218
        k(    8) = (  -0.4256051  -0.0819077   0.1660990), wk =   0.0329218
        k(    9) = (  -0.5674735  -0.1638155   0.2076238), wk =   0.0329218
        k(   10) = (   0.5674735   0.4914465  -0.1245743), wk =   0.0329218
        k(   11) = (   0.4256051   0.4095387  -0.0830495), wk =   0.0329218
        k(   12) = (   0.2837368   0.3276310  -0.0415248), wk =   0.0329218
        k(   13) = (   0.1418684   0.2457232   0.0000000), wk =   0.0164609
        k(   14) = (  -0.2837368   0.1638155   0.1660990), wk =   0.0164609
        k(   15) = (  -0.4256051   0.0819077   0.2076238), wk =   0.0329218
        k(   16) = (  -0.5674735  -0.0000000   0.2491485), wk =   0.0329218
        k(   17) = (   0.5674735   0.6552620  -0.0830495), wk =   0.0329218
        k(   18) = (   0.4256051   0.5733542  -0.0415248), wk =   0.0329218
        k(   19) = (   0.2837368   0.4914465   0.0000000), wk =   0.0164609
        k(   20) = (  -0.4256051   0.2457232   0.2491485), wk =   0.0164609
        k(   21) = (  -0.5674735   0.1638155   0.2906733), wk =   0.0329218
        k(   22) = (   0.5674735   0.8190775  -0.0415248), wk =   0.0329218
        k(   23) = (   0.4256051   0.7371697   0.0000000), wk =   0.0164609
        k(   24) = (  -0.5674735   0.3276310   0.3321980), wk =   0.0164609
        k(   25) = (   0.5674735   0.9828930   0.0000000), wk =   0.0164609
        k(   26) = (   0.0000000  -0.0000000   0.1245743), wk =   0.0054870
        k(   27) = (  -0.1418684  -0.0819077   0.1660990), wk =   0.0164609
        k(   28) = (  -0.2837368  -0.1638155   0.2076238), wk =   0.0164609
        k(   29) = (  -0.4256051  -0.2457232   0.2491485), wk =   0.0164609
        k(   30) = (   0.7093419   0.4095387  -0.0830495), wk =   0.0164609
        k(   31) = (   0.5674735   0.3276310  -0.0415248), wk =   0.0164609
        k(   32) = (   0.4256051   0.2457232   0.0000000), wk =   0.0164609
        k(   33) = (   0.2837368   0.1638155   0.0415248), wk =   0.0164609
        k(   34) = (  -0.1418684   0.0819077   0.2076238), wk =   0.0164609
        k(   35) = (  -0.2837368  -0.0000000   0.2491485), wk =   0.0329218
        k(   36) = (  -0.4256051  -0.0819077   0.2906733), wk =   0.0329218
        k(   37) = (   0.7093419   0.5733542  -0.0415248), wk =   0.0329218
        k(   38) = (   0.5674735   0.4914465   0.0000000), wk =   0.0329218
        k(   39) = (   0.4256051   0.4095387   0.0415248), wk =   0.0329218
        k(   40) = (   0.2837368   0.3276310   0.0830495), wk =   0.0329218
        k(   41) = (  -0.2837368   0.1638155   0.2906733), wk =   0.0164609
        k(   42) = (  -0.4256051   0.0819077   0.3321980), wk =   0.0329218
        k(   43) = (   0.7093419   0.7371697   0.0000000), wk =   0.0329218
        k(   44) = (   0.5674735   0.6552620   0.0415248), wk =   0.0329218
        k(   45) = (   0.4256051   0.5733542   0.0830495), wk =   0.0329218
        k(   46) = (   0.2837368   0.4914465   0.1245743), wk =   0.0329218
        k(   47) = (  -0.4256051   0.2457232   0.3737228), wk =   0.0164609
        k(   48) = (   0.7093419   0.9009852   0.0415248), wk =   0.0329218
        k(   49) = (   0.5674735   0.8190775   0.0830495), wk =   0.0329218
        k(   50) = (   0.4256051   0.7371697   0.1245743), wk =   0.0329218
        k(   51) = (   0.2837368   0.6552620   0.1660990), wk =   0.0329218
        k(   52) = (   0.7093419  -0.4095387  -0.2906733), wk =   0.0164609
        k(   53) = (   0.5674735  -0.4914465  -0.2491485), wk =   0.0329218
        k(   54) = (   0.4256051  -0.5733542  -0.2076238), wk =   0.0329218
        k(   55) = (   0.5674735  -0.3276310  -0.2076238), wk =   0.0164609
        k(   56) = (   0.4256051  -0.4095387  -0.1660990), wk =   0.0329218
        k(   57) = (   0.4256051  -0.2457232  -0.1245743), wk =   0.0164609
        k(   58) = (   0.0000000  -0.0000000   0.2491485), wk =   0.0054870
        k(   59) = (  -0.1418684  -0.0819077   0.2906733), wk =   0.0164609
        k(   60) = (  -0.2837368  -0.1638155   0.3321980), wk =   0.0164609
        k(   61) = (   0.8512103   0.4914465   0.0000000), wk =   0.0164609
        k(   62) = (   0.7093419   0.4095387   0.0415248), wk =   0.0164609
        k(   63) = (   0.5674735   0.3276310   0.0830495), wk =   0.0164609
        k(   64) = (  -0.1418684   0.0819077   0.3321980), wk =   0.0164609
        k(   65) = (  -0.2837368  -0.0000000   0.3737228), wk =   0.0329218
        k(   66) = (   0.8512103   0.6552620   0.0415248), wk =   0.0329218
        k(   67) = (   0.7093419   0.5733542   0.0830495), wk =   0.0329218
        k(   68) = (   0.5674735   0.4914465   0.1245743), wk =   0.0329218
        k(   69) = (  -0.2837368   0.1638155   0.4152475), wk =   0.0164609
        k(   70) = (   0.8512103   0.8190775   0.0830495), wk =   0.0329218
        k(   71) = (   0.7093419   0.7371697   0.1245743), wk =   0.0329218
        k(   72) = (   0.5674735   0.6552620   0.1660990), wk =   0.0329218
        k(   73) = (   0.8512103  -0.4914465  -0.2491485), wk =   0.0164609
        k(   74) = (   0.7093419  -0.5733542  -0.2076238), wk =   0.0329218
        k(   75) = (   0.7093419  -0.4095387  -0.1660990), wk =   0.0164609
        k(   76) = (   0.0000000   0.0000000   0.3737228), wk =   0.0054870
        k(   77) = (  -0.1418684  -0.0819077   0.4152475), wk =   0.0164609
        k(   78) = (   0.9930786   0.5733542   0.0830495), wk =   0.0164609
        k(   79) = (   0.8512103   0.4914465   0.1245743), wk =   0.0164609
        k(   80) = (  -0.1418684   0.0819077   0.4567723), wk =   0.0164609
        k(   81) = (   0.9930786   0.7371697   0.1245743), wk =   0.0329218
        k(   82) = (   0.8512103   0.6552620   0.1660990), wk =   0.0329218
        k(   83) = (   0.9930786  -0.5733542  -0.2076238), wk =   0.0164609
        k(   84) = (   0.0000000  -0.0000000   0.4982970), wk =   0.0054870
        k(   85) = (   1.1349470   0.6552620   0.1660990), wk =   0.0164609

     Dense  grid:    39049 G-vectors     FFT dimensions: (  60,  60,  60)

     Estimated max dynamical RAM per process >      16.26 MB

     Estimated total dynamical RAM >       1.91 GB
     Message from routine sym_rho_init:
     some processors have no G-vectors for symmetrization
     Message from routine sym_rho_init:
     some processors have no G-vectors for symmetrization
     Message from routine sym_rho_init:
     some processors have no G-vectors for symmetrization
     Message from routine sym_rho_init:
     some processors have no G-vectors for symmetrization
     Message from routine sym_rho_init:
     some processors have no G-vectors for symmetrization
     Message from routine sym_rho_init:
     some processors have no G-vectors for symmetrization
     Message from routine sym_rho_init:
     some processors have no G-vectors for symmetrization
     Message from routine sym_rho_init:
     some processors have no G-vectors for symmetrization
     Message from routine sym_rho_init:
     some processors have no G-vectors for symmetrization

     Check: negative core charge=   -0.000003

     Initial potential from superposition of free atoms

     starting charge   63.98899, renormalised to   64.00000
     Starting wfcs are   52 randomized atomic wfcs

     total cpu time spent up to now is       16.9 secs

     Self-consistent Calculation

     iteration #  1     ecut=    50.00 Ry     beta= 0.70
     CG style diagonalization
     ethr =  1.00E-02,  avg # of iterations =  2.7

     total cpu time spent up to now is       38.1 secs

     total energy              =    -366.67289973 Ry
     Harris-Foulkes estimate   =    -367.89665530 Ry
     estimated scf accuracy    <       1.76088296 Ry

     iteration #  2     ecut=    50.00 Ry     beta= 0.70
     CG style diagonalization
     ethr =  2.75E-03,  avg # of iterations =  4.3

     total cpu time spent up to now is       70.8 secs

     total energy              =    -367.11233411 Ry
     Harris-Foulkes estimate   =    -367.87094359 Ry
     estimated scf accuracy    <       1.53587149 Ry

     iteration #  3     ecut=    50.00 Ry     beta= 0.70
     CG style diagonalization
     ethr =  2.40E-03,  avg # of iterations =  3.8

     total cpu time spent up to now is       99.9 secs

     total energy              =    -367.41032004 Ry
     Harris-Foulkes estimate   =    -367.41188295 Ry
     estimated scf accuracy    <       0.01037092 Ry

     iteration #  4     ecut=    50.00 Ry     beta= 0.70
     CG style diagonalization
     ethr =  1.62E-05,  avg # of iterations =  4.3

     total cpu time spent up to now is      133.3 secs

     total energy              =    -367.42162533 Ry
     Harris-Foulkes estimate   =    -367.42241707 Ry
     estimated scf accuracy    <       0.00220784 Ry

     iteration #  5     ecut=    50.00 Ry     beta= 0.70
     CG style diagonalization
     ethr =  3.45E-06,  avg # of iterations =  3.6

     total cpu time spent up to now is      161.3 secs

     total energy              =    -367.42202016 Ry
     Harris-Foulkes estimate   =    -367.42202520 Ry
     estimated scf accuracy    <       0.00010258 Ry

     iteration #  6     ecut=    50.00 Ry     beta= 0.70
     CG style diagonalization
     ethr =  1.60E-07,  avg # of iterations =  4.1

     total cpu time spent up to now is      192.9 secs

     total energy              =    -367.42204074 Ry
     Harris-Foulkes estimate   =    -367.42205622 Ry
     estimated scf accuracy    <       0.00003998 Ry

     iteration #  7     ecut=    50.00 Ry     beta= 0.70
     CG style diagonalization
     ethr =  6.25E-08,  avg # of iterations =  3.6

     total cpu time spent up to now is      220.8 secs

     total energy              =    -367.42204739 Ry
     Harris-Foulkes estimate   =    -367.42204758 Ry
     estimated scf accuracy    <       0.00000128 Ry

     iteration #  8     ecut=    50.00 Ry     beta= 0.70
     CG style diagonalization
     ethr =  2.00E-09,  avg # of iterations =  4.2

     total cpu time spent up to now is      252.8 secs

     total energy              =    -367.42204773 Ry
     Harris-Foulkes estimate   =    -367.42204800 Ry
     estimated scf accuracy    <       0.00000065 Ry

     iteration #  9     ecut=    50.00 Ry     beta= 0.70
     CG style diagonalization
     ethr =  1.02E-09,  avg # of iterations =  3.7

     total cpu time spent up to now is      281.7 secs

     total energy              =    -367.42204786 Ry
     Harris-Foulkes estimate   =    -367.42204787 Ry
     estimated scf accuracy    <       0.00000002 Ry

     iteration # 10     ecut=    50.00 Ry     beta= 0.70
     CG style diagonalization
     ethr =  2.60E-11,  avg # of iterations =  4.5

     total cpu time spent up to now is      316.4 secs

     End of self-consistent calculation

          k = 0.0000 0.0000 0.0000 (  4909 PWs)   bands (ev):

   -33.0650 -33.0489 -16.9864 -16.9784 -14.6758 -14.6758 -14.1578 -14.1578
   -14.0502 -13.9646 -13.6865 -13.6865 -12.9784 -12.9784  -2.9279  -2.6014
    -1.5373  -1.2645  -1.2645  -0.9532  -0.9532  -0.1773   2.6831   2.6831
     3.1372   3.1372   3.3631   3.3631   3.9684   3.9684   4.1864   4.6423

          k =-0.1419-0.0819 0.0415 (  4880 PWs)   bands (ev):

   -33.0644 -33.0493 -16.9949 -16.9656 -14.6760 -14.6319 -14.2525 -14.1688
   -14.0789 -14.0590 -13.6331 -13.4994 -13.0363 -12.9877  -2.8727  -2.6129
    -1.4866  -1.2418  -1.2207  -0.9804  -0.9466  -0.2342   2.7125   2.7463
     3.0805   3.1220   3.2629   3.3099   3.8829   3.9037   4.3058   4.6457

          k =-0.2837-0.1638 0.0830 (  4913 PWs)   bands (ev):

   -33.0628 -33.0506 -17.0088 -16.9394 -14.6781 -14.5475 -14.4492 -14.2255
   -14.0866 -14.0778 -13.5220 -13.2825 -13.1693 -13.0160  -2.7406  -2.6227
    -1.3739  -1.1796  -1.1106  -1.0199  -0.9455  -0.3633   2.7665   2.8494
     2.9881   2.9891   3.1374   3.1597   3.7235   3.7609   4.5218   4.6551

          k =-0.4256-0.2457 0.1246 (  4912 PWs)   bands (ev):

   -33.0605 -33.0525 -17.0072 -16.9273 -14.6744 -14.5467 -14.5129 -14.3279
   -14.0714 -14.0471 -13.4038 -13.2627 -13.1755 -13.0665  -2.6077  -2.5973
    -1.3044  -1.1290  -0.9882  -0.9644  -0.9548  -0.4896   2.6357   2.7140
     2.9436   2.9647   3.0644   3.1770   3.5641   3.6046   4.6781   4.6979

          k =-0.5675-0.3276 0.1661 (  4891 PWs)   bands (ev):

   -33.0577 -33.0550 -16.9816 -16.9459 -14.6093 -14.5543 -14.5309 -14.4706
   -14.0552 -14.0370 -13.2810 -13.2374 -13.1805 -13.1533  -2.5500  -2.5390
    -1.2713  -1.1940  -0.9338  -0.9277  -0.7736  -0.6108   2.4930   2.5564
     2.9024   2.9316   3.1562   3.2130   3.4685   3.4859   4.7271   4.7603

          k =-0.1419 0.0819 0.0830 (  4898 PWs)   bands (ev):

   -33.0643 -33.0495 -16.9957 -16.9652 -14.6521 -14.6514 -14.2432 -14.1692
   -14.1086 -14.0658 -13.5682 -13.5323 -13.0189 -13.0135  -2.8700  -2.6218
    -1.4696  -1.2350  -1.2244  -0.9855  -0.9447  -0.2454   2.7132   2.7527
     3.0871   3.0932   3.2914   3.3076   3.8529   3.9216   4.3069   4.6392

          k =-0.2837-0.0000 0.1246 (  4898 PWs)   bands (ev):

   -33.0631 -33.0504 -17.0073 -16.9455 -14.6602 -14.5979 -14.3620 -14.2290
   -14.1155 -14.0711 -13.5078 -13.3653 -13.1094 -13.0261  -2.7742  -2.6365
    -1.3788  -1.1990  -1.1417  -1.0197  -0.9366  -0.3444   2.7528   2.8366
     2.9742   3.0697   3.1388   3.2385   3.7179   3.8293   4.4677   4.6425

          k =-0.4256-0.0819 0.1661 (  4893 PWs)   bands (ev):

   -33.0611 -33.0520 -17.0093 -16.9306 -14.6664 -14.6130 -14.4067 -14.3103
   -14.0733 -14.0701 -13.4052 -13.3578 -13.1082 -13.0657  -2.6496  -2.6157
    -1.2973  -1.1375  -1.0668  -0.9712  -0.9392  -0.4617   2.6952   2.8167
     2.8882   2.9749   3.0825   3.1677   3.5622   3.6907   4.6499   4.6690

          k =-0.5675-0.1638 0.2076 (  4893 PWs)   bands (ev):

   -33.0586 -33.0542 -16.9873 -16.9430 -14.6573 -14.5971 -14.4514 -14.4099
   -14.0597 -14.0447 -13.3699 -13.2911 -13.1357 -13.0865  -2.5668  -2.5524
    -1.2609  -1.1762  -1.0035  -0.9237  -0.8033  -0.5641   2.5412   2.6335
     2.8677   2.9143   3.1033   3.1905   3.4717   3.5710   4.7260   4.7499

          k = 0.5675 0.4914-0.1246 (  4881 PWs)   bands (ev):

   -33.0567 -33.0559 -16.9784 -16.9478 -14.6467 -14.5718 -14.5211 -14.4172
   -14.0591 -14.0368 -13.3532 -13.2528 -13.1675 -13.0879  -2.5568  -2.4981
    -1.2659  -1.1979  -0.9588  -0.9028  -0.7017  -0.6507   2.4735   2.5458
     2.8411   2.9089   3.1207   3.1842   3.4810   3.5173   4.7401   4.7944

          k = 0.4256 0.4095-0.0830 (  4894 PWs)   bands (ev):

   -33.0593 -33.0534 -17.0107 -16.9167 -14.7043 -14.5687 -14.5089 -14.3175
   -14.0792 -14.0228 -13.4353 -13.2619 -13.1606 -13.0469  -2.5952  -2.5191
    -1.3038  -1.1140  -0.9759  -0.9204  -0.8875  -0.5434   2.4929   2.6912
     2.8447   2.9435   3.0413   3.2216   3.4977   3.5855   4.6879   4.7911

          k = 0.2837 0.3276-0.0415 (  4899 PWs)   bands (ev):

   -33.0617 -33.0514 -17.0203 -16.9173 -14.6803 -14.6074 -14.4173 -14.2824
   -14.0926 -14.0612 -13.4280 -13.3418 -13.1126 -13.0556  -2.6293  -2.6254
    -1.3209  -1.1293  -1.0500  -1.0268  -0.9234  -0.4434   2.6826   2.8253
     2.9062   2.9874   3.0228   3.1768   3.5937   3.7114   4.6573   4.6685

          k = 0.1419 0.2457 0.0000 (  4919 PWs)   bands (ev):

   -33.0635 -33.0500 -17.0088 -16.9431 -14.6544 -14.6131 -14.3080 -14.2801
   -14.0892 -14.0884 -13.5157 -13.3777 -13.0949 -13.0238  -2.7733  -2.6247
    -1.4101  -1.2031  -1.1529  -1.0213  -0.9280  -0.3206   2.7515   2.8371
     2.9673   3.1072   3.1191   3.2030   3.7533   3.8332   4.4654   4.6526

          k =-0.2837 0.1638 0.1661 (  4908 PWs)   bands (ev):

   -33.0625 -33.0509 -17.0189 -16.9306 -14.6403 -14.6204 -14.3191 -14.2979
   -14.1402 -14.0740 -13.4155 -13.3761 -13.0980 -13.0717  -2.7129  -2.6653
    -1.3095  -1.1825  -1.1643  -0.9873  -0.9237  -0.4034   2.7680   2.7797
     2.9646   3.0041   3.1423   3.2687   3.6076   3.8274   4.5383   4.6244

          k =-0.4256 0.0819 0.2076 (  4885 PWs)   bands (ev):

   -33.0611 -33.0520 -17.0263 -16.9138 -14.6928 -14.6207 -14.3570 -14.2744
   -14.1064 -14.0770 -13.4453 -13.3470 -13.1073 -13.0486  -2.6652  -2.6062
    -1.2500  -1.1677  -1.1144  -0.9197  -0.9138  -0.4915   2.6342   2.7707
     2.9005   3.0083   3.0832   3.2516   3.4693   3.7476   4.6297   4.6825

          k =-0.5675-0.0000 0.2491 (  4880 PWs)   bands (ev):

   -33.0591 -33.0536 -17.0106 -16.9212 -14.7254 -14.5734 -14.4551 -14.2866
   -14.0770 -14.0513 -13.5040 -13.2451 -13.1695 -13.0128  -2.6054  -2.5279
    -1.2375  -1.1486  -1.0901  -0.9063  -0.7890  -0.5528   2.5047   2.6855
     2.8583   2.9149   3.0536   3.1874   3.4480   3.6532   4.6878   4.7892

          k = 0.5675 0.6553-0.0830 (  4878 PWs)   bands (ev):

   -33.0569 -33.0557 -16.9701 -16.9574 -14.6910 -14.5788 -14.4822 -14.3547
   -14.0760 -14.0498 -13.4341 -13.2836 -13.1304 -13.0341  -2.5199  -2.5129
    -1.2412  -1.1885  -1.0399  -0.8922  -0.6589  -0.6237   2.4918   2.5391
     2.8093   2.8599   3.0506   3.1009   3.5088   3.5937   4.7869   4.7966

          k = 0.4256 0.5734-0.0415 (  4881 PWs)   bands (ev):

   -33.0579 -33.0547 -16.9992 -16.9252 -14.7178 -14.5916 -14.5109 -14.2663
   -14.0918 -14.0296 -13.4847 -13.2799 -13.1388 -13.0062  -2.5661  -2.4636
    -1.2993  -1.1123  -1.0112  -0.8956  -0.7682  -0.5722   2.4441   2.6257
     2.7693   2.8611   3.0283   3.1286   3.5536   3.5704   4.7335   4.8517

          k = 0.2837 0.4914 0.0000 (  4895 PWs)   bands (ev):

   -33.0600 -33.0528 -17.0219 -16.9050 -14.7410 -14.5784 -14.4970 -14.2189
   -14.1017 -14.0196 -13.5193 -13.2784 -13.1465 -13.0043  -2.6131  -2.5098
    -1.3084  -1.0810  -0.9924  -0.9416  -0.9147  -0.5216   2.5055   2.8029
     2.8076   2.8899   2.9867   3.2074   3.5253   3.6349   4.6776   4.8073

          k =-0.4256 0.2457 0.2491 (  4882 PWs)   bands (ev):

   -33.0605 -33.0525 -17.0448 -16.8891 -14.7188 -14.6959 -14.2608 -14.2081
   -14.1346 -14.0788 -13.4802 -13.4380 -13.0595 -13.0145  -2.7060  -2.5093
    -1.2581  -1.1298  -1.1052  -0.8970  -0.8387  -0.5588   2.4872   2.7283
     2.8437   3.0773   3.0949   3.3146   3.3465   3.7313   4.5900   4.7733

          k =-0.5675 0.1638 0.2907 (  4872 PWs)   bands (ev):

   -33.0593 -33.0534 -17.0431 -16.8849 -14.7675 -14.6884 -14.2951 -14.1770
   -14.0850 -14.0570 -13.6086 -13.3962 -13.0618 -12.9681  -2.6861  -2.4338
    -1.2663  -1.1318  -1.0653  -0.8847  -0.7542  -0.5911   2.3744   2.6550
     2.8263   3.0515   3.0762   3.1516   3.4401   3.6738   4.6072   4.8607

          k = 0.5675 0.8191-0.0415 (  4882 PWs)   bands (ev):

   -33.0578 -33.0547 -17.0119 -16.9156 -14.7422 -14.6298 -14.3796 -14.2749
   -14.0987 -14.0471 -13.5405 -13.3203 -13.0953 -12.9859  -2.5976  -2.4343
    -1.2154  -1.1959  -1.0789  -0.8787  -0.6627  -0.5901   2.3714   2.5761
     2.8308   2.9285   3.0291   3.0378   3.5232   3.6259   4.7033   4.8768

          k = 0.4256 0.7372 0.0000 (  4882 PWs)   bands (ev):

   -33.0562 -33.0562 -16.9634 -16.9632 -14.6762 -14.6449 -14.4178 -14.3424
   -14.1047 -14.0504 -13.3975 -13.3821 -13.0542 -13.0488  -2.4981  -2.4972
    -1.2656  -1.1180  -1.1005  -0.8815  -0.6581  -0.5864   2.4803   2.4936
     2.8102   2.8321   3.0052   3.0373   3.5573   3.6018   4.8132   4.8173

          k =-0.5675 0.3276 0.3322 (  4883 PWs)   bands (ev):

   -33.0591 -33.0535 -17.0615 -16.8606 -14.7842 -14.7797 -14.1448 -14.1224
   -14.0815 -14.0197 -13.6734 -13.5810 -12.9855 -12.9414  -2.7299  -2.3540
    -1.3091  -1.1027  -1.0253  -0.8689  -0.7077  -0.6411   2.2698   2.6007
     2.8435   3.0682   3.1026   3.1239   3.4787   3.6476   4.5524   4.9221

          k = 0.5675 0.9829 0.0000 (  4874 PWs)   bands (ev):

   -33.0586 -33.0540 -17.0498 -16.8732 -14.7782 -14.7496 -14.1937 -14.1529
   -14.1056 -14.0295 -13.6617 -13.4917 -13.0077 -12.9456  -2.6937  -2.3562
    -1.2875  -1.1392  -1.0311  -0.8673  -0.6871  -0.6132   2.2691   2.5790
     2.8541   3.0005   3.0759   3.0766   3.5213   3.6247   4.5937   4.9304

          k = 0.0000-0.0000 0.1246 (  4878 PWs)   bands (ev):

   -33.0645 -33.0494 -16.9865 -16.9789 -14.6666 -14.6666 -14.1936 -14.1936
   -14.0472 -13.9668 -13.6450 -13.6450 -12.9934 -12.9934  -2.9251  -2.6247
    -1.4850  -1.2552  -1.2552  -0.9628  -0.9628  -0.2126   2.6984   2.6984
     3.1258   3.1258   3.3771   3.3771   3.9454   3.9454   4.1984   4.6242

          k =-0.1419-0.0819 0.1661 (  4900 PWs)   bands (ev):

   -33.0637 -33.0501 -16.9930 -16.9685 -14.6816 -14.5977 -14.3435 -14.1509
   -14.0835 -14.0250 -13.6339 -13.4377 -13.0785 -12.9900  -2.8722  -2.6407
    -1.4176  -1.2315  -1.1953  -0.9881  -0.9675  -0.2850   2.7320   2.7624
     3.0639   3.1143   3.2603   3.3530   3.8434   3.8727   4.3169   4.6223

          k =-0.2837-0.1638 0.2076 (  4910 PWs)   bands (ev):

   -33.0619 -33.0515 -16.9983 -16.9518 -14.6816 -14.5162 -14.5015 -14.1949
   -14.1066 -14.0496 -13.5297 -13.2450 -13.2145 -13.0127  -2.7577  -2.6276
    -1.3260  -1.1740  -1.0606  -1.0155  -0.9778  -0.4079   2.7546   2.8796
     2.9842   2.9913   3.0899   3.2418   3.6756   3.7224   4.5169   4.6473

          k =-0.4256-0.2457 0.2491 (  4884 PWs)   bands (ev):

   -33.0595 -33.0535 -16.9835 -16.9541 -14.6498 -14.5984 -14.4681 -14.3390
   -14.0676 -14.0483 -13.4047 -13.2743 -13.1747 -13.0606  -2.6530  -2.5632
    -1.2606  -1.1713  -1.0198  -0.9619  -0.8686  -0.5214   2.6527   2.6999
     2.9109   2.9572   3.1101   3.2073   3.5132   3.5760   4.6627   4.7052

          k = 0.7093 0.4095-0.0830 (  4875 PWs)   bands (ev):

   -33.0568 -33.0559 -16.9813 -16.9475 -14.6445 -14.5708 -14.5111 -14.4177
   -14.0630 -14.0317 -13.3409 -13.2632 -13.1679 -13.0971  -2.6051  -2.4856
    -1.2592  -1.2007  -0.9838  -0.8977  -0.7069  -0.6495   2.4725   2.5667
     2.8597   2.9698   3.1310   3.2761   3.4031   3.5038   4.7006   4.7846

          k = 0.5675 0.3276-0.0415 (  4869 PWs)   bands (ev):

   -33.0585 -33.0541 -17.0131 -16.9121 -14.6878 -14.6252 -14.4493 -14.3641
   -14.0790 -14.0121 -13.4060 -13.2793 -13.1459 -13.0628  -2.6132  -2.4730
    -1.3134  -1.1150  -0.9754  -0.8903  -0.8288  -0.5875   2.4124   2.6266
     2.8346   3.0047   3.0738   3.3088   3.4004   3.5495   4.6694   4.8183

          k = 0.4256 0.2457 0.0000 (  4890 PWs)   bands (ev):

   -33.0610 -33.0519 -17.0266 -16.9057 -14.7026 -14.5942 -14.4565 -14.2709
   -14.0962 -14.0438 -13.4562 -13.2464 -13.1880 -13.0362  -2.6356  -2.5647
    -1.3115  -1.1074  -1.0466  -0.9449  -0.9375  -0.4889   2.5694   2.7590
     2.9146   2.9853   3.0223   3.2453   3.5115   3.6764   4.6474   4.7306

          k = 0.2837 0.1638 0.0415 (  4909 PWs)   bands (ev):

   -33.0631 -33.0503 -17.0160 -16.9320 -14.6579 -14.5965 -14.3718 -14.2648
   -14.1110 -14.0807 -13.4803 -13.3274 -13.1285 -13.0359  -2.7248  -2.6357
    -1.3682  -1.1772  -1.1562  -1.0068  -0.9251  -0.3627   2.7720   2.8099
     2.9748   2.9988   3.1302   3.2004   3.6835   3.8143   4.5288   4.6472

          k =-0.1419 0.0819 0.2076 (  4912 PWs)   bands (ev):

   -33.0633 -33.0505 -16.9952 -16.9671 -14.6572 -14.6089 -14.3347 -14.1873
   -14.0887 -14.0537 -13.5281 -13.4696 -13.0663 -13.0271  -2.8641  -2.6635
    -1.3727  -1.2121  -1.2047  -1.0023  -0.9621  -0.3177   2.7357   2.7802
     3.0511   3.0781   3.3017   3.3713   3.7862   3.8942   4.3225   4.6045

          k =-0.2837-0.0000 0.2491 (  4900 PWs)   bands (ev):

   -33.0619 -33.0516 -17.0026 -16.9523 -14.6631 -14.5726 -14.4143 -14.2014
   -14.1344 -14.0551 -13.4848 -13.3360 -13.1421 -13.0382  -2.7750  -2.6665
    -1.2975  -1.1852  -1.1156  -1.0079  -0.9603  -0.4150   2.7592   2.8388
     2.9791   3.0252   3.1692   3.3139   3.6372   3.7994   4.4754   4.6157

          k =-0.4256-0.0819 0.2907 (  4894 PWs)   bands (ev):

   -33.0599 -33.0532 -16.9942 -16.9492 -14.6428 -14.6360 -14.3946 -14.3062
   -14.0955 -14.0582 -13.4134 -13.3414 -13.1263 -13.0587  -2.6725  -2.6112
    -1.2384  -1.1527  -1.0948  -0.9571  -0.8830  -0.5108   2.6866   2.7705
     2.9328   2.9613   3.0802   3.2489   3.4874   3.6621   4.6345   4.6713

          k = 0.7093 0.5734-0.0415 (  4882 PWs)   bands (ev):

   -33.0576 -33.0552 -16.9718 -16.9613 -14.6738 -14.5706 -14.4884 -14.3505
   -14.0711 -14.0522 -13.4187 -13.2389 -13.1874 -13.0488  -2.6136  -2.5113
    -1.2318  -1.1858  -1.0496  -0.9150  -0.7256  -0.5990   2.5284   2.6082
     2.8537   2.9503   3.0880   3.2314   3.4320   3.5600   4.7061   4.7652

          k = 0.5675 0.4914 0.0000 (  4883 PWs)   bands (ev):

   -33.0575 -33.0551 -17.0068 -16.9187 -14.7069 -14.6174 -14.4738 -14.3018
   -14.0835 -14.0232 -13.4616 -13.2769 -13.1474 -13.0220  -2.6114  -2.4424
    -1.3046  -1.1134  -1.0150  -0.8885  -0.7307  -0.6140   2.3968   2.5972
     2.7887   2.9752   3.0740   3.2142   3.4626   3.5460   4.6871   4.8463

          k = 0.4256 0.4095 0.0415 (  4890 PWs)   bands (ev):

   -33.0597 -33.0530 -17.0290 -16.8966 -14.7458 -14.6107 -14.4615 -14.2213
   -14.1010 -14.0127 -13.5338 -13.2550 -13.1691 -12.9967  -2.6347  -2.4777
    -1.3136  -1.0801  -0.9902  -0.9453  -0.8669  -0.5446   2.4382   2.7335
     2.7922   2.9836   3.0214   3.2539   3.4646   3.6295   4.6517   4.8264

          k = 0.2837 0.3276 0.0830 (  4892 PWs)   bands (ev):

   -33.0617 -33.0514 -17.0262 -16.9115 -14.6859 -14.6188 -14.3947 -14.2651
   -14.1026 -14.0699 -13.4424 -13.3365 -13.1166 -13.0464  -2.6441  -2.6131
    -1.3036  -1.1313  -1.1078  -0.9777  -0.9120  -0.4546   2.6570   2.8074
     2.9211   2.9633   3.0496   3.2116   3.5506   3.7408   4.6458   4.6772

          k =-0.2837 0.1638 0.2907 (  4901 PWs)   bands (ev):

   -33.0613 -33.0521 -17.0170 -16.9350 -14.6722 -14.5689 -14.3861 -14.2563
   -14.1419 -14.0597 -13.4231 -13.3433 -13.1202 -13.0787  -2.7042  -2.7029
    -1.2311  -1.1741  -1.1427  -0.9551  -0.9450  -0.4812   2.7618   2.7646
     2.9680   3.0002   3.1758   3.3431   3.5095   3.7968   4.5509   4.5931

          k =-0.4256 0.0819 0.3322 (  4890 PWs)   bands (ev):

   -33.0599 -33.0532 -17.0202 -16.9234 -14.7006 -14.6058 -14.3492 -14.2728
   -14.1224 -14.0674 -13.4471 -13.3529 -13.0959 -13.0587  -2.6850  -2.6056
    -1.1982  -1.1709  -1.1108  -0.9380  -0.8514  -0.5487   2.6233   2.7312
     2.9158   3.0361   3.1106   3.2750   3.4063   3.7163   4.6158   4.6832

          k = 0.7093 0.7372 0.0000 (  4881 PWs)   bands (ev):

   -33.0582 -33.0546 -16.9970 -16.9388 -14.7017 -14.5903 -14.4085 -14.3128
   -14.0904 -14.0808 -13.4644 -13.2770 -13.1409 -13.0295  -2.5957  -2.5460
    -1.1851  -1.1677  -1.1229  -0.9218  -0.7164  -0.5818   2.5118   2.6194
     2.8868   2.9541   3.0653   3.1494   3.4454   3.6273   4.7023   4.7694

          k = 0.5675 0.6553 0.0415 (  4880 PWs)   bands (ev):

   -33.0563 -33.0563 -16.9757 -16.9535 -14.6874 -14.5984 -14.4715 -14.3076
   -14.1008 -14.0639 -13.4388 -13.2967 -13.1228 -13.0251  -2.5486  -2.4853
    -1.2635  -1.1130  -1.0951  -0.9061  -0.6422  -0.6092   2.4661   2.5180
     2.8145   2.9100   3.0345   3.0838   3.5153   3.5851   4.7663   4.8166

          k = 0.4256 0.5734 0.0830 (  4885 PWs)   bands (ev):

   -33.0581 -33.0545 -17.0087 -16.9157 -14.7400 -14.5897 -14.5044 -14.2134
   -14.1036 -14.0327 -13.5372 -13.2576 -13.1561 -12.9830  -2.5851  -2.4442
    -1.2997  -1.1073  -1.0025  -0.9267  -0.7478  -0.5672   2.4098   2.6301
     2.7626   2.8934   3.0185   3.1217   3.5381   3.5955   4.7142   4.8701

          k = 0.2837 0.4914 0.1246 (  4889 PWs)   bands (ev):

   -33.0598 -33.0530 -17.0191 -16.9093 -14.7376 -14.5748 -14.4864 -14.2449
   -14.0873 -14.0282 -13.5183 -13.2639 -13.1566 -13.0058  -2.6112  -2.5147
    -1.2896  -1.1060  -1.0348  -0.9228  -0.8662  -0.5303   2.5046   2.7529
     2.8386   2.8891   3.0144   3.2028   3.4948   3.6478   4.6799   4.8026

          k =-0.4256 0.2457 0.3737 (  4873 PWs)   bands (ev):

   -33.0594 -33.0535 -17.0411 -16.8959 -14.7487 -14.6635 -14.2721 -14.1872
   -14.1370 -14.0567 -13.5232 -13.4423 -13.0348 -13.0202  -2.7271  -2.5009
    -1.2593  -1.1006  -1.0809  -0.9241  -0.7853  -0.6048   2.4810   2.6859
     2.8982   3.0979   3.1040   3.2237   3.3845   3.6999   4.5777   4.7773

          k = 0.7093 0.9010 0.0415 (  4870 PWs)   bands (ev):

   -33.0586 -33.0542 -17.0368 -16.8943 -14.7513 -14.6943 -14.2606 -14.1860
   -14.1073 -14.0872 -13.5466 -13.4473 -13.0288 -12.9924  -2.6911  -2.4346
    -1.2633  -1.1300  -1.0478  -0.9155  -0.7073  -0.6089   2.3798   2.6190
     2.8830   3.0416   3.0741   3.1161   3.4543   3.6442   4.6105   4.8545

          k = 0.5675 0.8191 0.0830 (  4875 PWs)   bands (ev):

   -33.0574 -33.0551 -17.0047 -16.9245 -14.7150 -14.6481 -14.3365 -14.3157
   -14.1053 -14.0740 -13.4846 -13.3532 -13.0722 -13.0082  -2.5896  -2.4438
    -1.2231  -1.1935  -1.0565  -0.9108  -0.6397  -0.5906   2.3828   2.5481
     2.8627   2.9285   3.0089   3.0387   3.5329   3.6045   4.7158   4.8647

          k = 0.4256 0.7372 0.1246 (  4891 PWs)   bands (ev):

   -33.0562 -33.0562 -16.9634 -16.9633 -14.6694 -14.6539 -14.3994 -14.3623
   -14.0892 -14.0624 -13.3936 -13.3859 -13.0528 -13.0501  -2.4979  -2.4974
    -1.2464  -1.1917  -1.0129  -0.9240  -0.6348  -0.6003   2.4835   2.4902
     2.8159   2.8269   3.0125   3.0285   3.5690   3.5912   4.8142   4.8163

          k = 0.2837 0.6553 0.1661 (  4876 PWs)   bands (ev):

   -33.0574 -33.0551 -16.9858 -16.9398 -14.6970 -14.5989 -14.4776 -14.3422
   -14.0689 -14.0410 -13.4402 -13.2989 -13.1195 -13.0322  -2.5410  -2.4901
    -1.2615  -1.1853  -0.9661  -0.9325  -0.7134  -0.5973   2.4743   2.5904
     2.8074   2.8285   3.0471   3.1120   3.5345   3.5811   4.7583   4.8261

          k = 0.7093-0.4095-0.2907 (  4878 PWs)   bands (ev):

   -33.0587 -33.0540 -17.0561 -16.8679 -14.7868 -14.7598 -14.1542 -14.1433
   -14.1061 -14.0066 -13.6174 -13.6022 -12.9776 -12.9577  -2.7291  -2.3573
    -1.3121  -1.1010  -0.9954  -0.9071  -0.6905  -0.6419   2.2813   2.5915
     2.8702   3.0188   3.1203   3.1355   3.4799   3.6209   4.5604   4.9144

          k = 0.5675-0.4914-0.2491 (  4875 PWs)   bands (ev):

   -33.0585 -33.0541 -17.0446 -16.8788 -14.7717 -14.7330 -14.2671 -14.1310
   -14.1009 -14.0429 -13.6342 -13.4569 -13.0260 -12.9524  -2.6839  -2.3666
    -1.2990  -1.1251  -1.0046  -0.9045  -0.6911  -0.6076   2.2851   2.5893
     2.8198   3.0286   3.0684   3.0960   3.5128   3.6089   4.6062   4.9199

          k = 0.4256-0.5734-0.2076 (  4876 PWs)   bands (ev):

   -33.0581 -33.0545 -17.0132 -16.9124 -14.7501 -14.6095 -14.4487 -14.2294
   -14.0870 -14.0424 -13.5621 -13.2794 -13.1323 -12.9756  -2.5960  -2.4342
    -1.2653  -1.1613  -1.0175  -0.9157  -0.6970  -0.5796   2.3823   2.6073
     2.7888   2.9169   3.0206   3.0853   3.5271   3.6190   4.7031   4.8788

          k = 0.5675-0.3276-0.2076 (  4891 PWs)   bands (ev):

   -33.0593 -33.0534 -17.0554 -16.8663 -14.7745 -14.7555 -14.2266 -14.1440
   -14.1156 -13.9931 -13.6370 -13.4967 -13.0172 -12.9541  -2.7088  -2.3742
    -1.3181  -1.0883  -1.0057  -0.9041  -0.7425  -0.6151   2.2906   2.6379
     2.7871   3.0740   3.1050   3.1800   3.4521   3.6375   4.5725   4.9060

          k = 0.4256-0.4095-0.1661 (  4878 PWs)   bands (ev):

   -33.0597 -33.0530 -17.0403 -16.8856 -14.7672 -14.6588 -14.3797 -14.1650
   -14.1022 -14.0238 -13.6035 -13.3259 -13.1116 -12.9696  -2.6663  -2.4483
    -1.2940  -1.1038  -1.0394  -0.9096  -0.8083  -0.5651   2.3954   2.7147
     2.7778   3.0174   3.0514   3.2293   3.4382   3.6656   4.6225   4.8509

          k = 0.4256-0.2457-0.1246 (  4897 PWs)   bands (ev):

   -33.0610 -33.0519 -17.0397 -16.8924 -14.7098 -14.6661 -14.3575 -14.2171
   -14.1186 -14.0639 -13.4862 -13.3397 -13.1167 -13.0155  -2.6737  -2.5307
    -1.2867  -1.1110  -1.1050  -0.9120  -0.8897  -0.5157   2.5174   2.7869
     2.8195   3.0279   3.0679   3.3028   3.4226   3.7216   4.6156   4.7569

          k = 0.0000-0.0000 0.2491 (  4896 PWs)   bands (ev):

   -33.0631 -33.0508 -16.9865 -16.9803 -14.6392 -14.6392 -14.2746 -14.2746
   -14.0385 -13.9730 -13.5477 -13.5477 -13.0375 -13.0375  -2.9155  -2.6822
    -1.3436  -1.2284  -1.2284  -0.9904  -0.9904  -0.3160   2.7419   2.7419
     3.0917   3.0917   3.4187   3.4187   3.8809   3.8809   4.2325   4.5746

          k =-0.1419-0.0819 0.2907 (  4910 PWs)   bands (ev):

   -33.0621 -33.0517 -16.9900 -16.9732 -14.6679 -14.5509 -14.4299 -14.2107
   -14.0626 -14.0084 -13.5690 -13.3585 -13.1424 -13.0201  -2.8660  -2.6912
    -1.2905  -1.2059  -1.1426  -1.0060  -1.0045  -0.3948   2.7688   2.7999
     3.0359   3.0636   3.3077   3.4210   3.7510   3.8237   4.3409   4.5757

          k =-0.2837-0.1638 0.3322 (  4892 PWs)   bands (ev):

   -33.0603 -33.0531 -16.9854 -16.9674 -14.6759 -14.5595 -14.4661 -14.1910
   -14.1204 -14.0309 -13.5120 -13.2510 -13.2187 -13.0237  -2.7707  -2.6445
    -1.2411  -1.1678  -1.0574  -1.0125  -0.9443  -0.4958   2.7443   2.8772
     2.9727   2.9884   3.1030   3.3549   3.5700   3.6842   4.5155   4.6289

          k = 0.8512 0.4914 0.0000 (  4875 PWs)   bands (ev):

   -33.0581 -33.0549 -16.9824 -16.9578 -14.6972 -14.5415 -14.5059 -14.2668
   -14.0925 -14.0315 -13.4803 -13.2352 -13.2065 -13.0252  -2.6930  -2.5356
    -1.2153  -1.1862  -1.0476  -0.9574  -0.7826  -0.5801   2.5886   2.7238
     2.9013   2.9928   3.0573   3.3477   3.4092   3.5578   4.6284   4.7297

          k = 0.7093 0.4095 0.0415 (  4882 PWs)   bands (ev):

   -33.0569 -33.0557 -17.0138 -16.9146 -14.7153 -14.6524 -14.3974 -14.3034
   -14.0857 -14.0123 -13.4489 -13.3849 -13.0735 -13.0343  -2.6631  -2.4277
    -1.2995  -1.1137  -1.0274  -0.8961  -0.6797  -0.6599   2.3905   2.6100
     2.8155   3.0366   3.0787   3.3017   3.3923   3.5238   4.6431   4.8389

          k = 0.5675 0.3276 0.0830 (  4880 PWs)   bands (ev):

   -33.0591 -33.0536 -17.0387 -16.8842 -14.7435 -14.7017 -14.3363 -14.2506
   -14.1000 -13.9938 -13.5324 -13.3885 -13.0715 -12.9952  -2.6683  -2.4155
    -1.3260  -1.0712  -0.9704  -0.9473  -0.7909  -0.5899   2.3409   2.6644
     2.7754   3.0540   3.0648   3.2994   3.3941   3.6005   4.6150   4.8692

          k =-0.1419 0.0819 0.3322 (  4913 PWs)   bands (ev):

   -33.0615 -33.0523 -16.9932 -16.9709 -14.6463 -14.5502 -14.4262 -14.2635
   -14.0455 -14.0397 -13.4851 -13.3607 -13.1428 -13.0595  -2.8519  -2.7203
    -1.2444  -1.1768  -1.1434  -1.0238  -0.9966  -0.4459   2.7795   2.8249
     3.0004   3.0451   3.3470   3.4499   3.6927   3.8265   4.3542   4.5506

          k =-0.2837-0.0000 0.3737 (  4892 PWs)   bands (ev):

   -33.0601 -33.0534 -16.9951 -16.9622 -14.6542 -14.5711 -14.4234 -14.2506
   -14.1014 -14.0446 -13.4470 -13.3181 -13.1643 -13.0646  -2.7716  -2.7032
    -1.2038  -1.1596  -1.1008  -1.0020  -0.9454  -0.5280   2.7754   2.8435
     2.9592   2.9968   3.2262   3.4005   3.5444   3.7351   4.4903   4.5801

          k = 0.8512 0.6553 0.0415 (  4879 PWs)   bands (ev):

   -33.0584 -33.0547 -16.9762 -16.9702 -14.6641 -14.6132 -14.4016 -14.2690
   -14.1141 -14.0615 -13.4367 -13.3160 -13.1430 -13.0504  -2.6911  -2.6101
    -1.1773  -1.1569  -1.1054  -0.9817  -0.7922  -0.5868   2.6637   2.7334
     2.9686   2.9761   3.0745   3.3016   3.4584   3.6070   4.6202   4.6731

          k = 0.7093 0.5734 0.0830 (  4871 PWs)   bands (ev):

   -33.0564 -33.0564 -16.9992 -16.9352 -14.7060 -14.6130 -14.4326 -14.2583
   -14.0936 -14.0670 -13.4639 -13.3307 -13.1117 -13.0220  -2.6530  -2.4758
    -1.2618  -1.1102  -1.0716  -0.9369  -0.6658  -0.6353   2.4651   2.6106
     2.8663   3.0001   3.0529   3.2098   3.4716   3.5373   4.6652   4.8022

          k = 0.5675 0.4914 0.1246 (  4881 PWs)   bands (ev):

   -33.0581 -33.0545 -17.0297 -16.8947 -14.7487 -14.6872 -14.3714 -14.1897
   -14.1043 -14.0265 -13.5614 -13.3741 -13.0755 -12.9766  -2.6554  -2.3966
    -1.3127  -1.0929  -0.9925  -0.9364  -0.7121  -0.6014   2.3302   2.6077
     2.7805   3.0242   3.0575   3.1667   3.4874   3.5751   4.6401   4.8902

          k =-0.2837 0.1638 0.4152 (  4892 PWs)   bands (ev):

   -33.0594 -33.0539 -17.0101 -16.9443 -14.6884 -14.5112 -14.4559 -14.2592
   -14.1102 -14.0423 -13.4602 -13.2771 -13.1756 -13.0675  -2.7382  -2.6952
    -1.2032  -1.1170  -1.1073  -0.9898  -0.8853  -0.5889   2.7518   2.7758
     2.9699   2.9919   3.2264   3.4099   3.4236   3.7271   4.5614   4.5667

          k = 0.8512 0.8191 0.0830 (  4877 PWs)   bands (ev):

   -33.0583 -33.0548 -17.0080 -16.9386 -14.6996 -14.5906 -14.3772 -14.2543
   -14.1181 -14.0727 -13.4521 -13.3396 -13.1077 -13.0574  -2.6979  -2.6077
    -1.2041  -1.1220  -1.0818  -0.9888  -0.7704  -0.6210   2.6258   2.7107
     2.9435   3.0276   3.1478   3.2266   3.4433   3.6479   4.6089   4.6805

          k = 0.7093 0.7372 0.1246 (  4883 PWs)   bands (ev):

   -33.0570 -33.0558 -16.9793 -16.9591 -14.6668 -14.6259 -14.3609 -14.3294
   -14.1089 -14.1049 -13.4046 -13.3378 -13.0966 -13.0577  -2.5820  -2.5650
    -1.1914  -1.1798  -1.0571  -0.9765  -0.6578  -0.6147   2.5311   2.5666
     2.9324   2.9707   3.0627   3.0955   3.4991   3.5705   4.7227   4.7462

          k = 0.5675 0.6553 0.1661 (  4881 PWs)   bands (ev):

   -33.0569 -33.0557 -16.9922 -16.9377 -14.6843 -14.6483 -14.4068 -14.2843
   -14.1043 -14.0888 -13.4429 -13.3457 -13.0859 -13.0209  -2.5728  -2.4614
    -1.2541  -1.1667  -0.9972  -0.9729  -0.6316  -0.5946   2.4167   2.5285
     2.8426   2.9356   3.0157   3.0525   3.5487   3.5682   4.7381   4.8437

          k = 0.8512-0.4914-0.2491 (  4881 PWs)   bands (ev):

   -33.0580 -33.0549 -17.0286 -16.9113 -14.7546 -14.6174 -14.3636 -14.1691
   -14.1187 -14.0339 -13.5666 -13.3820 -13.0758 -13.0011  -2.7327  -2.5037
    -1.2616  -1.0910  -1.0146  -0.9937  -0.7251  -0.6516   2.4977   2.6788
     2.9475   3.0594   3.0759   3.2295   3.4239   3.6306   4.5814   4.7692

          k = 0.7093-0.5734-0.2076 (  4879 PWs)   bands (ev):

   -33.0575 -33.0552 -17.0217 -16.9119 -14.7301 -14.6678 -14.3378 -14.1821
   -14.1078 -14.1005 -13.4826 -13.4341 -13.0416 -13.0149  -2.6798  -2.4493
    -1.2702  -1.1176  -0.9987  -0.9842  -0.6696  -0.6279   2.4114   2.6079
     2.9022   3.0042   3.0615   3.1513   3.4789   3.5801   4.6315   4.8337

          k = 0.7093-0.4095-0.1661 (  4881 PWs)   bands (ev):

   -33.0579 -33.0548 -17.0397 -16.8868 -14.7635 -14.7164 -14.2745 -14.2009
   -14.1010 -14.0017 -13.5463 -13.5089 -13.0024 -12.9940  -2.7061  -2.3831
    -1.3146  -1.0853  -0.9909  -0.9391  -0.6869  -0.6397   2.3236   2.6062
     2.8302   3.0468   3.0906   3.2005   3.4603   3.5652   4.5935   4.8846

          k = 0.0000 0.0000 0.3737 (  4908 PWs)   bands (ev):

   -33.0610 -33.0529 -16.9863 -16.9822 -14.5940 -14.5940 -14.3671 -14.3671
   -14.0258 -13.9830 -13.4301 -13.4301 -13.1082 -13.1082  -2.8956  -2.7504
    -1.1874  -1.1874  -1.1438  -1.0323  -1.0323  -0.4787   2.8074   2.8074
     3.0366   3.0366   3.4867   3.4867   3.7874   3.7874   4.2853   4.5050

          k =-0.1419-0.0819 0.4152 (  4908 PWs)   bands (ev):

   -33.0599 -33.0539 -16.9860 -16.9790 -14.6358 -14.5048 -14.4933 -14.2963
   -14.0429 -14.0055 -13.4688 -13.2735 -13.2224 -13.0751  -2.8499  -2.7464
    -1.1748  -1.1697  -1.0671  -1.0525  -0.9902  -0.5549   2.8188   2.8549
     2.9939   2.9950   3.3832   3.5118   3.6414   3.7437   4.3790   4.5168

          k = 0.9931 0.5734 0.0830 (  4880 PWs)   bands (ev):

   -33.0583 -33.0551 -16.9838 -16.9711 -14.6789 -14.5592 -14.4492 -14.2319
   -14.1001 -14.0239 -13.4929 -13.2583 -13.2104 -13.0422  -2.7738  -2.6649
    -1.1708  -1.1447  -1.0711  -1.0407  -0.8377  -0.6196   2.7411   2.8463
     2.9585   2.9858   3.1729   3.4589   3.4716   3.6252   4.5210   4.6068

          k = 0.8512 0.4914 0.1246 (  4868 PWs)   bands (ev):

   -33.0565 -33.0565 -17.0083 -16.9328 -14.7367 -14.5626 -14.4572 -14.1954
   -14.1099 -14.0255 -13.5469 -13.3094 -13.1349 -13.0030  -2.7210  -2.5157
    -1.2472  -1.0998  -1.0623  -0.9709  -0.7091  -0.6537   2.5348   2.6998
     2.9448   3.0274   3.0367   3.3065   3.4398   3.5552   4.5996   4.7519

          k =-0.1419 0.0819 0.4568 (  4898 PWs)   bands (ev):

   -33.0591 -33.0547 -16.9897 -16.9759 -14.6197 -14.5073 -14.4787 -14.3412
   -14.0279 -14.0249 -13.4134 -13.2559 -13.2366 -13.1122  -2.8296  -2.7757
    -1.1679  -1.1345  -1.0893  -1.0444  -0.9466  -0.6186   2.8410   2.8780
     2.9450   2.9906   3.4237   3.5416   3.5874   3.7311   4.3999   4.4892

          k = 0.9931 0.7372 0.1246 (  4880 PWs)   bands (ev):

   -33.0579 -33.0556 -16.9851 -16.9737 -14.6324 -14.6005 -14.3814 -14.3179
   -14.0677 -14.0479 -13.3970 -13.3451 -13.1445 -13.1031  -2.7594  -2.7362
    -1.1480  -1.1267  -1.0958  -1.0472  -0.8238  -0.6719   2.8027   2.8324
     2.9509   2.9712   3.3076   3.3978   3.5472   3.6443   4.5133   4.5441

          k = 0.8512 0.6553 0.1661 (  4883 PWs)   bands (ev):

   -33.0566 -33.0565 -16.9907 -16.9570 -14.6867 -14.5919 -14.3989 -14.2499
   -14.1097 -14.0779 -13.4506 -13.3189 -13.1334 -13.0503  -2.7003  -2.6095
    -1.1954  -1.1200  -1.0614  -1.0224  -0.7037  -0.6784   2.6403   2.7125
     2.9711   2.9965   3.1195   3.2462   3.5107   3.5639   4.6107   4.6763

          k = 0.9931-0.5734-0.2076 (  4881 PWs)   bands (ev):

   -33.0573 -33.0561 -16.9986 -16.9569 -14.6887 -14.5179 -14.4639 -14.2605
   -14.0908 -14.0286 -13.4810 -13.2295 -13.2276 -13.0578  -2.7631  -2.6826
    -1.1853  -1.0928  -1.0646  -1.0565  -0.7612  -0.7138   2.7447   2.8057
     2.9627   2.9863   3.2452   3.3735   3.4988   3.6359   4.5362   4.5856

          k = 0.0000-0.0000 0.4983 (  4872 PWs)   bands (ev):

   -33.0584 -33.0556 -16.9855 -16.9841 -14.5321 -14.5321 -14.4553 -14.4553
   -14.0109 -13.9961 -13.3110 -13.3110 -13.2013 -13.2013  -2.8620  -2.8130
    -1.1371  -1.1371  -1.0832  -1.0832  -0.9154  -0.6854   2.8856   2.8856
     2.9653   2.9653   3.5767   3.5767   3.6809   3.6809   4.3523   4.4278

          k = 1.1349 0.6553 0.1661 (  4893 PWs)   bands (ev):

   -33.0573 -33.0565 -16.9847 -16.9811 -14.5963 -14.5542 -14.4340 -14.3775
   -14.0296 -14.0123 -13.3702 -13.2993 -13.2001 -13.1441  -2.8201  -2.7944
    -1.1330  -1.1033  -1.1020  -1.0907  -0.8153  -0.7488   2.8750   2.9054
     2.9333   2.9450   3.4722   3.5343   3.6102   3.6540   4.4299   4.4558

     highest occupied level (ev):     4.9304

!    total energy              =    -367.42204787 Ry
     Harris-Foulkes estimate   =    -367.42204787 Ry
     estimated scf accuracy    <          4.8E-09 Ry

     The total energy is the sum of the following terms:

     one-electron contribution =    -142.64353216 Ry
     hartree contribution      =     101.76996080 Ry
     xc contribution           =     -75.51927332 Ry
     ewald contribution        =    -251.02920320 Ry

     convergence has been achieved in  10 iterations

     Forces acting on atoms (cartesian axes, Ry/au):

     atom    1 type  1   force =     0.00000000    0.00000000    0.00000000
     atom    2 type  1   force =     0.00000000    0.00000000    0.00000000
     atom    3 type  2   force =    -0.00000000    0.00000000   -0.00000000
     atom    4 type  2   force =    -0.00000000   -0.00000000   -0.00000000
     atom    5 type  3   force =     0.02114442   -0.03662321   -0.00000000
     atom    6 type  3   force =    -0.04228884   -0.00000000    0.00000000
     atom    7 type  3   force =     0.02114442    0.03662321    0.00000000
     atom    8 type  3   force =     0.04228884    0.00000000   -0.00000000
     atom    9 type  3   force =    -0.02114442   -0.03662321   -0.00000000
     atom   10 type  3   force =    -0.02114442    0.03662321    0.00000000

     Total force =     0.103586     Total SCF correction =     0.000021


     Computing stress (Cartesian axis) and pressure

          total   stress  (Ry/bohr**3)                   (kbar)     P=   65.67
   0.00058763  -0.00000000   0.00000000         86.44     -0.00      0.00
   0.00000000   0.00058763   0.00000000          0.00     86.44      0.00
  -0.00000000   0.00000000   0.00016392         -0.00      0.00     24.11


     BFGS Geometry Optimization

     number of scf cycles    =   1
     number of bfgs steps    =   0

     enthalpy new            =    -367.4220478706 Ry

     new trust radius        =       0.0840547659 bohr
     new conv_thr            =       0.0000000100 Ry

     new unit-cell volume =    846.09107 a.u.^3 (   125.37776 Ang^3 )
     density =      2.65121 g/cm^3

CELL_PARAMETERS (alat= 11.99840000)
   0.397352193  -0.229411396   0.895581785
   0.000000000   0.458822791   0.895581785
  -0.397352193  -0.229411396   0.895581785

ATOMIC_POSITIONS (crystal)
Ca       0.500000000   0.500000000   0.500000000
Ca       0.000000000   0.000000000   0.000000000
C        0.250000000   0.250000000   0.250000000
C        0.750000000   0.750000000   0.750000000
O        0.511502090   0.988497910   0.250000000
O        0.988497910   0.250000000   0.511502090
O        0.250000000   0.511502090   0.988497910
O        0.011502090   0.750000000   0.488497910
O        0.750000000   0.488497910   0.011502090
O        0.488497910   0.011502090   0.750000000



     Writing output data file CCO.save/
     NEW-OLD atomic charge density approx. for the potential

     Check: negative core charge=   -0.000003
     extrapolated charge   66.09311, renormalised to   64.00000

     total cpu time spent up to now is      319.9 secs

     Self-consistent Calculation

     iteration #  1     ecut=    50.00 Ry     beta= 0.70
     CG style diagonalization
     c_bands:  4 eigenvalues not converged
     c_bands:  5 eigenvalues not converged
     c_bands:  4 eigenvalues not converged
     c_bands:  5 eigenvalues not converged
     c_bands:  5 eigenvalues not converged
     c_bands:  4 eigenvalues not converged
     c_bands:  2 eigenvalues not converged
     c_bands:  5 eigenvalues not converged
     c_bands:  4 eigenvalues not converged
     c_bands:  4 eigenvalues not converged
     c_bands:  5 eigenvalues not converged
     c_bands:  4 eigenvalues not converged
     c_bands:  5 eigenvalues not converged
     c_bands:  2 eigenvalues not converged
     ethr =  1.00E-06,  avg # of iterations = 16.3

     total cpu time spent up to now is      438.3 secs

     total energy              =    -367.12813888 Ry
     Harris-Foulkes estimate   =    -363.85165571 Ry
     estimated scf accuracy    <       0.24008217 Ry

     iteration #  2     ecut=    50.00 Ry     beta= 0.70
     CG style diagonalization
     ethr =  3.75E-04,  avg # of iterations =  5.0

     total cpu time spent up to now is      476.2 secs

     total energy              =    -367.39680541 Ry
     Harris-Foulkes estimate   =    -367.63190105 Ry
     estimated scf accuracy    <       0.62334498 Ry

     iteration #  3     ecut=    50.00 Ry     beta= 0.70
     CG style diagonalization
     ethr =  3.75E-04,  avg # of iterations =  3.7

     total cpu time spent up to now is      504.9 secs

     total energy              =    -367.42787090 Ry
     Harris-Foulkes estimate   =    -367.44655704 Ry
     estimated scf accuracy    <       0.06987350 Ry

     iteration #  4     ecut=    50.00 Ry     beta= 0.70
     CG style diagonalization
     ethr =  1.09E-04,  avg # of iterations =  3.0

     total cpu time spent up to now is      528.6 secs

     total energy              =    -367.42103754 Ry
     Harris-Foulkes estimate   =    -367.43047937 Ry
     estimated scf accuracy    <       0.02951622 Ry

     iteration #  5     ecut=    50.00 Ry     beta= 0.70
     CG style diagonalization
     ethr =  4.61E-05,  avg # of iterations =  3.3

     total cpu time spent up to now is      554.2 secs

     total energy              =    -367.42224356 Ry
     Harris-Foulkes estimate   =    -367.42342611 Ry
     estimated scf accuracy    <       0.00476434 Ry

     iteration #  6     ecut=    50.00 Ry     beta= 0.70
     CG style diagonalization
     ethr =  7.44E-06,  avg # of iterations =  3.1

     total cpu time spent up to now is      578.7 secs

     total energy              =    -367.42179796 Ry
     Harris-Foulkes estimate   =    -367.42255493 Ry
     estimated scf accuracy    <       0.00206376 Ry

     iteration #  7     ecut=    50.00 Ry     beta= 0.70
     CG style diagonalization
     ethr =  3.22E-06,  avg # of iterations =  3.6

     total cpu time spent up to now is      606.9 secs

     total energy              =    -367.42210487 Ry
     Harris-Foulkes estimate   =    -367.42211942 Ry
     estimated scf accuracy    <       0.00008389 Ry

     iteration #  8     ecut=    50.00 Ry     beta= 0.70
     CG style diagonalization
     ethr =  1.31E-07,  avg # of iterations =  4.0

     total cpu time spent up to now is      638.0 secs

     total energy              =    -367.42211474 Ry
     Harris-Foulkes estimate   =    -367.42213388 Ry
     estimated scf accuracy    <       0.00007822 Ry

     iteration #  9     ecut=    50.00 Ry     beta= 0.70
     CG style diagonalization
     ethr =  1.22E-07,  avg # of iterations =  3.2

     total cpu time spent up to now is      663.2 secs

     total energy              =    -367.42210916 Ry
     Harris-Foulkes estimate   =    -367.42212039 Ry
     estimated scf accuracy    <       0.00002264 Ry

     iteration # 10     ecut=    50.00 Ry     beta= 0.70
     CG style diagonalization
     ethr =  3.54E-08,  avg # of iterations =  3.8

     total cpu time spent up to now is      692.5 secs

     total energy              =    -367.42211449 Ry
     Harris-Foulkes estimate   =    -367.42211483 Ry
     estimated scf accuracy    <       0.00000057 Ry

     iteration # 11     ecut=    50.00 Ry     beta= 0.70
     CG style diagonalization
     ethr =  8.84E-10,  avg # of iterations =  4.3

     total cpu time spent up to now is      726.0 secs

     total energy              =    -367.42211505 Ry
     Harris-Foulkes estimate   =    -367.42211520 Ry
     estimated scf accuracy    <       0.00000042 Ry

     iteration # 12     ecut=    50.00 Ry     beta= 0.70
     CG style diagonalization
     ethr =  6.58E-10,  avg # of iterations =  3.5

     total cpu time spent up to now is      752.9 secs

     total energy              =    -367.42211506 Ry
     Harris-Foulkes estimate   =    -367.42211510 Ry
     estimated scf accuracy    <       0.00000007 Ry

     iteration # 13     ecut=    50.00 Ry     beta= 0.70
     CG style diagonalization
     ethr =  1.07E-10,  avg # of iterations =  4.0

     total cpu time spent up to now is      783.7 secs

     total energy              =    -367.42211508 Ry
     Harris-Foulkes estimate   =    -367.42211508 Ry
     estimated scf accuracy    <       0.00000001 Ry

     iteration # 14     ecut=    50.00 Ry     beta= 0.70
     CG style diagonalization
     ethr =  1.79E-11,  avg # of iterations =  3.6

     total cpu time spent up to now is      812.0 secs

     End of self-consistent calculation

          k = 0.0000 0.0000 0.0000 (  4909 PWs)   bands (ev):

   -33.4778 -33.4638 -16.7427 -16.7134 -14.9614 -14.9614 -14.5562 -14.5562
   -14.4623 -14.3150 -13.6934 -13.6934 -13.1023 -13.1023  -3.2967  -3.0446
    -1.4791  -1.4139  -1.4139  -1.1375  -1.1375  -0.0914   2.4120   2.4120
     2.8729   2.8729   3.0573   3.0573   3.6762   3.6762   3.7400   4.1913

          k =-0.1398-0.0807 0.0414 (  4880 PWs)   bands (ev):

   -33.4773 -33.4642 -16.7266 -16.7262 -14.9604 -14.9185 -14.5995 -14.5531
   -14.4793 -14.3943 -13.6634 -13.5781 -13.1556 -13.1126  -3.2475  -3.0537
    -1.4346  -1.3928  -1.3684  -1.1599  -1.1294  -0.1513   2.4392   2.4743
     2.8147   2.8574   2.9622   3.0057   3.5778   3.6113   3.8761   4.1955

          k =-0.2796-0.1614 0.0827 (  4913 PWs)   bands (ev):

   -33.4760 -33.4653 -16.7496 -16.6909 -14.9580 -14.8419 -14.7359 -14.5719
   -14.4792 -14.4458 -13.5886 -13.4026 -13.2778 -13.1440  -3.1310  -3.0603
    -1.3768  -1.3341  -1.2310  -1.1688  -1.1222  -0.2895   2.4889   2.5749
     2.7017   2.7201   2.8634   2.8698   3.4309   3.4689   4.0839   4.2063

          k =-0.4194-0.2422 0.1241 (  4912 PWs)   bands (ev):

   -33.4739 -33.4670 -16.7539 -16.6711 -14.9471 -14.8293 -14.8133 -14.6505
   -14.4467 -14.4251 -13.4979 -13.3667 -13.3058 -13.1996  -3.0346  -3.0175
    -1.3873  -1.2813  -1.1329  -1.1280  -0.9937  -0.4357   2.3680   2.4435
     2.6500   2.6800   2.7913   2.9084   3.2820   3.3155   4.2302   4.2512

          k =-0.5593-0.3229 0.1654 (  4891 PWs)   bands (ev):

   -33.4716 -33.4691 -16.7284 -16.6893 -14.8854 -14.8428 -14.8265 -14.7660
   -14.4300 -14.4103 -13.3992 -13.3509 -13.3042 -13.2872  -2.9860  -2.9660
    -1.3830  -1.3247  -1.0938  -1.0818  -0.7701  -0.5825   2.2328   2.2939
     2.6127   2.6461   2.8792   2.9372   3.1899   3.2028   4.2783   4.3104

          k =-0.1398 0.0807 0.0827 (  4898 PWs)   bands (ev):

   -33.4772 -33.4643 -16.7280 -16.7253 -14.9392 -14.9355 -14.5960 -14.5567
   -14.4731 -14.4138 -13.6224 -13.6014 -13.1415 -13.1347  -3.2451  -3.0602
    -1.4172  -1.3858  -1.3749  -1.1647  -1.1269  -0.1634   2.4404   2.4792
     2.8221   2.8235   2.9852   3.0134   3.5516   3.6290   3.8742   4.1891

          k =-0.2796-0.0000 0.1241 (  4898 PWs)   bands (ev):

   -33.4762 -33.4651 -16.7467 -16.6989 -14.9422 -14.8850 -14.6676 -14.5609
   -14.4989 -14.4550 -13.5784 -13.4699 -13.2259 -13.1511  -3.1603  -3.0712
    -1.3731  -1.3377  -1.2832  -1.1741  -1.1151  -0.2686   2.4764   2.5593
     2.7015   2.7968   2.8492   2.9513   3.4257   3.5354   4.0308   4.1937

          k =-0.4194-0.0807 0.1654 (  4893 PWs)   bands (ev):

   -33.4745 -33.4666 -16.7550 -16.6765 -14.9397 -14.8937 -14.7173 -14.6268
   -14.4555 -14.4504 -13.4971 -13.4532 -13.2411 -13.1937  -3.0535  -3.0498
    -1.3663  -1.2791  -1.2162  -1.1082  -1.0340  -0.4010   2.4240   2.5300
     2.6117   2.6946   2.8015   2.9001   3.2780   3.3996   4.2041   4.2223

          k =-0.5593-0.1614 0.2068 (  4893 PWs)   bands (ev):

   -33.4723 -33.4685 -16.7337 -16.6877 -14.9293 -14.8771 -14.7514 -14.7198
   -14.4367 -14.4221 -13.4668 -13.4032 -13.2683 -13.2210  -2.9906  -2.9865
    -1.3649  -1.3138  -1.1420  -1.0863  -0.8245  -0.5263   2.2774   2.3604
     2.5875   2.6299   2.8295   2.9167   3.1906   3.2839   4.2765   4.3013

          k = 0.5593 0.4843-0.1241 (  4881 PWs)   bands (ev):

   -33.4707 -33.4700 -16.7271 -16.6897 -14.9203 -14.8544 -14.8130 -14.7230
   -14.4386 -14.4082 -13.4589 -13.3711 -13.2953 -13.2242  -2.9886  -2.9339
    -1.3859  -1.3174  -1.1098  -1.0651  -0.6823  -0.6402   2.2117   2.2814
     2.5587   2.6245   2.8452   2.9117   3.1987   3.2320   4.2918   4.3426

          k = 0.4194 0.4036-0.0827 (  4894 PWs)   bands (ev):

   -33.4730 -33.4678 -16.7616 -16.6553 -14.9704 -14.8584 -14.8022 -14.6406
   -14.4632 -14.3937 -13.5223 -13.3783 -13.2811 -13.1900  -3.0309  -2.9423
    -1.4109  -1.2532  -1.1340  -1.0814  -0.8891  -0.5024   2.2309   2.4223
     2.5547   2.6612   2.7673   2.9515   3.2181   3.2963   4.2410   4.3395

          k = 0.2796 0.3229-0.0414 (  4899 PWs)   bands (ev):

   -33.4750 -33.4660 -16.7676 -16.6609 -14.9512 -14.8927 -14.7228 -14.5941
   -14.4861 -14.4402 -13.5159 -13.4433 -13.2387 -13.1866  -3.0632  -3.0324
    -1.3883  -1.2674  -1.1911  -1.1030  -1.0962  -0.3764   2.4130   2.5455
     2.6217   2.7198   2.7268   2.9126   3.3101   3.4192   4.2094   4.2236

          k = 0.1398 0.2422 0.0000 (  4919 PWs)   bands (ev):

   -33.4765 -33.4648 -16.7477 -16.6969 -14.9400 -14.8958 -14.6235 -14.5979
   -14.4936 -14.4581 -13.5855 -13.4812 -13.2132 -13.1473  -3.1593  -3.0636
    -1.3895  -1.3334  -1.3060  -1.1843  -1.1088  -0.2419   2.4757   2.5614
     2.6960   2.8341   2.8342   2.9092   3.4584   3.5401   4.0294   4.2036

          k =-0.2796 0.1614 0.1654 (  4908 PWs)   bands (ev):

   -33.4757 -33.4656 -16.7636 -16.6791 -14.9217 -14.9035 -14.6166 -14.5922
   -14.5308 -14.4819 -13.5107 -13.4739 -13.2203 -13.1919  -3.1060  -3.0951
    -1.3430  -1.3169  -1.2869  -1.1273  -1.1011  -0.3301   2.4909   2.4993
     2.7009   2.7257   2.8415   2.9938   3.3219   3.5347   4.0961   4.1768

          k =-0.4194 0.0807 0.2068 (  4885 PWs)   bands (ev):

   -33.4745 -33.4666 -16.7770 -16.6550 -14.9638 -14.8978 -14.6552 -14.5976
   -14.4856 -14.4770 -13.5282 -13.4475 -13.2336 -13.1815  -3.0937  -3.0132
    -1.3674  -1.2742  -1.2263  -1.0864  -1.0077  -0.4284   2.3605   2.4883
     2.6333   2.7241   2.7938   2.9822   3.1895   3.4555   4.1831   4.2353

          k =-0.5593-0.0000 0.2481 (  4880 PWs)   bands (ev):

   -33.4728 -33.4680 -16.7625 -16.6612 -14.9920 -14.8493 -14.7410 -14.6277
   -14.4688 -14.4271 -13.5755 -13.3611 -13.2956 -13.1540  -3.0381  -2.9497
    -1.3630  -1.2859  -1.1876  -1.0737  -0.8301  -0.5116   2.2369   2.4006
     2.5859   2.6424   2.7733   2.9174   3.1662   3.3624   4.2406   4.3383

          k = 0.5593 0.6458-0.0827 (  4878 PWs)   bands (ev):

   -33.4708 -33.4698 -16.7167 -16.7035 -14.9608 -14.8513 -14.7705 -14.6678
   -14.4596 -14.4326 -13.5266 -13.4016 -13.2616 -13.1734  -2.9520  -2.9506
    -1.3607  -1.3130  -1.1619  -1.0590  -0.6673  -0.6032   2.2231   2.2632
     2.5428   2.5828   2.7780   2.8307   3.2217   3.3038   4.3363   4.3464

          k = 0.4194 0.5651-0.0414 (  4881 PWs)   bands (ev):

   -33.4717 -33.4689 -16.7512 -16.6637 -14.9796 -14.8733 -14.8060 -14.5876
   -14.4844 -14.3998 -13.5669 -13.3949 -13.2672 -13.1510  -3.0012  -2.8989
    -1.4132  -1.2349  -1.1619  -1.0620  -0.7521  -0.5558   2.1801   2.3441
     2.4990   2.5889   2.7527   2.8627   3.2672   3.2800   4.2860   4.3979

          k = 0.2796 0.4843 0.0000 (  4895 PWs)   bands (ev):

   -33.4735 -33.4673 -16.7744 -16.6416 -15.0032 -14.8671 -14.7915 -14.5457
   -14.5076 -14.3896 -13.5832 -13.3943 -13.2676 -13.1498  -3.0484  -2.9319
    -1.4146  -1.2206  -1.1516  -1.0865  -0.9393  -0.4732   2.2418   2.5098
     2.5313   2.6181   2.7136   2.9406   3.2443   3.3433   4.2309   4.3552

          k =-0.4194 0.2422 0.2481 (  4882 PWs)   bands (ev):

   -33.4739 -33.4670 -16.8023 -16.6216 -14.9894 -14.9582 -14.5983 -14.5345
   -14.4992 -14.4823 -13.5668 -13.5071 -13.1954 -13.1515  -3.1292  -2.9284
    -1.4138  -1.2501  -1.1595  -1.0706  -0.9282  -0.4981   2.2198   2.4443
     2.5812   2.7859   2.8088   3.0417   3.0711   3.4410   4.1458   4.3209

          k =-0.5593 0.1614 0.2895 (  4872 PWs)   bands (ev):

   -33.4729 -33.4678 -16.8032 -16.6139 -15.0306 -14.9514 -14.6163 -14.5536
   -14.4884 -14.4117 -13.6533 -13.4824 -13.1992 -13.1126  -3.1103  -2.8657
    -1.4218  -1.2522  -1.1322  -1.0567  -0.8089  -0.5489   2.1127   2.3693
     2.5652   2.7650   2.7928   2.8830   3.1571   3.3848   4.1635   4.4052

          k = 0.5593 0.8072-0.0414 (  4882 PWs)   bands (ev):

   -33.4717 -33.4689 -16.7681 -16.6518 -15.0077 -14.8903 -14.6762 -14.6060
   -14.4982 -14.4277 -13.6122 -13.4289 -13.2293 -13.1292  -3.0290  -2.8725
    -1.3700  -1.3090  -1.1567  -1.0498  -0.6848  -0.5717   2.1068   2.2920
     2.5690   2.6590   2.7493   2.7671   3.2329   3.3368   4.2571   4.4223

          k = 0.4194 0.7265 0.0000 (  4882 PWs)   bands (ev):

   -33.4703 -33.4703 -16.7103 -16.7099 -14.9488 -14.9061 -14.7274 -14.6155
   -14.5099 -14.4353 -13.4987 -13.4893 -13.1913 -13.1870  -2.9356  -2.9351
    -1.3776  -1.2763  -1.1891  -1.0503  -0.6359  -0.5982   2.2047   2.2187
     2.5459   2.5666   2.7313   2.7685   3.2646   3.3124   4.3621   4.3668

          k =-0.5593 0.3229 0.3308 (  4883 PWs)   bands (ev):

   -33.4728 -33.4679 -16.8265 -16.5806 -15.0460 -15.0404 -14.5411 -14.5201
   -14.4895 -14.3466 -13.7088 -13.6012 -13.1310 -13.0878  -3.1494  -2.7969
    -1.4655  -1.2259  -1.0763  -1.0446  -0.7715  -0.5955   2.0153   2.3161
     2.5851   2.7986   2.8133   2.8376   3.1919   3.3629   4.1106   4.4633

          k = 0.5593 0.9687 0.0000 (  4874 PWs)   bands (ev):

   -33.4723 -33.4683 -16.8135 -16.5969 -15.0406 -15.0079 -14.5685 -14.5146
   -14.5102 -14.3776 -13.6992 -13.5506 -13.1517 -13.0919  -3.1164  -2.8010
    -1.4445  -1.2513  -1.0960  -1.0423  -0.7236  -0.5894   2.0136   2.2938
     2.5971   2.7343   2.7864   2.7940   3.2298   3.3407   4.1512   4.4719

          k = 0.0000-0.0000 0.1241 (  4878 PWs)   bands (ev):

   -33.4774 -33.4643 -16.7422 -16.7147 -14.9530 -14.9530 -14.5761 -14.5761
   -14.4573 -14.3189 -13.6680 -13.6680 -13.1164 -13.1164  -3.2945  -3.0604
    -1.4319  -1.4055  -1.4055  -1.1458  -1.1458  -0.1300   2.4264   2.4264
     2.8580   2.8580   3.0748   3.0748   3.6537   3.6537   3.7520   4.1736

          k =-0.1398-0.0807 0.1654 (  4900 PWs)   bands (ev):

   -33.4767 -33.4649 -16.7280 -16.7260 -14.9640 -14.8899 -14.6666 -14.5459
   -14.4749 -14.3749 -13.6593 -13.5283 -13.1930 -13.1169  -3.2475  -3.0721
    -1.3962  -1.3845  -1.3203  -1.1642  -1.1480  -0.2073   2.4567   2.4897
     2.7922   2.8456   2.9638   3.0547   3.5524   3.5702   3.8847   4.1724

          k =-0.2796-0.1614 0.2068 (  4910 PWs)   bands (ev):

   -33.4751 -33.4661 -16.7382 -16.7044 -14.9591 -14.8059 -14.7999 -14.5519
   -14.4915 -14.4145 -13.5893 -13.3710 -13.3168 -13.1437  -3.1474  -3.0594
    -1.3526  -1.3324  -1.2136  -1.1480  -1.1094  -0.3417   2.4755   2.6041
     2.6947   2.7132   2.8257   2.9544   3.3859   3.4292   4.0790   4.1981

          k =-0.4194-0.2422 0.2481 (  4884 PWs)   bands (ev):

   -33.4730 -33.4679 -16.7260 -16.7032 -14.9255 -14.8736 -14.7774 -14.6582
   -14.4505 -14.4172 -13.4909 -13.3793 -13.3121 -13.1930  -3.0602  -3.0001
    -1.3414  -1.3235  -1.1648  -1.1220  -0.9074  -0.4752   2.3799   2.4277
     2.6318   2.6690   2.8388   2.9306   3.2273   3.2908   4.2183   4.2552

          k = 0.6991 0.4036-0.0827 (  4875 PWs)   bands (ev):

   -33.4707 -33.4700 -16.7326 -16.6868 -14.9213 -14.8538 -14.7977 -14.7312
   -14.4457 -14.3980 -13.4355 -13.3909 -13.2975 -13.2293  -3.0278  -2.9256
    -1.3905  -1.3106  -1.1269  -1.0599  -0.7128  -0.6216   2.2108   2.3028
     2.5780   2.6814   2.8529   2.9985   3.1244   3.2203   4.2547   4.3320

          k = 0.5593 0.3229-0.0414 (  4869 PWs)   bands (ev):

   -33.4723 -33.4684 -16.7667 -16.6472 -14.9565 -14.9061 -14.7553 -14.6792
   -14.4629 -14.3777 -13.5065 -13.3840 -13.2731 -13.2048  -3.0447  -2.9047
    -1.4319  -1.2457  -1.1317  -1.0487  -0.8177  -0.5594   2.1543   2.3639
     2.5464   2.7182   2.7939   3.0332   3.1264   3.2622   4.2240   4.3645

          k = 0.4194 0.2422 0.0000 (  4890 PWs)   bands (ev):

   -33.4744 -33.4665 -16.7775 -16.6444 -14.9709 -14.8810 -14.7523 -14.6002
   -14.4799 -14.4208 -13.5407 -13.3601 -13.3056 -13.1734  -3.0703  -2.9778
    -1.4087  -1.2566  -1.1216  -1.1148  -1.0345  -0.4288   2.3025   2.4916
     2.6233   2.7068   2.7359   2.9771   3.2330   3.3852   4.2012   4.2813

          k = 0.2796 0.1614 0.0414 (  4909 PWs)   bands (ev):

   -33.4761 -33.4651 -16.7584 -16.6822 -14.9395 -14.8832 -14.6634 -14.5851
   -14.4864 -14.4851 -13.5605 -13.4382 -13.2441 -13.1602  -3.1164  -3.0727
    -1.3648  -1.3296  -1.2785  -1.1616  -1.1046  -0.2861   2.4952   2.5322
     2.7136   2.7178   2.8263   2.9291   3.3938   3.5213   4.0892   4.1990

          k =-0.1398 0.0807 0.2068 (  4912 PWs)   bands (ev):

   -33.4763 -33.4652 -16.7299 -16.7253 -14.9396 -14.9015 -14.6601 -14.5666
   -14.4589 -14.4106 -13.5929 -13.5488 -13.1820 -13.1514  -3.2404  -3.0893
    -1.3798  -1.3646  -1.3082  -1.1760  -1.1408  -0.2425   2.4619   2.5037
     2.7753   2.8094   3.0011   3.0816   3.4917   3.6023   3.8844   4.1550

          k =-0.2796-0.0000 0.2481 (  4900 PWs)   bands (ev):

   -33.4752 -33.4662 -16.7436 -16.7047 -14.9418 -14.8630 -14.7175 -14.5357
   -14.5161 -14.4372 -13.5572 -13.4416 -13.2564 -13.1656  -3.1620  -3.0910
    -1.3431  -1.3272  -1.2552  -1.1372  -1.1122  -0.3478   2.4812   2.5577
     2.7024   2.7518   2.8818   3.0305   3.3490   3.5061   4.0361   4.1674

          k =-0.4194-0.0807 0.2895 (  4894 PWs)   bands (ev):

   -33.4734 -33.4676 -16.7386 -16.6977 -14.9176 -14.9106 -14.7137 -14.6154
   -14.4829 -14.4351 -13.4985 -13.4406 -13.2599 -13.1895  -3.0751  -3.0413
    -1.3295  -1.2891  -1.2413  -1.1176  -0.9341  -0.4609   2.4116   2.4833
     2.6595   2.6829   2.8036   2.9734   3.2038   3.3716   4.1899   4.2232

          k = 0.6991 0.5651-0.0414 (  4882 PWs)   bands (ev):

   -33.4714 -33.4693 -16.7226 -16.7030 -14.9447 -14.8516 -14.7754 -14.6717
   -14.4573 -14.4239 -13.5047 -13.3627 -13.3142 -13.1853  -3.0315  -2.9498
    -1.3686  -1.2928  -1.1801  -1.0734  -0.7496  -0.5688   2.2613   2.3322
     2.5834   2.6656   2.8119   2.9558   3.1503   3.2717   4.2599   4.3139

          k = 0.5593 0.4843 0.0000 (  4883 PWs)   bands (ev):

   -33.4713 -33.4693 -16.7616 -16.6537 -14.9729 -14.8959 -14.7722 -14.6293
   -14.4716 -14.3869 -13.5495 -13.3876 -13.2783 -13.1641  -3.0395  -2.8818
    -1.4291  -1.2316  -1.1612  -1.0437  -0.7164  -0.6069   2.1372   2.3266
     2.5136   2.6908   2.7951   2.9439   3.1807   3.2573   4.2419   4.3915

          k = 0.4194 0.4036 0.0414 (  4890 PWs)   bands (ev):

   -33.4733 -33.4674 -16.7839 -16.6299 -15.0092 -14.8925 -14.7615 -14.5648
   -14.4950 -14.3799 -13.5986 -13.3670 -13.2929 -13.1417  -3.0670  -2.9043
    -1.4311  -1.2166  -1.1357  -1.0757  -0.9071  -0.5004   2.1769   2.4671
     2.5045   2.6998   2.7426   2.9853   3.1860   3.3388   4.2065   4.3726

          k = 0.2796 0.3229 0.0827 (  4892 PWs)   bands (ev):

   -33.4750 -33.4660 -16.7753 -16.6534 -14.9550 -14.9035 -14.6985 -14.5710
   -14.5038 -14.4530 -13.5277 -13.4396 -13.2405 -13.1788  -3.0782  -3.0189
    -1.3848  -1.2644  -1.2116  -1.0908  -1.0788  -0.3863   2.3857   2.5271
     2.6533   2.6748   2.7598   2.9462   3.2689   3.4482   4.1986   4.2310

          k =-0.2796 0.1614 0.2895 (  4901 PWs)   bands (ev):

   -33.4746 -33.4667 -16.7643 -16.6817 -14.9500 -14.8538 -14.6734 -14.5776
   -14.5274 -14.4593 -13.5046 -13.4509 -13.2363 -13.2068  -3.1222  -3.0992
    -1.3507  -1.2973  -1.2442  -1.1147  -1.0474  -0.4177   2.4797   2.4859
     2.6990   2.7213   2.8817   3.0652   3.2277   3.5055   4.1064   4.1464

          k =-0.4194 0.0807 0.3308 (  4890 PWs)   bands (ev):

   -33.4734 -33.4676 -16.7722 -16.6647 -14.9722 -14.8770 -14.6444 -14.5995
   -14.5191 -14.4551 -13.5237 -13.4550 -13.2236 -13.1936  -3.1060  -3.0145
    -1.3589  -1.2771  -1.2131  -1.0987  -0.9093  -0.4994   2.3474   2.4479
     2.6467   2.7556   2.8227   3.0036   3.1249   3.4257   4.1700   4.2353

          k = 0.6991 0.7265 0.0000 (  4881 PWs)   bands (ev):

   -33.4719 -33.4688 -16.7479 -16.6820 -14.9707 -14.8594 -14.6894 -14.6403
   -14.4845 -14.4647 -13.5482 -13.3911 -13.2700 -13.1677  -3.0255  -2.9683
    -1.3289  -1.3150  -1.1979  -1.0773  -0.7504  -0.5549   2.2402   2.3375
     2.6172   2.6815   2.7841   2.8786   3.1603   3.3370   4.2548   4.3197

          k = 0.5593 0.6458 0.0414 (  4880 PWs)   bands (ev):

   -33.4703 -33.4703 -16.7257 -16.6971 -14.9542 -14.8726 -14.7585 -14.6074
   -14.4959 -14.4491 -13.5332 -13.4146 -13.2530 -13.1644  -2.9794  -2.9240
    -1.3856  -1.2615  -1.1916  -1.0593  -0.6312  -0.6202   2.1969   2.2405
     2.5514   2.6342   2.7593   2.8137   3.2271   3.2941   4.3180   4.3648

          k = 0.4194 0.5651 0.0827 (  4885 PWs)   bands (ev):

   -33.4719 -33.4687 -16.7629 -16.6520 -15.0010 -14.8695 -14.7963 -14.5418
   -14.5082 -14.4001 -13.6074 -13.3743 -13.2834 -13.1289  -3.0188  -2.8809
    -1.4186  -1.2271  -1.1541  -1.0714  -0.7509  -0.5500   2.1465   2.3442
     2.4988   2.6208   2.7405   2.8558   3.2521   3.3040   4.2676   4.4154

          k = 0.2796 0.4843 0.1241 (  4889 PWs)   bands (ev):

   -33.4733 -33.4675 -16.7714 -16.6467 -15.0012 -14.8599 -14.7782 -14.5836
   -14.4822 -14.3995 -13.5835 -13.3804 -13.2790 -13.1499  -3.0458  -2.9366
    -1.4000  -1.2460  -1.1568  -1.0869  -0.9033  -0.4832   2.2397   2.4657
     2.5597   2.6190   2.7374   2.9348   3.2137   3.3566   4.2331   4.3508

          k =-0.4194 0.2422 0.3722 (  4873 PWs)   bands (ev):

   -33.4730 -33.4679 -16.8001 -16.6279 -15.0154 -14.9266 -14.5737 -14.5570
   -14.5346 -14.4348 -13.5656 -13.5403 -13.1696 -13.1609  -3.1437  -2.9230
    -1.4168  -1.2452  -1.1426  -1.0827  -0.8422  -0.5609   2.2127   2.4015
     2.6342   2.8123   2.8189   2.9477   3.1040   3.4116   4.1344   4.3244

          k = 0.6991 0.8879 0.0414 (  4870 PWs)   bands (ev):

   -33.4723 -33.4685 -16.7973 -16.6245 -15.0157 -14.9542 -14.5918 -14.5398
   -14.5078 -14.4443 -13.6119 -13.5260 -13.1689 -13.1345  -3.1117  -2.8687
    -1.4189  -1.2557  -1.1232  -1.0718  -0.7455  -0.5854   2.1168   2.3341
     2.6214   2.7697   2.7915   2.8334   3.1671   3.3571   4.1674   4.3993

          k = 0.5593 0.8072 0.0827 (  4875 PWs)   bands (ev):

   -33.4713 -33.4693 -16.7601 -16.6626 -14.9827 -14.9076 -14.6489 -14.6061
   -14.5099 -14.4603 -13.5734 -13.4574 -13.2081 -13.1486  -3.0203  -2.8824
    -1.3693  -1.3106  -1.1444  -1.0680  -0.6579  -0.5840   2.1166   2.2660
     2.6010   2.6626   2.7337   2.7592   3.2409   3.3161   4.2694   4.4109

          k = 0.4194 0.7265 0.1241 (  4891 PWs)   bands (ev):

   -33.4703 -33.4703 -16.7102 -16.7100 -14.9401 -14.9193 -14.7021 -14.6495
   -14.4833 -14.4487 -13.4963 -13.4917 -13.1902 -13.1880  -2.9355  -2.9352
    -1.3612  -1.3166  -1.1404  -1.0772  -0.6255  -0.6067   2.2081   2.2151
     2.5514   2.5618   2.7396   2.7582   3.2773   3.3012   4.3633   4.3656

          k = 0.2796 0.6458 0.1654 (  4876 PWs)   bands (ev):

   -33.4713 -33.4693 -16.7353 -16.6818 -14.9638 -14.8764 -14.7701 -14.6594
   -14.4546 -14.4161 -13.5308 -13.4126 -13.2510 -13.1739  -2.9776  -2.9237
    -1.3765  -1.3073  -1.1123  -1.0890  -0.7156  -0.5764   2.2081   2.3131
     2.5318   2.5587   2.7740   2.8433   3.2482   3.2915   4.3093   4.3739

          k = 0.6991-0.4036-0.2895 (  4878 PWs)   bands (ev):

   -33.4724 -33.4683 -16.8210 -16.5891 -15.0482 -15.0214 -14.5409 -14.5236
   -14.5103 -14.3480 -13.6766 -13.6141 -13.1237 -13.1027  -3.1469  -2.8015
    -1.4650  -1.2226  -1.0669  -1.0657  -0.7386  -0.6138   2.0261   2.3070
     2.6128   2.7466   2.8341   2.8478   3.1905   3.3379   4.1191   4.4558

          k = 0.5593-0.4843-0.2481 (  4875 PWs)   bands (ev):

   -33.4722 -33.4684 -16.8073 -16.6039 -15.0328 -14.9953 -14.6082 -14.5189
   -14.5034 -14.3791 -13.6808 -13.5267 -13.1682 -13.0986  -3.1071  -2.8108
    -1.4473  -1.2397  -1.0846  -1.0680  -0.7262  -0.5880   2.0290   2.3048
     2.5611   2.7526   2.7860   2.8175   3.2229   3.3238   4.1636   4.4618

          k = 0.4194-0.5651-0.2068 (  4876 PWs)   bands (ev):

   -33.4719 -33.4687 -16.7689 -16.6479 -15.0129 -14.8792 -14.7410 -14.5762
   -14.4849 -14.4121 -13.6260 -13.3928 -13.2628 -13.1209  -3.0284  -2.8718
    -1.3973  -1.2789  -1.1233  -1.0796  -0.7197  -0.5581   2.1187   2.3215
     2.5272   2.6449   2.7408   2.8178   3.2398   3.3283   4.2569   4.4239

          k = 0.5593-0.3229-0.2068 (  4891 PWs)   bands (ev):

   -33.4729 -33.4678 -16.8185 -16.5884 -15.0361 -15.0206 -14.5881 -14.5199
   -14.5135 -14.3444 -13.6823 -13.5478 -13.1595 -13.1006  -3.1314  -2.8143
    -1.4646  -1.2137  -1.0748  -1.0666  -0.8055  -0.5734   2.0358   2.3551
     2.5257   2.7845   2.8185   2.9116   3.1694   3.3504   4.1302   4.4478

          k = 0.4194-0.4036-0.1654 (  4878 PWs)   bands (ev):

   -33.4733 -33.4675 -16.7984 -16.6155 -15.0296 -14.9301 -14.6901 -14.5320
   -14.5033 -14.3865 -13.6480 -13.4242 -13.2439 -13.1150  -3.0946  -2.8778
    -1.4300  -1.2332  -1.1203  -1.0768  -0.8684  -0.5183   2.1342   2.4279
     2.5161   2.7307   2.7691   2.9611   3.1587   3.3752   4.1782   4.3958

          k = 0.4194-0.2422-0.1241 (  4897 PWs)   bands (ev):

   -33.4744 -33.4665 -16.7943 -16.6272 -14.9745 -14.9432 -14.6713 -14.5404
   -14.5111 -14.4454 -13.5672 -13.4335 -13.2450 -13.1536  -3.1033  -2.9470
    -1.4127  -1.2511  -1.1506  -1.0873  -0.9963  -0.4517   2.2505   2.5085
     2.5502   2.7379   2.7813   3.0321   3.1474   3.4301   4.1705   4.3056

          k = 0.0000-0.0000 0.2481 (  4896 PWs)   bands (ev):

   -33.4762 -33.4655 -16.7407 -16.7184 -14.9280 -14.9280 -14.6280 -14.6280
   -14.4430 -14.3303 -13.6002 -13.6002 -13.1578 -13.1578  -3.2865  -3.1012
    -1.3813  -1.3813  -1.2997  -1.1699  -1.1699  -0.2422   2.4677   2.4677
     2.8176   2.8176   3.1229   3.1229   3.5904   3.5904   3.7863   4.1249

          k =-0.1398-0.0807 0.2895 (  4910 PWs)   bands (ev):

   -33.4753 -33.4663 -16.7301 -16.7260 -14.9497 -14.8507 -14.7378 -14.5803
   -14.4564 -14.3676 -13.6107 -13.4606 -13.2507 -13.1470  -3.2431  -3.1076
    -1.3624  -1.3490  -1.2215  -1.1800  -1.1540  -0.3271   2.4908   2.5249
     2.7585   2.7866   3.0199   3.1285   3.4621   3.5274   3.9032   4.1267

          k =-0.2796-0.1614 0.3308 (  4892 PWs)   bands (ev):

   -33.4737 -33.4675 -16.7255 -16.7204 -14.9502 -14.8427 -14.7787 -14.5291
   -14.5196 -14.3965 -13.5687 -13.3506 -13.3471 -13.1569  -3.1611  -3.0667
    -1.3302  -1.3034  -1.2214  -1.1740  -0.9932  -0.4413   2.4639   2.5931
     2.6930   2.7060   2.8356   3.0714   3.2826   3.3925   4.0760   4.1798

          k = 0.8389 0.4843 0.0000 (  4875 PWs)   bands (ev):

   -33.4718 -33.4691 -16.7362 -16.6965 -14.9665 -14.8227 -14.8021 -14.6061
   -14.4849 -14.3969 -13.5408 -13.3669 -13.3236 -13.1638  -3.0992  -2.9698
    -1.3658  -1.2751  -1.1926  -1.1119  -0.8121  -0.5453   2.3160   2.4416
     2.6337   2.7064   2.7830   3.0687   3.1254   3.2707   4.1855   4.2781

          k = 0.6991 0.4036 0.0414 (  4882 PWs)   bands (ev):

   -33.4709 -33.4698 -16.7716 -16.6465 -14.9839 -14.9246 -14.7008 -14.6441
   -14.4778 -14.3712 -13.5171 -13.4977 -13.2108 -13.1742  -3.0826  -2.8705
    -1.4349  -1.2226  -1.1698  -1.0428  -0.6659  -0.6646   2.1309   2.3369
     2.5441   2.7494   2.7984   3.0250   3.1113   3.2379   4.2002   4.3834

          k = 0.5593 0.3229 0.0827 (  4880 PWs)   bands (ev):

   -33.4727 -33.4680 -16.7978 -16.6118 -15.0078 -14.9730 -14.6662 -14.5917
   -14.4921 -14.3539 -13.6073 -13.4700 -13.2078 -13.1403  -3.0951  -2.8519
    -1.4569  -1.1966  -1.1336  -1.0468  -0.8291  -0.5575   2.0846   2.3934
     2.4996   2.7685   2.7783   3.0288   3.1159   3.3119   4.1719   4.4126

          k =-0.1398 0.0807 0.3308 (  4913 PWs)   bands (ev):

   -33.4747 -33.4668 -16.7319 -16.7258 -14.9296 -14.8495 -14.7325 -14.6161
   -14.4376 -14.3977 -13.5531 -13.4590 -13.2508 -13.1840  -3.2308  -3.1308
    -1.3522  -1.3326  -1.2282  -1.1692  -1.1208  -0.3819   2.5034   2.5448
     2.7216   2.7695   3.0544   3.1627   3.4039   3.5361   3.9120   4.1024

[...]
    -1.4556  -1.4501  -1.3633  -1.2208  -0.9698  -0.8079   2.1736   2.2717
     2.5421   2.5977   2.7142   2.8098   3.0888   3.2594   4.2734   4.3338

          k = 0.5593 0.6458 0.0410 (  5087 PWs)   bands (ev):

   -33.6768 -33.6768 -17.0691 -17.0458 -15.1131 -15.0367 -14.9375 -14.8023
   -14.6958 -14.6581 -13.7573 -13.6484 -13.5020 -13.4197  -2.9641  -2.9105
    -1.5209  -1.3935  -1.3516  -1.2058  -0.8737  -0.8574   2.1275   2.1756
     2.4755   2.5523   2.6899   2.7493   3.1525   3.2187   4.3337   4.3801

          k = 0.4194 0.5651 0.0820 (  5093 PWs)   bands (ev):

   -33.6782 -33.6754 -17.1014 -17.0082 -15.1572 -15.0332 -14.9695 -14.7394
   -14.7019 -14.6214 -13.8268 -13.6122 -13.5288 -13.3857  -2.9977  -2.8733
    -1.5529  -1.3727  -1.2949  -1.2192  -0.9832  -0.7994   2.0768   2.2785
     2.4220   2.5396   2.6754   2.7863   3.1727   3.2283   4.2868   4.4283

          k = 0.2796 0.4843 0.1229 (  5098 PWs)   bands (ev):

   -33.6795 -33.6742 -17.1103 -17.0031 -15.1566 -15.0272 -14.9504 -14.7716
   -14.6818 -14.6201 -13.8060 -13.6187 -13.5246 -13.4053  -3.0245  -2.9355
    -1.5374  -1.3829  -1.3054  -1.2264  -1.1153  -0.7455   2.1687   2.3955
     2.4832   2.5407   2.6730   2.8597   3.1355   3.2783   4.2533   4.3635

          k =-0.4194 0.2422 0.3688 (  5102 PWs)   bands (ev):

   -33.6792 -33.6746 -17.1335 -16.9883 -15.1697 -15.0902 -14.7691 -14.7470
   -14.7307 -14.6440 -13.7852 -13.7660 -13.4260 -13.4172  -3.1246  -2.9264
    -1.5361  -1.3821  -1.3150  -1.2242  -1.0496  -0.8165   2.1469   2.3432
     2.5533   2.7259   2.7518   2.8750   3.0342   3.3265   4.1569   4.3396

          k = 0.6991 0.8879 0.0410 (  5109 PWs)   bands (ev):

   -33.6786 -33.6751 -17.1301 -16.9859 -15.1696 -15.1161 -14.7827 -14.7332
   -14.7020 -14.6607 -13.8284 -13.7505 -13.4251 -13.3924  -3.0908  -2.8674
    -1.5396  -1.3987  -1.2939  -1.2153  -0.9645  -0.8339   2.0513   2.2761
     2.5389   2.6987   2.7138   2.7611   3.0970   3.2751   4.1896   4.4128

          k = 0.5593 0.8072 0.0820 (  5097 PWs)   bands (ev):

   -33.6777 -33.6759 -17.0981 -17.0168 -15.1380 -15.0738 -14.8361 -14.8042
   -14.7046 -14.6668 -13.7933 -13.6871 -13.4619 -13.4052  -3.0006  -2.8734
    -1.4968  -1.4534  -1.3093  -1.2126  -0.8885  -0.8296   2.0515   2.2041
     2.5168   2.5832   2.6688   2.6935   3.1670   3.2380   4.2879   4.4239

          k = 0.4194 0.7265 0.1229 (  5099 PWs)   bands (ev):

   -33.6768 -33.6768 -17.0563 -17.0562 -15.0991 -15.0820 -14.8842 -14.8416
   -14.6845 -14.6570 -13.7240 -13.7205 -13.4428 -13.4411  -2.9198  -2.9195
    -1.5008  -1.4548  -1.2916  -1.2229  -0.8689  -0.8461   2.1419   2.1477
     2.4722   2.4810   2.6759   2.6943   3.2012   3.2230   4.3785   4.3803

          k = 0.2796 0.6458 0.1639 (  5108 PWs)   bands (ev):

   -33.6777 -33.6759 -17.0783 -17.0328 -15.1218 -15.0413 -14.9445 -14.8414
   -14.6621 -14.6331 -13.7568 -13.6489 -13.4977 -13.4270  -2.9594  -2.9131
    -1.5146  -1.4471  -1.2574  -1.2324  -0.9493  -0.8259   2.1365   2.2406
     2.4572   2.4817   2.7098   2.7743   3.1701   3.2145   4.3270   4.3880

          k = 0.6991-0.4036-0.2869 (  5098 PWs)   bands (ev):

   -33.6786 -33.6750 -17.1500 -16.9580 -15.2007 -15.1749 -14.7353 -14.7142
   -14.7053 -14.5801 -13.8876 -13.8285 -13.3826 -13.3627  -3.1232  -2.8016
    -1.5832  -1.3701  -1.2419  -1.2096  -0.9559  -0.8600   1.9607   2.2527
     2.5287   2.6833   2.7455   2.7776   3.1181   3.2555   4.1451   4.4689

          k = 0.5593-0.4843-0.2459 (  5087 PWs)   bands (ev):

   -33.6785 -33.6751 -17.1383 -16.9695 -15.1855 -15.1524 -14.7957 -14.7138
   -14.6973 -14.6072 -13.8909 -13.7499 -13.4241 -13.3586  -3.0834  -2.8082
    -1.5688  -1.3881  -1.2552  -1.2106  -0.9475  -0.8350   1.9634   2.2481
     2.4821   2.6786   2.7017   2.7530   3.1459   3.2450   4.1879   4.4743

          k = 0.4194-0.5651-0.2049 (  5106 PWs)   bands (ev):

   -33.6782 -33.6754 -17.1062 -17.0048 -15.1671 -15.0452 -14.9206 -14.7666
   -14.6839 -14.6306 -13.8422 -13.6282 -13.5117 -13.3787  -3.0070  -2.8646
    -1.5280  -1.4230  -1.2823  -1.2214  -0.9462  -0.8087   2.0516   2.2583
     2.4489   2.5628   2.6747   2.7507   3.1613   3.2508   4.2766   4.4364

          k = 0.5593-0.3229-0.2049 (  5089 PWs)   bands (ev):

   -33.6791 -33.6745 -17.1486 -16.9571 -15.1880 -15.1747 -14.7771 -14.7102
   -14.7095 -14.5762 -13.8934 -13.7688 -13.4157 -13.3605  -3.1066  -2.8154
    -1.5852  -1.3600  -1.2442  -1.2135  -1.0137  -0.8263   1.9698   2.2973
     2.4501   2.7099   2.7309   2.8440   3.0901   3.2712   4.1567   4.4607

          k = 0.4194-0.4036-0.1639 (  5100 PWs)   bands (ev):

   -33.6795 -33.6742 -17.1324 -16.9781 -15.1825 -15.0916 -14.8711 -14.7269
   -14.6963 -14.6099 -13.8634 -13.6567 -13.4943 -13.3737  -3.0713  -2.8786
    -1.5565  -1.3753  -1.2856  -1.2179  -1.0736  -0.7774   2.0668   2.3660
     2.4394   2.6545   2.6912   2.8883   3.0803   3.2955   4.2012   4.4086

          k = 0.4194-0.2422-0.1229 (  5088 PWs)   bands (ev):

   -33.6805 -33.6734 -17.1304 -16.9866 -15.1327 -15.1022 -14.8548 -14.7321
   -14.7098 -14.6558 -13.7909 -13.6653 -13.4958 -13.4107  -3.0813  -2.9521
    -1.5418  -1.3853  -1.3318  -1.2238  -1.1745  -0.7200   2.1821   2.4408
     2.4789   2.6679   2.6956   2.9545   3.0719   3.3476   4.1926   4.3197

          k = 0.0000-0.0000 0.2459 (  5121 PWs)   bands (ev):

   -33.6821 -33.6724 -17.0792 -17.0716 -15.0874 -15.0874 -14.8135 -14.8135
   -14.6418 -14.5590 -13.8177 -13.8177 -13.4161 -13.4161  -3.2970  -3.0971
    -1.5142  -1.4988  -1.4988  -1.2996  -1.2996  -0.5330   2.4123   2.4123
     2.7390   2.7390   3.0372   3.0372   3.4987   3.4987   3.8239   4.1460

          k =-0.1398-0.0807 0.2869 (  5105 PWs)   bands (ev):

   -33.6813 -33.6731 -17.0766 -17.0709 -15.1086 -15.0152 -14.9144 -14.7706
   -14.6548 -14.5906 -13.8283 -13.6906 -13.5023 -13.4053  -3.2516  -3.1025
    -1.4969  -1.4810  -1.3921  -1.3099  -1.3066  -0.6094   2.4339   2.4634
     2.6832   2.7070   2.9385   3.0450   3.3761   3.4448   3.9267   4.1480

          k =-0.2796-0.1614 0.3279 (  5095 PWs)   bands (ev):

   -33.6799 -33.6742 -17.0740 -17.0635 -15.1111 -15.0101 -14.9473 -14.7277
   -14.7125 -14.6156 -13.7916 -13.5936 -13.5861 -13.4134  -3.1636  -3.0584
    -1.4620  -1.4517  -1.3508  -1.3088  -1.1937  -0.7108   2.4013   2.5229
     2.6103   2.6329   2.7648   2.9923   3.2049   3.3150   4.0925   4.2004

          k = 0.8389 0.4843 0.0000 (  5108 PWs)   bands (ev):

   -33.6782 -33.6757 -17.0773 -17.0479 -15.1261 -14.9914 -14.9689 -14.7939
   -14.6882 -14.6175 -13.7653 -13.6040 -13.5672 -13.4190  -3.0918  -2.9602
    -1.4910  -1.4258  -1.3346  -1.2540  -1.0280  -0.8019   2.2461   2.3697
     2.5537   2.6306   2.7147   2.9939   3.0534   3.1980   4.2017   4.2974

          k = 0.6991 0.4036 0.0410 (  5118 PWs)   bands (ev):

   -33.6773 -33.6763 -17.1079 -17.0053 -15.1412 -15.0840 -14.8768 -14.8277
   -14.6819 -14.5984 -13.7419 -13.7243 -13.4622 -13.4287  -3.0650  -2.8635
    -1.5615  -1.3693  -1.3154  -1.1922  -0.9088  -0.8981   2.0599   2.2675
     2.4714   2.6667   2.7264   2.9548   3.0357   3.1672   4.2197   4.4001

          k = 0.5593 0.3229 0.0820 (  5085 PWs)   bands (ev):

   -33.6790 -33.6747 -17.1314 -16.9759 -15.1614 -15.1304 -14.8482 -14.7740
   -14.6937 -14.5838 -13.8257 -13.6985 -13.4601 -13.3969  -3.0720  -2.8509
    -1.5837  -1.3427  -1.2710  -1.2072  -1.0479  -0.8097   2.0158   2.3233
     2.4300   2.6925   2.6988   2.9565   3.0360   3.2369   4.1953   4.4268

          k =-0.1398 0.0807 0.3279 (  5099 PWs)   bands (ev):

   -33.6808 -33.6736 -17.0807 -17.0678 -15.0896 -15.0147 -14.9109 -14.8015
   -14.6393 -14.6163 -13.7763 -13.6892 -13.5021 -13.4399  -3.2391  -3.1265
    -1.4824  -1.4542  -1.3811  -1.3084  -1.3004  -0.6594   2.4435   2.4850
     2.6468   2.6908   2.9754   3.0777   3.3216   3.4462   3.9394   4.1246

          k =-0.2796-0.0000 0.3688 (  5089 PWs)   bands (ev):

   -33.6798 -33.6745 -17.0843 -17.0577 -15.0928 -15.0230 -14.9111 -14.7777
   -14.6803 -14.6348 -13.7489 -13.6523 -13.5301 -13.4479  -3.1658  -3.1090
    -1.4509  -1.4335  -1.3854  -1.2973  -1.1919  -0.7415   2.4335   2.4927
     2.6066   2.6418   2.8689   3.0394   3.1800   3.3603   4.0685   4.1539

          k = 0.8389 0.6458 0.0410 (  5106 PWs)   bands (ev):

   -33.6784 -33.6756 -17.0668 -17.0648 -15.0962 -15.0539 -14.8886 -14.7749
   -14.7109 -14.6482 -13.7398 -13.6558 -13.5207 -13.4398  -3.0913  -3.0246
    -1.4582  -1.3971  -1.3939  -1.2723  -1.0380  -0.8086   2.3192   2.3800
     2.6138   2.6190   2.7325   2.9533   3.0976   3.2419   4.1927   4.2435

          k = 0.6991 0.5651 0.0820 (  5099 PWs)   bands (ev):

   -33.6769 -33.6768 -17.0934 -17.0263 -15.1303 -15.0515 -14.9026 -14.7850
   -14.6910 -14.6472 -13.7617 -13.6768 -13.4935 -13.4176  -3.0559  -2.9050
    -1.5289  -1.3653  -1.3537  -1.2261  -0.9112  -0.8681   2.1289   2.2649
     2.5249   2.6384   2.7018   2.8654   3.1114   3.1780   4.2386   4.3657

          k = 0.5593 0.4843 0.1229 (  5094 PWs)   bands (ev):

   -33.6782 -33.6754 -17.1233 -16.9858 -15.1655 -15.1152 -14.8672 -14.7382
   -14.6995 -14.6059 -13.8437 -13.6941 -13.4654 -13.3798  -3.0586  -2.8343
    -1.5735  -1.3571  -1.2833  -1.2129  -0.9583  -0.8343   2.0044   2.2643
     2.4423   2.6581   2.7014   2.8288   3.1240   3.2130   4.2185   4.4471

          k =-0.2796 0.1614 0.4098 (  5096 PWs)   bands (ev):

   -33.6792 -33.6749 -17.1009 -17.0384 -15.1212 -14.9714 -14.9204 -14.7946
   -14.6924 -14.6368 -13.7497 -13.6302 -13.5365 -13.4538  -3.1374  -3.0984
    -1.4759  -1.4028  -1.3655  -1.2831  -1.1265  -0.8022   2.4032   2.4318
     2.6167   2.6366   2.8699   3.0530   3.0653   3.3510   4.1371   4.1410

          k = 0.8389 0.8072 0.0820 (  5101 PWs)   bands (ev):

   -33.6784 -33.6756 -17.1001 -17.0317 -15.1274 -15.0308 -14.8562 -14.7818
   -14.7103 -14.6609 -13.7467 -13.6793 -13.4866 -13.4486  -3.0995  -3.0196
    -1.4816  -1.4049  -1.3389  -1.2739  -1.0147  -0.8440   2.2819   2.3637
     2.5926   2.6651   2.8002   2.8801   3.0868   3.2776   4.1836   4.2490

          k = 0.6991 0.7265 0.1229 (  5099 PWs)   bands (ev):

   -33.6773 -33.6764 -17.0719 -17.0522 -15.0963 -15.0595 -14.8352 -14.8206
   -14.7062 -14.7009 -13.7278 -13.6764 -13.4813 -13.4475  -2.9958  -2.9798
    -1.4610  -1.4555  -1.3180  -1.2588  -0.9059  -0.8525   2.1906   2.2230
     2.5847   2.6143   2.7173   2.7541   3.1394   3.2063   4.2917   4.3129

          k = 0.5593 0.6458 0.1639 (  5101 PWs)   bands (ev):

   -33.6773 -33.6763 -17.0857 -17.0300 -15.1084 -15.0798 -14.8845 -14.7762
   -14.7023 -14.6835 -13.7644 -13.6827 -13.4723 -13.4162  -2.9855  -2.8892
    -1.5168  -1.4296  -1.2783  -1.2518  -0.8772  -0.8390   2.0821   2.1858
     2.5020   2.5814   2.6715   2.7146   3.1830   3.2038   4.3081   4.4048

          k = 0.8389-0.4843-0.2459 (  5093 PWs)   bands (ev):

   -33.6782 -33.6757 -17.1220 -17.0027 -15.1742 -15.0518 -14.8445 -14.7448
   -14.7129 -14.6203 -13.8110 -13.7212 -13.4603 -13.4011  -3.1279  -2.9295
    -1.5351  -1.3723  -1.2791  -1.2742  -0.9701  -0.8780   2.1617   2.3333
     2.5946   2.7070   2.7258   2.8731   3.0721   3.2610   4.1596   4.3328

          k = 0.6991-0.5651-0.2049 (  5104 PWs)   bands (ev):

   -33.6778 -33.6759 -17.1155 -17.0032 -15.1507 -15.0951 -14.8324 -14.7292
   -14.7057 -14.6697 -13.7690 -13.7596 -13.4341 -13.4129  -3.0800  -2.8810
    -1.5404  -1.3876  -1.2745  -1.2575  -0.9155  -0.8664   2.0798   2.2640
     2.5570   2.6641   2.6957   2.8024   3.1208   3.2154   4.2082   4.3942

          k = 0.6991-0.4036-0.1639 (  5097 PWs)   bands (ev):

   -33.6780 -33.6756 -17.1337 -16.9771 -15.1811 -15.1378 -14.7876 -14.7647
   -14.6991 -14.5846 -13.8167 -13.8003 -13.4012 -13.3959  -3.1027  -2.8244
    -1.5800  -1.3515  -1.2787  -1.2101  -0.9359  -0.8718   1.9988   2.2647
     2.4918   2.6955   2.7173   2.8537   3.1005   3.2043   4.1747   4.4419

          k = 0.0000-0.0000 0.3688 (  5106 PWs)   bands (ev):

   -33.6804 -33.6741 -17.0787 -17.0738 -15.0499 -15.0499 -14.8750 -14.8750
   -14.6262 -14.5721 -13.7343 -13.7343 -13.4760 -13.4760  -3.2786  -3.1526
    -1.4642  -1.4642  -1.3343  -1.3343  -1.3293  -0.6923   2.4704   2.4704
     2.6820   2.6820   3.1112   3.1112   3.4094   3.4094   3.8741   4.0813

          k =-0.1398-0.0807 0.4098 (  5095 PWs)   bands (ev):

   -33.6796 -33.6749 -17.0749 -17.0743 -15.0806 -14.9731 -14.9701 -14.8239
   -14.6369 -14.5935 -13.7579 -13.6216 -13.5678 -13.4535  -3.2367  -3.1476
    -1.4512  -1.4346  -1.3526  -1.3492  -1.2147  -0.7672   2.4776   2.5115
     2.6384   2.6413   3.0181   3.1391   3.2713   3.3680   3.9630   4.0931

          k = 0.9787 0.5651 0.0820 (  5094 PWs)   bands (ev):

   -33.6783 -33.6758 -17.0782 -17.0613 -15.1120 -15.0103 -14.9304 -14.7707
   -14.6887 -14.6119 -13.7710 -13.6025 -13.5777 -13.4315  -3.1661  -3.0737
    -1.4558  -1.3941  -1.3641  -1.3289  -1.0710  -0.8368   2.3958   2.4902
     2.6052   2.6294   2.8289   3.0979   3.1088   3.2571   4.0983   4.1796

          k = 0.8389 0.4843 0.1229 (  5105 PWs)   bands (ev):

   -33.6769 -33.6769 -17.1025 -17.0234 -15.1590 -15.0095 -14.9215 -14.7533
   -14.7078 -14.6118 -13.8026 -13.6642 -13.5092 -13.4020  -3.1166  -2.9412
    -1.5207  -1.3565  -1.3475  -1.2576  -0.9480  -0.8833   2.1958   2.3494
     2.5935   2.6715   2.6903   2.9526   3.0852   3.1917   4.1757   4.3175

          k =-0.1398 0.0807 0.4508 (  5083 PWs)   bands (ev):

   -33.6790 -33.6755 -17.0796 -17.0702 -15.0672 -14.9740 -14.9575 -14.8557
   -14.6213 -14.6130 -13.7191 -13.6055 -13.5790 -13.4858  -3.2189  -3.1724
    -1.4419  -1.4186  -1.3780  -1.3386  -1.1566  -0.8295   2.4975   2.5311
     2.5944   2.6361   3.0573   3.1706   3.2198   3.3545   3.9829   4.0672

          k = 0.9787 0.7265 0.1229 (  5095 PWs)   bands (ev):

   -33.6780 -33.6762 -17.0764 -17.0671 -15.0734 -15.0461 -14.8807 -14.8309
   -14.6530 -14.6368 -13.7082 -13.6678 -13.5178 -13.4826  -3.1551  -3.1357
    -1.4297  -1.4129  -1.3702  -1.3322  -1.0470  -0.8877   2.4555   2.4804
     2.5998   2.6166   2.9521   3.0419   3.1789   3.2733   4.0906   4.1200

          k = 0.8389 0.6458 0.1639 (  5095 PWs)   bands (ev):

   -33.6770 -33.6770 -17.0841 -17.0488 -15.1154 -15.0342 -14.8769 -14.7766
   -14.7032 -14.6613 -13.7463 -13.6615 -13.5102 -13.4418  -3.1000  -3.0222
    -1.4742  -1.4015  -1.3295  -1.2996  -0.9386  -0.9091   2.2957   2.3626
     2.6152   2.6394   2.7787   2.8965   3.1501   3.1985   4.1846   4.2459

          k = 0.9787-0.5651-0.2049 (  5092 PWs)   bands (ev):

   -33.6776 -33.6766 -17.0913 -17.0490 -15.1206 -14.9740 -14.9348 -14.8001
   -14.6791 -14.6198 -13.7597 -13.5919 -13.5798 -13.4461  -3.1575  -3.0877
    -1.4665  -1.3822  -1.3436  -1.3318  -0.9836  -0.9346   2.3972   2.4552
     2.6091   2.6306   2.8987   3.0132   3.1391   3.2634   4.1131   4.1593

          k = 0.0000-0.0000 0.4918 (  5082 PWs)   bands (ev):

   -33.6784 -33.6762 -17.0777 -17.0760 -14.9996 -14.9996 -14.9397 -14.9397
   -14.6077 -14.5889 -13.6424 -13.6424 -13.5535 -13.5535  -3.2485  -3.2057
    -1.4217  -1.4217  -1.3767  -1.3767  -1.1134  -0.8928   2.5404   2.5404
     2.6137   2.6137   3.2033   3.2033   3.3063   3.3063   3.9375   4.0088

          k = 1.1185 0.6458 0.1639 (  5099 PWs)   bands (ev):

   -33.6775 -33.6769 -17.0774 -17.0727 -15.0473 -15.0125 -14.9235 -14.8819
   -14.6213 -14.6049 -13.6828 -13.6308 -13.5601 -13.5129  -3.2104  -3.1881
    -1.4212  -1.3882  -1.3882  -1.3782  -1.0239  -0.9574   2.5273   2.5542
     2.5837   2.5944   3.1081   3.1666   3.2384   3.2798   4.0112   4.0358

     highest occupied level (ev):     4.4839

!    total energy              =    -367.43035717 Ry
     Harris-Foulkes estimate   =    -367.43035717 Ry
     estimated scf accuracy    <          1.1E-11 Ry

     The total energy is the sum of the following terms:

     one-electron contribution =    -147.95555378 Ry
     hartree contribution      =     103.38231840 Ry
     xc contribution           =     -75.27113642 Ry
     ewald contribution        =    -247.58598537 Ry

     convergence has been achieved in  12 iterations

     Forces acting on atoms (cartesian axes, Ry/au):

     atom    1 type  1   force =     0.00000000    0.00000000    0.00000000
     atom    2 type  1   force =    -0.00000000    0.00000000    0.00000000
     atom    3 type  2   force =     0.00000000    0.00000000   -0.00000000
     atom    4 type  2   force =    -0.00000000   -0.00000000   -0.00000000
     atom    5 type  3   force =     0.00001332   -0.00002308   -0.00000000
     atom    6 type  3   force =    -0.00002665    0.00000000   -0.00000000
     atom    7 type  3   force =     0.00001332    0.00002308    0.00000000
     atom    8 type  3   force =     0.00002665   -0.00000000    0.00000000
     atom    9 type  3   force =    -0.00001332   -0.00002308   -0.00000000
     atom   10 type  3   force =    -0.00001332    0.00002308    0.00000000

     Total force =     0.000065     Total SCF correction =     0.000003


     Computing stress (Cartesian axis) and pressure

          total   stress  (Ry/bohr**3)                   (kbar)     P=   -0.22
  -0.00000359  -0.00000000  -0.00000000         -0.53     -0.00     -0.00
   0.00000000  -0.00000359  -0.00000000          0.00     -0.53     -0.00
  -0.00000000  -0.00000000   0.00000266         -0.00     -0.00      0.39


     Writing output data file CCO.save/
 
     init_run     :     20.03s CPU     25.83s WALL (       2 calls)
     electrons    :   3490.03s CPU   3907.46s WALL (       9 calls)
     update_pot   :      0.42s CPU      0.48s WALL (       7 calls)
     forces       :      6.99s CPU      7.48s WALL (       9 calls)
     stress       :     10.85s CPU     11.33s WALL (       9 calls)

     Called by init_run:
     wfcinit      :     19.44s CPU     23.50s WALL (       2 calls)
     potinit      :      0.07s CPU      0.32s WALL (       2 calls)
     hinit0       :      0.40s CPU      1.11s WALL (       2 calls)

     Called by electrons:
     c_bands      :   3257.45s CPU   3658.29s WALL (     126 calls)
     sum_band     :    229.25s CPU    242.38s WALL (     126 calls)
     v_of_rho     :      2.03s CPU      2.38s WALL (     133 calls)
     newd         :      0.76s CPU      1.23s WALL (     133 calls)
     mix_rho      :      0.37s CPU      0.68s WALL (     126 calls)

     Called by c_bands:
     init_us_2    :      4.44s CPU      5.29s WALL (   23120 calls)
     ccgdiagg     :   2468.17s CPU   2698.14s WALL (   10811 calls)
     wfcrot       :    801.79s CPU    961.61s WALL (   10046 calls)

     Called by sum_band:
     sum_band:bec :      3.00s CPU      3.24s WALL (   10710 calls)
     addusdens    :      0.51s CPU      0.67s WALL (     126 calls)

     Called by *cgdiagg:
     h_psi        :   2185.15s CPU   2345.83s WALL ( 1047402 calls)
     s_psi        :     99.84s CPU    113.74s WALL ( 2084758 calls)
     cdiaghg      :    305.07s CPU    435.42s WALL (   10046 calls)

     Called by h_psi:
     h_psi:pot    :   2158.74s CPU   2315.13s WALL ( 1047402 calls)
     h_psi:calbec :    229.40s CPU    250.46s WALL ( 1047402 calls)
     vloc_psi     :   1820.60s CPU   1947.05s WALL ( 1047402 calls)
     add_vuspsi   :     75.02s CPU     82.70s WALL ( 1047402 calls)
     hs_1psi      :   1881.56s CPU   2030.60s WALL ( 1037356 calls)
     s_1psi       :    205.39s CPU    233.55s WALL ( 1037356 calls)

     General routines
     calbec       :    340.88s CPU    381.56s WALL ( 2099293 calls)
     fft          :      2.13s CPU      2.72s WALL (    1697 calls)
     ffts         :      0.15s CPU      0.16s WALL (     126 calls)
     fftw         :   1935.45s CPU   2064.70s WALL ( 3067176 calls)
 
     Parallel routines
     fft_scatt_xy :     86.94s CPU     92.65s WALL ( 3068999 calls)
     fft_scatt_yz :   1458.14s CPU   1558.30s WALL ( 3068999 calls)
 
     PWSCF        :  58m59.32s CPU      1h 6m WALL

 
   This run was terminated on:  15:55:32  24Apr2022            

=------------------------------------------------------------------------------=
   JOB DONE.
=------------------------------------------------------------------------------=
