
     Program PWSCF v.7.0 starts on 14Mar2022 at 17: 3: 2 

     This program is part of the open-source Quantum ESPRESSO suite
     for quantum simulation of materials; please cite
         "P. Giannozzi et al., J. Phys.:Condens. Matter 21 395502 (2009);
         "P. Giannozzi et al., J. Phys.:Condens. Matter 29 465901 (2017);
         "P. Giannozzi et al., J. Chem. Phys. 152 154105 (2020);
          URL http://www.quantum-espresso.org", 
     in publications or presentations arising from this work. More details at
     http://www.quantum-espresso.org/quote

     Parallel version (MPI), running on     1 processors

     MPI processes distributed on     1 nodes
     90688 MiB available memory on the printing compute node when the environment starts
 
     Waiting for input...
     Reading input from standard input
Warning: card &CELL ignored
Warning: card  CELL_DYNAMICS = 'BFGS', ignored
Warning: card  PRESS=0.1D0, ignored
Warning: card / ignored
     Message from routine read_cards :
     DEPRECATED: no units specified in ATOMIC_POSITIONS card
     Message from routine read_cards :
     ATOMIC_POSITIONS: units set to alat

     Current dimensions of program PWSCF are:
     Max number of different atomic species (ntypx) = 10
     Max number of k-points (npk) =  40000
     Max angular momentum in pseudopotentials (lmaxx) =  4

     Subspace diagonalization in iterative solution of the eigenvalue problem:
     a serial algorithm will be used

 
     G-vector sticks info
     --------------------
     sticks:   dense  smooth     PW     G-vecs:    dense   smooth      PW
     Sum         931     313    109                18907     3695     725
 
     Using Slab Decomposition
 


     bravais-lattice index     =            2
     lattice parameter (alat)  =       6.7400  a.u.
     unit-cell volume          =      76.5455 (a.u.)^3
     number of atoms/cell      =            2
     number of atomic types    =            1
     number of electrons       =         8.00
     number of Kohn-Sham states=            4
     kinetic-energy cutoff     =      50.0000  Ry
     charge density cutoff     =     600.0000  Ry
     scf convergence threshold =      1.0E-08
     mixing beta               =       0.7000
     number of iterations used =            8  plain     mixing
     Exchange-correlation= SLA  PZ   NOGX NOGC
                           (   1   1   0   0   0   0   0)

     celldm(1)=   6.740000  celldm(2)=   0.000000  celldm(3)=   0.000000
     celldm(4)=   0.000000  celldm(5)=   0.000000  celldm(6)=   0.000000

     crystal axes: (cart. coord. in units of alat)
               a(1) = (  -0.500000   0.000000   0.500000 )  
               a(2) = (   0.000000   0.500000   0.500000 )  
               a(3) = (  -0.500000   0.500000   0.000000 )  

     reciprocal axes: (cart. coord. in units 2 pi/alat)
               b(1) = ( -1.000000 -1.000000  1.000000 )  
               b(2) = (  1.000000  1.000000  1.000000 )  
               b(3) = ( -1.000000  1.000000 -1.000000 )  


     PseudoPot. # 1 for C  read from file:
     ../C_LDA.UPF
     MD5 check sum: 407c1fe918d93b14b177d5600f28733c
     Pseudo is Ultrasoft + core correction, Zval =  4.0
     Generated by new atomic code, or converted to UPF format
     Using radial grid of  721 points,  4 beta functions with: 
                l(1) =   0
                l(2) =   0
                l(3) =   1
                l(4) =   1
     Q(r) pseudized with  8 coefficients,  rinner =    1.100   1.100   1.100


     atomic species   valence    mass     pseudopotential
        C              4.00    12.01100     C ( 1.00)

     48 Sym. Ops., with inversion, found (24 have fractional translation)



   Cartesian axes

     site n.     atom                  positions (alat units)
         1           C   tau(   1) = (   0.0000000   0.0000000   0.0000000  )
         2           C   tau(   2) = (   0.2500000   0.2500000   0.2500000  )

     number of k points=    16
                       cart. coord. in units 2pi/alat
        k(    1) = (   0.0000000   0.0000000   0.0000000), wk =   0.0092593
        k(    2) = (  -0.1666667   0.1666667  -0.1666667), wk =   0.0740741
        k(    3) = (  -0.3333333   0.3333333  -0.3333333), wk =   0.0740741
        k(    4) = (   0.5000000  -0.5000000   0.5000000), wk =   0.0370370
        k(    5) = (   0.0000000   0.3333333   0.0000000), wk =   0.0555556
        k(    6) = (  -0.1666667   0.5000000  -0.1666667), wk =   0.2222222
        k(    7) = (   0.6666667  -0.3333333   0.6666667), wk =   0.2222222
        k(    8) = (   0.5000000  -0.1666667   0.5000000), wk =   0.2222222
        k(    9) = (   0.3333333  -0.0000000   0.3333333), wk =   0.1111111
        k(   10) = (   0.0000000   0.6666667   0.0000000), wk =   0.0555556
        k(   11) = (   0.8333333  -0.1666667   0.8333333), wk =   0.2222222
        k(   12) = (   0.6666667  -0.0000000   0.6666667), wk =   0.1111111
        k(   13) = (   0.0000000  -1.0000000   0.0000000), wk =   0.0277778
        k(   14) = (   0.6666667  -0.3333333   1.0000000), wk =   0.2222222
        k(   15) = (   0.5000000  -0.1666667   0.8333333), wk =   0.2222222
        k(   16) = (  -0.3333333  -1.0000000   0.0000000), wk =   0.1111111

     Dense  grid:    18907 G-vectors     FFT dimensions: (  40,  40,  40)

     Smooth grid:     3695 G-vectors     FFT dimensions: (  24,  24,  24)

     Estimated max dynamical RAM per process >      27.71 MB

     Initial potential from superposition of free atoms

     starting charge       7.9999, renormalised to       8.0000
     Starting wfcs are    8 randomized atomic wfcs

     total cpu time spent up to now is        1.1 secs

     Self-consistent Calculation

     iteration #  1     ecut=    50.00 Ry     beta= 0.70
     CG style diagonalization
     ethr =  1.00E-02,  avg # of iterations =  3.0

     total cpu time spent up to now is        1.4 secs

     total energy              =     -23.04011222 Ry
     estimated scf accuracy    <       0.13245352 Ry

     iteration #  2     ecut=    50.00 Ry     beta= 0.70
     CG style diagonalization
     ethr =  1.66E-03,  avg # of iterations =  3.5

     total cpu time spent up to now is        1.7 secs

     total energy              =     -23.05555225 Ry
     estimated scf accuracy    <       0.00142894 Ry

     iteration #  3     ecut=    50.00 Ry     beta= 0.70
     CG style diagonalization
     ethr =  1.79E-05,  avg # of iterations =  4.0

     total cpu time spent up to now is        2.1 secs

     total energy              =     -23.05599519 Ry
     estimated scf accuracy    <       0.00004980 Ry

     iteration #  4     ecut=    50.00 Ry     beta= 0.70
     CG style diagonalization
     ethr =  6.23E-07,  avg # of iterations =  4.0

     total cpu time spent up to now is        2.5 secs

     total energy              =     -23.05601179 Ry
     estimated scf accuracy    <       0.00000191 Ry

     iteration #  5     ecut=    50.00 Ry     beta= 0.70
     CG style diagonalization
     ethr =  2.39E-08,  avg # of iterations =  4.0

     total cpu time spent up to now is        2.9 secs

     total energy              =     -23.05601250 Ry
     estimated scf accuracy    <       0.00000001 Ry

     iteration #  6     ecut=    50.00 Ry     beta= 0.70
     CG style diagonalization
     ethr =  1.78E-10,  avg # of iterations =  4.8

     total cpu time spent up to now is        3.3 secs

     End of self-consistent calculation

          k = 0.0000 0.0000 0.0000 (   459 PWs)   bands (ev):

    -8.2148  13.0954  13.0954  13.0954

          k =-0.1667 0.1667-0.1667 (   471 PWs)   bands (ev):

    -7.4493   9.3769  12.0745  12.0745

          k =-0.3333 0.3333-0.3333 (   468 PWs)   bands (ev):

    -5.1995   3.7943  10.7829  10.7829

          k = 0.5000-0.5000 0.5000 (   464 PWs)   bands (ev):

    -2.3774  -0.2618  10.3044  10.3044

          k = 0.0000 0.3333 0.0000 (   471 PWs)   bands (ev):

    -7.1948  10.5251  10.5251  10.9273

          k =-0.1667 0.5000-0.1667 (   453 PWs)   bands (ev):

    -5.4392   5.9444   9.2652   9.7141

          k = 0.6667-0.3333 0.6667 (   454 PWs)   bands (ev):

    -2.4387   1.1423   8.1514   9.1362

          k = 0.5000-0.1667 0.5000 (   454 PWs)   bands (ev):

    -3.5227   2.6326   7.4599  10.1423

          k = 0.3333-0.0000 0.3333 (   457 PWs)   bands (ev):

    -6.1878   7.4771   8.2950  11.7251

          k = 0.0000 0.6667 0.0000 (   444 PWs)   bands (ev):

    -4.1997   6.0599   7.7891   7.7891

          k = 0.8333-0.1667 0.8333 (   458 PWs)   bands (ev):

    -1.6114   3.0362   5.4344   7.4631

          k = 0.6667-0.0000 0.6667 (   456 PWs)   bands (ev):

    -0.7611   2.2982   3.6959   8.4164

          k = 0.0000-1.0000 0.0000 (   460 PWs)   bands (ev):

     0.4896   0.4896   6.8023   6.8023

          k = 0.6667-0.3333 1.0000 (   452 PWs)   bands (ev):

    -3.2589   4.5375   5.7902   8.2965

          k = 0.5000-0.1667 0.8333 (   452 PWs)   bands (ev):

    -0.6144   1.4501   5.3220   7.1584

          k =-0.3333-1.0000 0.0000 (   462 PWs)   bands (ev):

     1.0577   1.0577   5.2669   5.2669

     highest occupied level (ev):    13.0954

!    total energy              =     -23.05601252 Ry
     estimated scf accuracy    <          5.9E-10 Ry

     The total energy is the sum of the following terms:
     one-electron contribution =       7.94470748 Ry
     hartree contribution      =       1.91869258 Ry
     xc contribution           =      -7.34411029 Ry
     ewald contribution        =     -25.57530229 Ry

     convergence has been achieved in   6 iterations

     Forces acting on atoms (cartesian axes, Ry/au):

     atom    1 type  1   force =    -0.00000000    0.00000000   -0.00000000
     atom    2 type  1   force =     0.00000000   -0.00000000    0.00000000

     Total force =     0.000000     Total SCF correction =     0.000000


     Computing stress (Cartesian axis) and pressure

          total   stress  (Ry/bohr**3)                   (kbar)     P=     -125.90
  -0.00085586   0.00000000  -0.00000000         -125.90        0.00       -0.00
   0.00000000  -0.00085586   0.00000000            0.00     -125.90        0.00
  -0.00000000   0.00000000  -0.00085586           -0.00        0.00     -125.90


     Writing all to output data dir ./Diamond.save/
 
     init_run     :      0.61s CPU      0.66s WALL (       1 calls)
     electrons    :      1.97s CPU      2.24s WALL (       1 calls)
     forces       :      0.07s CPU      0.08s WALL (       1 calls)
     stress       :      0.32s CPU      0.33s WALL (       1 calls)

     Called by init_run:
     wfcinit      :      0.11s CPU      0.12s WALL (       1 calls)
     potinit      :      0.03s CPU      0.03s WALL (       1 calls)
     hinit0       :      0.42s CPU      0.43s WALL (       1 calls)

     Called by electrons:
     c_bands      :      1.30s CPU      1.48s WALL (       6 calls)
     sum_band     :      0.39s CPU      0.43s WALL (       6 calls)
     v_of_rho     :      0.11s CPU      0.12s WALL (       7 calls)
     newd         :      0.16s CPU      0.20s WALL (       7 calls)
     mix_rho      :      0.02s CPU      0.02s WALL (       6 calls)

     Called by c_bands:
     init_us_2    :      0.07s CPU      0.08s WALL (     240 calls)
     init_us_2:cp :      0.07s CPU      0.08s WALL (     240 calls)
     ccgdiagg     :      1.01s CPU      1.15s WALL (      96 calls)
     wfcrot       :      0.34s CPU      0.36s WALL (      96 calls)

     Called by *cgdiagg:
     h_psi        :      1.09s CPU      1.21s WALL (    1267 calls)
     s_psi        :      0.06s CPU      0.07s WALL (    2438 calls)

     Called by h_psi:
     h_psi:calbec :      0.06s CPU      0.06s WALL (    1267 calls)
     vloc_psi     :      0.94s CPU      1.05s WALL (    1267 calls)
     add_vuspsi   :      0.03s CPU      0.04s WALL (    1267 calls)
     hs_1psi      :      0.87s CPU      0.99s WALL (    1171 calls)
     s_1psi       :      0.09s CPU      0.10s WALL (    1171 calls)

     General routines
     calbec       :      0.07s CPU      0.09s WALL (    2614 calls)
     fft          :      0.07s CPU      0.08s WALL (      48 calls)
     ffts         :      0.01s CPU      0.01s WALL (      13 calls)
     fftw         :      0.91s CPU      1.00s WALL (    3622 calls)
     interpolate  :      0.01s CPU      0.02s WALL (       7 calls)
 
     Parallel routines
 
     PWSCF        :      3.29s CPU      3.95s WALL

 
   This run was terminated on:  17: 3: 6  14Mar2022            

=------------------------------------------------------------------------------=
   JOB DONE.
=------------------------------------------------------------------------------=
