
     Program PWSCF v.7.0 starts on 14Mar2022 at 17: 3:36 

     This program is part of the open-source Quantum ESPRESSO suite
     for quantum simulation of materials; please cite
         "P. Giannozzi et al., J. Phys.:Condens. Matter 21 395502 (2009);
         "P. Giannozzi et al., J. Phys.:Condens. Matter 29 465901 (2017);
         "P. Giannozzi et al., J. Chem. Phys. 152 154105 (2020);
          URL http://www.quantum-espresso.org", 
     in publications or presentations arising from this work. More details at
     http://www.quantum-espresso.org/quote

     Parallel version (MPI), running on     1 processors

     MPI processes distributed on     1 nodes
     90684 MiB available memory on the printing compute node when the environment starts
 
     Waiting for input...
     Reading input from standard input
Warning: card &CELL ignored
Warning: card  CELL_DYNAMICS = 'BFGS', ignored
Warning: card  PRESS=0.1D0, ignored
Warning: card / ignored
     Message from routine read_cards :
     DEPRECATED: no units specified in ATOMIC_POSITIONS card
     Message from routine read_cards :
     ATOMIC_POSITIONS: units set to alat

     Current dimensions of program PWSCF are:
     Max number of different atomic species (ntypx) = 10
     Max number of k-points (npk) =  40000
     Max angular momentum in pseudopotentials (lmaxx) =  4

     Subspace diagonalization in iterative solution of the eigenvalue problem:
     a serial algorithm will be used

 
     G-vector sticks info
     --------------------
     sticks:   dense  smooth     PW     G-vecs:    dense   smooth      PW
     Sum         931     313    109                18907     3695     725
 
     Using Slab Decomposition
 


     bravais-lattice index     =            2
     lattice parameter (alat)  =       6.7400  a.u.
     unit-cell volume          =      76.5455 (a.u.)^3
     number of atoms/cell      =            2
     number of atomic types    =            1
     number of electrons       =         8.00
     number of Kohn-Sham states=            4
     kinetic-energy cutoff     =      50.0000  Ry
     charge density cutoff     =     600.0000  Ry
     scf convergence threshold =      1.0E-08
     mixing beta               =       0.7000
     number of iterations used =            8  plain     mixing
     Exchange-correlation= SLA  PZ   NOGX NOGC
                           (   1   1   0   0   0   0   0)

     celldm(1)=   6.740000  celldm(2)=   0.000000  celldm(3)=   0.000000
     celldm(4)=   0.000000  celldm(5)=   0.000000  celldm(6)=   0.000000

     crystal axes: (cart. coord. in units of alat)
               a(1) = (  -0.500000   0.000000   0.500000 )  
               a(2) = (   0.000000   0.500000   0.500000 )  
               a(3) = (  -0.500000   0.500000   0.000000 )  

     reciprocal axes: (cart. coord. in units 2 pi/alat)
               b(1) = ( -1.000000 -1.000000  1.000000 )  
               b(2) = (  1.000000  1.000000  1.000000 )  
               b(3) = ( -1.000000  1.000000 -1.000000 )  


     PseudoPot. # 1 for C  read from file:
     ../C_LDA.UPF
     MD5 check sum: 407c1fe918d93b14b177d5600f28733c
     Pseudo is Ultrasoft + core correction, Zval =  4.0
     Generated by new atomic code, or converted to UPF format
     Using radial grid of  721 points,  4 beta functions with: 
                l(1) =   0
                l(2) =   0
                l(3) =   1
                l(4) =   1
     Q(r) pseudized with  8 coefficients,  rinner =    1.100   1.100   1.100


     atomic species   valence    mass     pseudopotential
        C              4.00    12.01100     C ( 1.00)

     48 Sym. Ops., with inversion, found (24 have fractional translation)



   Cartesian axes

     site n.     atom                  positions (alat units)
         1           C   tau(   1) = (   0.0000000   0.0000000   0.0000000  )
         2           C   tau(   2) = (   0.2500000   0.2500000   0.2500000  )

     number of k points=    56
                       cart. coord. in units 2pi/alat
        k(    1) = (   0.0000000   0.0000000   0.0000000), wk =   0.0015026
        k(    2) = (  -0.0909091   0.0909091  -0.0909091), wk =   0.0120210
        k(    3) = (  -0.1818182   0.1818182  -0.1818182), wk =   0.0120210
        k(    4) = (  -0.2727273   0.2727273  -0.2727273), wk =   0.0120210
        k(    5) = (  -0.3636364   0.3636364  -0.3636364), wk =   0.0120210
        k(    6) = (  -0.4545455   0.4545455  -0.4545455), wk =   0.0120210
        k(    7) = (   0.0000000   0.1818182   0.0000000), wk =   0.0090158
        k(    8) = (  -0.0909091   0.2727273  -0.0909091), wk =   0.0360631
        k(    9) = (  -0.1818182   0.3636364  -0.1818182), wk =   0.0360631
        k(   10) = (  -0.2727273   0.4545455  -0.2727273), wk =   0.0360631
        k(   11) = (  -0.3636364   0.5454545  -0.3636364), wk =   0.0360631
        k(   12) = (   0.5454545  -0.3636364   0.5454545), wk =   0.0360631
        k(   13) = (   0.4545455  -0.2727273   0.4545455), wk =   0.0360631
        k(   14) = (   0.3636364  -0.1818182   0.3636364), wk =   0.0360631
        k(   15) = (   0.2727273  -0.0909091   0.2727273), wk =   0.0360631
        k(   16) = (   0.1818182   0.0000000   0.1818182), wk =   0.0180316
        k(   17) = (   0.0000000   0.3636364   0.0000000), wk =   0.0090158
        k(   18) = (  -0.0909091   0.4545455  -0.0909091), wk =   0.0360631
        k(   19) = (  -0.1818182   0.5454545  -0.1818182), wk =   0.0360631
        k(   20) = (  -0.2727273   0.6363636  -0.2727273), wk =   0.0360631
        k(   21) = (   0.6363636  -0.2727273   0.6363636), wk =   0.0360631
        k(   22) = (   0.5454545  -0.1818182   0.5454545), wk =   0.0360631
        k(   23) = (   0.4545455  -0.0909091   0.4545455), wk =   0.0360631
        k(   24) = (   0.3636364   0.0000000   0.3636364), wk =   0.0180316
        k(   25) = (   0.0000000   0.5454545   0.0000000), wk =   0.0090158
        k(   26) = (  -0.0909091   0.6363636  -0.0909091), wk =   0.0360631
        k(   27) = (  -0.1818182   0.7272727  -0.1818182), wk =   0.0360631
        k(   28) = (   0.7272727  -0.1818182   0.7272727), wk =   0.0360631
        k(   29) = (   0.6363636  -0.0909091   0.6363636), wk =   0.0360631
        k(   30) = (   0.5454545   0.0000000   0.5454545), wk =   0.0180316
        k(   31) = (   0.0000000   0.7272727   0.0000000), wk =   0.0090158
        k(   32) = (  -0.0909091   0.8181818  -0.0909091), wk =   0.0360631
        k(   33) = (   0.8181818  -0.0909091   0.8181818), wk =   0.0360631
        k(   34) = (   0.7272727   0.0000000   0.7272727), wk =   0.0180316
        k(   35) = (  -0.0000000   0.9090909  -0.0000000), wk =   0.0090158
        k(   36) = (   0.9090909  -0.0000000   0.9090909), wk =   0.0180316
        k(   37) = (  -0.1818182   0.3636364   0.0000000), wk =   0.0360631
        k(   38) = (  -0.2727273   0.4545455  -0.0909091), wk =   0.0721262
        k(   39) = (  -0.3636364   0.5454545  -0.1818182), wk =   0.0721262
        k(   40) = (   0.5454545  -0.3636364   0.7272727), wk =   0.0721262
        k(   41) = (  -0.1818182   0.5454545   0.0000000), wk =   0.0360631
        k(   42) = (  -0.2727273   0.6363636  -0.0909091), wk =   0.0721262
        k(   43) = (   0.6363636  -0.2727273   0.8181818), wk =   0.0721262
        k(   44) = (   0.5454545  -0.1818182   0.7272727), wk =   0.0721262
        k(   45) = (   0.4545455  -0.0909091   0.6363636), wk =   0.0721262
        k(   46) = (   0.3636364   0.0000000   0.5454545), wk =   0.0360631
        k(   47) = (  -0.1818182   0.7272727   0.0000000), wk =   0.0360631
        k(   48) = (   0.7272727  -0.1818182   0.9090909), wk =   0.0721262
        k(   49) = (   0.6363636  -0.0909091   0.8181818), wk =   0.0721262
        k(   50) = (   0.5454545   0.0000000   0.7272727), wk =   0.0360631
        k(   51) = (   0.8181818  -0.0909091   1.0000000), wk =   0.0360631
        k(   52) = (   0.7272727   0.0000000   0.9090909), wk =   0.0360631
        k(   53) = (   0.6363636  -0.2727273   1.0000000), wk =   0.0360631
        k(   54) = (   0.5454545  -0.1818182   0.9090909), wk =   0.0721262
        k(   55) = (   0.6363636  -0.0909091   1.0000000), wk =   0.0360631
        k(   56) = (   0.5454545   0.0000000   0.9090909), wk =   0.0360631

     Dense  grid:    18907 G-vectors     FFT dimensions: (  40,  40,  40)

     Smooth grid:     3695 G-vectors     FFT dimensions: (  24,  24,  24)

     Estimated max dynamical RAM per process >      28.83 MB

     Initial potential from superposition of free atoms

     starting charge       7.9999, renormalised to       8.0000
     Starting wfcs are    8 randomized atomic wfcs

     total cpu time spent up to now is        1.3 secs

     Self-consistent Calculation

     iteration #  1     ecut=    50.00 Ry     beta= 0.70
     CG style diagonalization
     ethr =  1.00E-02,  avg # of iterations =  3.0

     total cpu time spent up to now is        2.2 secs

     total energy              =     -23.04079568 Ry
     estimated scf accuracy    <       0.13204828 Ry

     iteration #  2     ecut=    50.00 Ry     beta= 0.70
     CG style diagonalization
     ethr =  1.65E-03,  avg # of iterations =  3.6

     total cpu time spent up to now is        3.2 secs

     total energy              =     -23.05620629 Ry
     estimated scf accuracy    <       0.00141975 Ry

     iteration #  3     ecut=    50.00 Ry     beta= 0.70
     CG style diagonalization
     ethr =  1.77E-05,  avg # of iterations =  4.0

     total cpu time spent up to now is        4.2 secs

     total energy              =     -23.05666638 Ry
     estimated scf accuracy    <       0.00004996 Ry

     iteration #  4     ecut=    50.00 Ry     beta= 0.70
     CG style diagonalization
     ethr =  6.25E-07,  avg # of iterations =  4.1

     total cpu time spent up to now is        5.3 secs

     total energy              =     -23.05668445 Ry
     estimated scf accuracy    <       0.00000233 Ry

     iteration #  5     ecut=    50.00 Ry     beta= 0.70
     CG style diagonalization
     ethr =  2.91E-08,  avg # of iterations =  4.0

     total cpu time spent up to now is        6.4 secs

     total energy              =     -23.05668539 Ry
     estimated scf accuracy    <       0.00000004 Ry

     iteration #  6     ecut=    50.00 Ry     beta= 0.70
     CG style diagonalization
     ethr =  4.41E-10,  avg # of iterations =  4.4

     total cpu time spent up to now is        7.5 secs

     End of self-consistent calculation

          k = 0.0000 0.0000 0.0000 (   459 PWs)   bands (ev):

    -8.2166  13.0920  13.0920  13.0920

          k =-0.0909 0.0909-0.0909 (   468 PWs)   bands (ev):

    -7.9882  11.6832  12.7155  12.7155

          k =-0.1818 0.1818-0.1818 (   465 PWs)   bands (ev):

    -7.3063   8.8705  11.9348  11.9348

          k =-0.2727 0.2727-0.2727 (   459 PWs)   bands (ev):

    -6.1823   5.7903  11.1767  11.1767

          k =-0.3636 0.3636-0.3636 (   462 PWs)   bands (ev):

    -4.6490   2.8373  10.6233  10.6233

          k =-0.4545 0.4545-0.4545 (   464 PWs)   bands (ev):

    -2.8787   0.3289  10.3374  10.3374

          k = 0.0000 0.1818 0.0000 (   467 PWs)   bands (ev):

    -7.9122  12.0408  12.0408  12.3928

          k =-0.0909 0.2727-0.0909 (   464 PWs)   bands (ev):

    -7.3816   9.8387  11.1612  11.9977

          k =-0.1818 0.3636-0.1818 (   464 PWs)   bands (ev):

    -6.4050   6.9008  10.4225  11.2439

          k =-0.2727 0.4545-0.2727 (   454 PWs)   bands (ev):

    -5.0054   3.9330   9.9653  10.4380

          k =-0.3636 0.5455-0.3636 (   455 PWs)   bands (ev):

    -3.2712   1.2477   9.7897   9.8338

          k = 0.5455-0.3636 0.5455 (   453 PWs)   bands (ev):

    -2.2696   0.0040   9.3941  10.0269

          k = 0.4545-0.2727 0.4545 (   456 PWs)   bands (ev):

    -3.8727   2.0945   9.3016  10.5141

          k = 0.3636-0.1818 0.3636 (   461 PWs)   bands (ev):

    -5.5167   4.9145   9.5369  11.2332

          k = 0.2727-0.0909 0.2727 (   465 PWs)   bands (ev):

    -6.7793   7.9120  10.1000  12.0578

          k = 0.1818 0.0000 0.1818 (   465 PWs)   bands (ev):

    -7.6087  10.5751  11.0896  12.7046

          k = 0.0000 0.3636 0.0000 (   463 PWs)   bands (ev):

    -7.0039  10.2213  10.2213  10.5586

          k =-0.0909 0.4545-0.0909 (   458 PWs)   bands (ev):

    -6.1792   7.9569   9.4465  10.0364

          k =-0.1818 0.5455-0.1818 (   453 PWs)   bands (ev):

    -4.9256   5.2152   8.9818   9.1467

          k =-0.2727 0.6364-0.2727 (   451 PWs)   bands (ev):

    -3.2983   2.5415   8.2222   8.8788

          k = 0.6364-0.2727 0.6364 (   451 PWs)   bands (ev):

    -1.7329   0.5436   7.5041   9.1401

          k = 0.5455-0.1818 0.5455 (   448 PWs)   bands (ev):

    -2.7180   1.7718   7.1027   9.7295

          k = 0.4545-0.0909 0.4545 (   457 PWs)   bands (ev):

    -4.4254   4.3652   7.0835  10.5611

          k = 0.3636 0.0000 0.3636 (   457 PWs)   bands (ev):

    -5.8104   6.8873   7.7415  11.4561

          k = 0.0000 0.5455 0.0000 (   456 PWs)   bands (ev):

    -5.5085   8.0044   8.6093   8.6093

          k =-0.0909 0.6364-0.0909 (   457 PWs)   bands (ev):

    -4.4073   6.0598   7.7835   8.0796

          k =-0.1818 0.7273-0.1818 (   461 PWs)   bands (ev):

    -2.9156   3.8229   6.5539   7.9244

          k = 0.7273-0.1818 0.7273 (   455 PWs)   bands (ev):

    -1.2315   1.7342   5.4745   8.1561

          k = 0.6364-0.0909 0.6364 (   451 PWs)   bands (ev):

    -1.2860   1.8659   4.7852   8.7456

          k = 0.5455 0.0000 0.5455 (   455 PWs)   bands (ev):

    -2.9526   3.8229   4.8658   9.6091

          k = 0.0000 0.7273 0.0000 (   452 PWs)   bands (ev):

    -3.4611   5.0427   7.4635   7.4635

          k =-0.0909 0.8182-0.0909 (   457 PWs)   bands (ev):

    -2.1183   3.4860   6.4405   7.2195

          k = 0.8182-0.0909 0.8182 (   458 PWs)   bands (ev):

    -0.4923   2.0630   4.7735   7.3727

          k = 0.7273 0.0000 0.7273 (   458 PWs)   bands (ev):

     0.1106   1.7014   3.6148   7.9049

          k =-0.0000 0.9091-0.0000 (   452 PWs)   bands (ev):

    -0.9275   1.9731   6.8741   6.8741

          k = 0.9091-0.0000 0.9091 (   460 PWs)   bands (ev):

     0.5472   0.6228   6.0593   6.9271

          k =-0.1818 0.3636 0.0000 (   470 PWs)   bands (ev):

    -6.7038   8.6793   9.3644  11.5247

          k =-0.2727 0.4545-0.0909 (   461 PWs)   bands (ev):

    -5.5880   6.0969   8.5111  10.7565

          k =-0.3636 0.5455-0.1818 (   452 PWs)   bands (ev):

    -4.0698   3.2933   8.1924   9.9209

          k = 0.5455-0.3636 0.7273 (   456 PWs)   bands (ev):

    -2.3295   0.8656   8.1419   9.3486

          k =-0.1818 0.5455 0.0000 (   458 PWs)   bands (ev):

    -5.2158   6.8391   7.8126   9.3862

          k =-0.2727 0.6364-0.0909 (   457 PWs)   bands (ev):

    -3.8408   4.5873   7.0374   8.5664

          k = 0.6364-0.2727 0.8182 (   454 PWs)   bands (ev):

    -2.1530   2.1809   6.5695   8.0915

          k = 0.5455-0.1818 0.7273 (   454 PWs)   bands (ev):

    -1.2140   1.0665   6.0872   8.3020

          k = 0.4545-0.0909 0.6364 (   458 PWs)   bands (ev):

    -2.7487   3.0184   5.8354   8.9944

          k = 0.3636 0.0000 0.5455 (   454 PWs)   bands (ev):

    -4.3491   5.2683   6.2657   9.9233

          k =-0.1818 0.7273 0.0000 (   456 PWs)   bands (ev):

    -3.1847   4.7676   6.7216   7.3685

          k = 0.7273-0.1818 0.9091 (   459 PWs)   bands (ev):

    -1.6139   3.1281   5.4515   6.9872

          k = 0.6364-0.0909 0.8182 (   452 PWs)   bands (ev):

    -0.1719   1.7180   4.3138   7.2842

          k = 0.5455 0.0000 0.7273 (   453 PWs)   bands (ev):

    -1.1543   2.6775   4.0162   8.0105

          k = 0.8182-0.0909 1.0000 (   456 PWs)   bands (ev):

    -0.6911   2.0926   6.2062   6.3566

          k = 0.7273 0.0000 0.9091 (   451 PWs)   bands (ev):

     0.7376   1.0838   4.7007   6.5773

          k = 0.6364-0.2727 1.0000 (   456 PWs)   bands (ev):

    -2.3798   3.8497   5.2660   7.5596

          k = 0.5455-0.1818 0.9091 (   452 PWs)   bands (ev):

    -0.7378   2.1566   4.8700   6.7945

          k = 0.6364-0.0909 1.0000 (   461 PWs)   bands (ev):

    -0.0530   2.2102   4.9318   5.5927

          k = 0.5455 0.0000 0.9091 (   456 PWs)   bands (ev):

     0.6388   1.7842   4.1472   5.7510

     highest occupied level (ev):    13.0920

!    total energy              =     -23.05668542 Ry
     estimated scf accuracy    <          3.6E-10 Ry

     The total energy is the sum of the following terms:
     one-electron contribution =       7.94507318 Ry
     hartree contribution      =       1.91709210 Ry
     xc contribution           =      -7.34354841 Ry
     ewald contribution        =     -25.57530229 Ry

     convergence has been achieved in   6 iterations

     Forces acting on atoms (cartesian axes, Ry/au):

     atom    1 type  1   force =     0.00000000   -0.00000000    0.00000000
     atom    2 type  1   force =     0.00000000    0.00000000   -0.00000000

     Total force =     0.000000     Total SCF correction =     0.000000


     Computing stress (Cartesian axis) and pressure

          total   stress  (Ry/bohr**3)                   (kbar)     P=     -126.55
  -0.00086024   0.00000000  -0.00000000         -126.55        0.00       -0.00
   0.00000000  -0.00086024  -0.00000000            0.00     -126.55       -0.00
  -0.00000000   0.00000000  -0.00086024           -0.00        0.00     -126.55


     Writing all to output data dir ./Diamond.save/
 
     init_run     :      0.88s CPU      0.94s WALL (       1 calls)
     electrons    :      5.54s CPU      6.16s WALL (       1 calls)
     forces       :      0.09s CPU      0.10s WALL (       1 calls)
     stress       :      0.48s CPU      0.49s WALL (       1 calls)

     Called by init_run:
     wfcinit      :      0.38s CPU      0.40s WALL (       1 calls)
     potinit      :      0.02s CPU      0.03s WALL (       1 calls)
     hinit0       :      0.42s CPU      0.43s WALL (       1 calls)

     Called by electrons:
     c_bands      :      4.47s CPU      5.01s WALL (       6 calls)
     sum_band     :      0.79s CPU      0.83s WALL (       6 calls)
     v_of_rho     :      0.11s CPU      0.11s WALL (       7 calls)
     newd         :      0.16s CPU      0.18s WALL (       7 calls)
     mix_rho      :      0.02s CPU      0.02s WALL (       6 calls)

     Called by c_bands:
     init_us_2    :      0.25s CPU      0.28s WALL (     840 calls)
     init_us_2:cp :      0.23s CPU      0.26s WALL (     840 calls)
     ccgdiagg     :      3.44s CPU      3.87s WALL (     336 calls)
     wfcrot       :      1.17s CPU      1.25s WALL (     336 calls)

     Called by *cgdiagg:
     h_psi        :      3.71s CPU      4.10s WALL (    4364 calls)
     s_psi        :      0.19s CPU      0.22s WALL (    8392 calls)

     Called by h_psi:
     h_psi:calbec :      0.19s CPU      0.21s WALL (    4364 calls)
     vloc_psi     :      3.23s CPU      3.56s WALL (    4364 calls)
     add_vuspsi   :      0.11s CPU      0.13s WALL (    4364 calls)
     hs_1psi      :      2.98s CPU      3.33s WALL (    4028 calls)
     s_1psi       :      0.30s CPU      0.34s WALL (    4028 calls)

     General routines
     calbec       :      0.24s CPU      0.28s WALL (    9008 calls)
     fft          :      0.06s CPU      0.08s WALL (      48 calls)
     ffts         :      0.00s CPU      0.01s WALL (      13 calls)
     fftw         :      3.13s CPU      3.43s WALL (   12536 calls)
     interpolate  :      0.02s CPU      0.02s WALL (       7 calls)
 
     Parallel routines
 
     PWSCF        :      7.35s CPU      8.57s WALL

 
   This run was terminated on:  17: 3:44  14Mar2022            

=------------------------------------------------------------------------------=
   JOB DONE.
=------------------------------------------------------------------------------=
