
     Program PWSCF v.7.0 starts on 14Mar2022 at 17: 9: 3 

     This program is part of the open-source Quantum ESPRESSO suite
     for quantum simulation of materials; please cite
         "P. Giannozzi et al., J. Phys.:Condens. Matter 21 395502 (2009);
         "P. Giannozzi et al., J. Phys.:Condens. Matter 29 465901 (2017);
         "P. Giannozzi et al., J. Chem. Phys. 152 154105 (2020);
          URL http://www.quantum-espresso.org", 
     in publications or presentations arising from this work. More details at
     http://www.quantum-espresso.org/quote

     Parallel version (MPI), running on     1 processors

     MPI processes distributed on     1 nodes
     91922 MiB available memory on the printing compute node when the environment starts
 
     Waiting for input...
     Reading input from standard input
Warning: card &CELL ignored
Warning: card  CELL_DYNAMICS = 'BFGS', ignored
Warning: card  PRESS=0.1D0, ignored
Warning: card / ignored
     Message from routine read_cards :
     DEPRECATED: no units specified in ATOMIC_POSITIONS card
     Message from routine read_cards :
     ATOMIC_POSITIONS: units set to alat

     Current dimensions of program PWSCF are:
     Max number of different atomic species (ntypx) = 10
     Max number of k-points (npk) =  40000
     Max angular momentum in pseudopotentials (lmaxx) =  4

     Subspace diagonalization in iterative solution of the eigenvalue problem:
     a serial algorithm will be used

 
     G-vector sticks info
     --------------------
     sticks:   dense  smooth     PW     G-vecs:    dense   smooth      PW
     Sum         187     187     73                 1687     1687     387
 
     Using Slab Decomposition
 


     bravais-lattice index     =            2
     lattice parameter (alat)  =       6.7400  a.u.
     unit-cell volume          =      76.5455 (a.u.)^3
     number of atoms/cell      =            2
     number of atomic types    =            1
     number of electrons       =         8.00
     number of Kohn-Sham states=            4
     kinetic-energy cutoff     =      30.0000  Ry
     charge density cutoff     =     120.0000  Ry
     scf convergence threshold =      1.0E-08
     mixing beta               =       0.7000
     number of iterations used =            8  plain     mixing
     Exchange-correlation= SLA  PZ   NOGX NOGC
                           (   1   1   0   0   0   0   0)

     celldm(1)=   6.740000  celldm(2)=   0.000000  celldm(3)=   0.000000
     celldm(4)=   0.000000  celldm(5)=   0.000000  celldm(6)=   0.000000

     crystal axes: (cart. coord. in units of alat)
               a(1) = (  -0.500000   0.000000   0.500000 )  
               a(2) = (   0.000000   0.500000   0.500000 )  
               a(3) = (  -0.500000   0.500000   0.000000 )  

     reciprocal axes: (cart. coord. in units 2 pi/alat)
               b(1) = ( -1.000000 -1.000000  1.000000 )  
               b(2) = (  1.000000  1.000000  1.000000 )  
               b(3) = ( -1.000000  1.000000 -1.000000 )  


     PseudoPot. # 1 for C  read from file:
     ../C_LDA.UPF
     MD5 check sum: 407c1fe918d93b14b177d5600f28733c
     Pseudo is Ultrasoft + core correction, Zval =  4.0
     Generated by new atomic code, or converted to UPF format
     Using radial grid of  721 points,  4 beta functions with: 
                l(1) =   0
                l(2) =   0
                l(3) =   1
                l(4) =   1
     Q(r) pseudized with  8 coefficients,  rinner =    1.100   1.100   1.100


     atomic species   valence    mass     pseudopotential
        C              4.00    12.01100     C ( 1.00)

     48 Sym. Ops., with inversion, found (24 have fractional translation)



   Cartesian axes

     site n.     atom                  positions (alat units)
         1           C   tau(   1) = (   0.0000000   0.0000000   0.0000000  )
         2           C   tau(   2) = (   0.2500000   0.2500000   0.2500000  )

     number of k points=    47
                       cart. coord. in units 2pi/alat
        k(    1) = (   0.0000000   0.0000000   0.0000000), wk =   0.0020000
        k(    2) = (  -0.1000000   0.1000000  -0.1000000), wk =   0.0160000
        k(    3) = (  -0.2000000   0.2000000  -0.2000000), wk =   0.0160000
        k(    4) = (  -0.3000000   0.3000000  -0.3000000), wk =   0.0160000
        k(    5) = (  -0.4000000   0.4000000  -0.4000000), wk =   0.0160000
        k(    6) = (   0.5000000  -0.5000000   0.5000000), wk =   0.0080000
        k(    7) = (   0.0000000   0.2000000   0.0000000), wk =   0.0120000
        k(    8) = (  -0.1000000   0.3000000  -0.1000000), wk =   0.0480000
        k(    9) = (  -0.2000000   0.4000000  -0.2000000), wk =   0.0480000
        k(   10) = (  -0.3000000   0.5000000  -0.3000000), wk =   0.0480000
        k(   11) = (   0.6000000  -0.4000000   0.6000000), wk =   0.0480000
        k(   12) = (   0.5000000  -0.3000000   0.5000000), wk =   0.0480000
        k(   13) = (   0.4000000  -0.2000000   0.4000000), wk =   0.0480000
        k(   14) = (   0.3000000  -0.1000000   0.3000000), wk =   0.0480000
        k(   15) = (   0.2000000   0.0000000   0.2000000), wk =   0.0240000
        k(   16) = (   0.0000000   0.4000000   0.0000000), wk =   0.0120000
        k(   17) = (  -0.1000000   0.5000000  -0.1000000), wk =   0.0480000
        k(   18) = (  -0.2000000   0.6000000  -0.2000000), wk =   0.0480000
        k(   19) = (   0.7000000  -0.3000000   0.7000000), wk =   0.0480000
        k(   20) = (   0.6000000  -0.2000000   0.6000000), wk =   0.0480000
        k(   21) = (   0.5000000  -0.1000000   0.5000000), wk =   0.0480000
        k(   22) = (   0.4000000   0.0000000   0.4000000), wk =   0.0240000
        k(   23) = (  -0.0000000   0.6000000  -0.0000000), wk =   0.0120000
        k(   24) = (  -0.1000000   0.7000000  -0.1000000), wk =   0.0480000
        k(   25) = (   0.8000000  -0.2000000   0.8000000), wk =   0.0480000
        k(   26) = (   0.7000000  -0.1000000   0.7000000), wk =   0.0480000
        k(   27) = (   0.6000000   0.0000000   0.6000000), wk =   0.0240000
        k(   28) = (   0.0000000   0.8000000   0.0000000), wk =   0.0120000
        k(   29) = (   0.9000000  -0.1000000   0.9000000), wk =   0.0480000
        k(   30) = (   0.8000000   0.0000000   0.8000000), wk =   0.0240000
        k(   31) = (   0.0000000  -1.0000000   0.0000000), wk =   0.0060000
        k(   32) = (  -0.2000000   0.4000000   0.0000000), wk =   0.0480000
        k(   33) = (  -0.3000000   0.5000000  -0.1000000), wk =   0.0960000
        k(   34) = (   0.6000000  -0.4000000   0.8000000), wk =   0.0960000
        k(   35) = (   0.5000000  -0.3000000   0.7000000), wk =   0.0480000
        k(   36) = (  -0.2000000   0.6000000   0.0000000), wk =   0.0480000
        k(   37) = (   0.7000000  -0.3000000   0.9000000), wk =   0.0960000
        k(   38) = (   0.6000000  -0.2000000   0.8000000), wk =   0.0960000
        k(   39) = (   0.5000000  -0.1000000   0.7000000), wk =   0.0960000
        k(   40) = (   0.4000000   0.0000000   0.6000000), wk =   0.0480000
        k(   41) = (   0.8000000  -0.2000000   1.0000000), wk =   0.0480000
        k(   42) = (   0.7000000  -0.1000000   0.9000000), wk =   0.0960000
        k(   43) = (   0.6000000   0.0000000   0.8000000), wk =   0.0480000
        k(   44) = (  -0.2000000  -1.0000000  -0.0000000), wk =   0.0240000
        k(   45) = (   0.6000000  -0.2000000   1.0000000), wk =   0.0480000
        k(   46) = (   0.5000000  -0.1000000   0.9000000), wk =   0.0480000
        k(   47) = (  -0.4000000  -1.0000000  -0.0000000), wk =   0.0240000

     Dense  grid:     1687 G-vectors     FFT dimensions: (  18,  18,  18)

     Estimated max dynamical RAM per process >       3.31 MB

     Initial potential from superposition of free atoms

     starting charge       7.9999, renormalised to       8.0000
     Starting wfcs are    8 randomized atomic wfcs

     total cpu time spent up to now is        0.9 secs

     Self-consistent Calculation

     iteration #  1     ecut=    30.00 Ry     beta= 0.70
     CG style diagonalization
     ethr =  1.00E-02,  avg # of iterations =  3.0

     total cpu time spent up to now is        1.3 secs

     total energy              =     -23.04009989 Ry
     estimated scf accuracy    <       0.13044922 Ry

     iteration #  2     ecut=    30.00 Ry     beta= 0.70
     CG style diagonalization
     ethr =  1.63E-03,  avg # of iterations =  3.6

     total cpu time spent up to now is        1.8 secs

     total energy              =     -23.05454198 Ry
     estimated scf accuracy    <       0.00146839 Ry

     iteration #  3     ecut=    30.00 Ry     beta= 0.70
     CG style diagonalization
     ethr =  1.84E-05,  avg # of iterations =  3.9

     total cpu time spent up to now is        2.3 secs

     total energy              =     -23.05493691 Ry
     estimated scf accuracy    <       0.00004681 Ry

     iteration #  4     ecut=    30.00 Ry     beta= 0.70
     CG style diagonalization
     ethr =  5.85E-07,  avg # of iterations =  4.0

     total cpu time spent up to now is        2.8 secs

     total energy              =     -23.05494986 Ry
     estimated scf accuracy    <       0.00000103 Ry

     iteration #  5     ecut=    30.00 Ry     beta= 0.70
     CG style diagonalization
     ethr =  1.29E-08,  avg # of iterations =  4.1

     total cpu time spent up to now is        3.3 secs

     End of self-consistent calculation

          k = 0.0000 0.0000 0.0000 (   181 PWs)   bands (ev):

    -8.2170  13.0970  13.0970  13.0970

          k =-0.1000 0.1000-0.1000 (   202 PWs)   bands (ev):

    -7.9407  11.4399  12.6512  12.6512

          k =-0.2000 0.2000-0.2000 (   205 PWs)   bands (ev):

    -7.1166   8.2618  11.7776  11.7776

          k =-0.3000 0.3000-0.3000 (   205 PWs)   bands (ev):

    -5.7629   4.8817  10.9896  10.9896

          k =-0.4000 0.4000-0.4000 (   210 PWs)   bands (ev):

    -3.9434   1.7515  10.4798  10.4798

          k = 0.5000-0.5000 0.5000 (   210 PWs)   bands (ev):

    -2.3798  -0.2623  10.3057  10.3057

          k = 0.0000 0.2000 0.0000 (   206 PWs)   bands (ev):

    -7.8487  11.8710  11.8710  12.2577

          k =-0.1000 0.3000-0.1000 (   209 PWs)   bands (ev):

    -7.2075   9.3693  10.9054  11.7841

          k =-0.2000 0.4000-0.2000 (   208 PWs)   bands (ev):

    -6.0300   6.1205  10.1620  10.9190

          k =-0.3000 0.5000-0.3000 (   211 PWs)   bands (ev):

    -4.3572   2.9315   9.7877  10.0514

          k = 0.6000-0.4000 0.6000 (   219 PWs)   bands (ev):

    -2.4547   0.3049   9.4175   9.8172

          k = 0.5000-0.3000 0.5000 (   214 PWs)   bands (ev):

    -3.0547   1.0545   9.1226  10.2296

          k = 0.4000-0.2000 0.4000 (   213 PWs)   bands (ev):

    -4.9653   3.9739   9.2193  10.9591

          k = 0.3000-0.1000 0.3000 (   210 PWs)   bands (ev):

    -6.4809   7.2325   9.7256  11.8664

          k = 0.2000 0.0000 0.2000 (   212 PWs)   bands (ev):

    -7.4819  10.2053  10.7705  12.6244

          k = 0.0000 0.4000 0.0000 (   210 PWs)   bands (ev):

    -6.7513   9.8738   9.8738  10.0978

          k =-0.1000 0.5000-0.1000 (   211 PWs)   bands (ev):

    -5.7574   7.3364   9.0857   9.4961

          k =-0.2000 0.6000-0.2000 (   216 PWs)   bands (ev):

    -4.2559   4.3859   8.4408   8.7013

          k = 0.7000-0.3000 0.7000 (   212 PWs)   bands (ev):

    -2.3750   1.6364   7.4424   8.7668

          k = 0.6000-0.2000 0.6000 (   214 PWs)   bands (ev):

    -1.8094   0.9630   6.7694   9.2641

          k = 0.5000-0.1000 0.5000 (   214 PWs)   bands (ev):

    -3.6673   3.4983   6.5420  10.1117

          k = 0.4000 0.0000 0.4000 (   210 PWs)   bands (ev):

    -5.3157   6.2108   7.1031  11.1183

          k =-0.0000 0.6000-0.0000 (   218 PWs)   bands (ev):

    -4.9502   7.1476   8.2146   8.2146

          k =-0.1000 0.7000-0.1000 (   214 PWs)   bands (ev):

    -3.6318   5.1799   7.1223   7.7443

          k = 0.8000-0.2000 0.8000 (   213 PWs)   bands (ev):

    -1.8820   2.9926   5.5908   7.7411

          k = 0.7000-0.1000 0.7000 (   218 PWs)   bands (ev):

    -0.4898   1.5144   4.4464   8.2011

          k = 0.6000 0.0000 0.6000 (   216 PWs)   bands (ev):

    -1.9568   3.0825   4.2296   9.0534

          k = 0.0000 0.8000 0.0000 (   214 PWs)   bands (ev):

    -2.5006   3.8124   7.1617   7.1617

          k = 0.9000-0.1000 0.9000 (   215 PWs)   bands (ev):

    -0.9192   2.1886   6.0445   7.0456

          k = 0.8000 0.0000 0.8000 (   212 PWs)   bands (ev):

     0.5796   1.1428   4.2899   7.4096

          k = 0.0000-1.0000 0.0000 (   222 PWs)   bands (ev):

     0.4879   0.4879   6.8030   6.8030

          k =-0.2000 0.4000 0.0000 (   208 PWs)   bands (ev):

    -6.3896   8.1314   8.8818  11.2153

          k =-0.3000 0.5000-0.1000 (   211 PWs)   bands (ev):

    -5.0487   5.3106   8.0317  10.3186

          k = 0.6000-0.4000 0.8000 (   212 PWs)   bands (ev):

    -3.2548   2.3433   7.8051   9.4466

          k = 0.5000-0.3000 0.7000 (   218 PWs)   bands (ev):

    -1.7359   0.4105   7.8053   9.0577

          k =-0.2000 0.6000 0.0000 (   213 PWs)   bands (ev):

    -4.6006   6.1401   7.2943   8.7775

          k = 0.7000-0.3000 0.9000 (   213 PWs)   bands (ev):

    -2.9682   3.7962   6.4372   7.9239

          k = 0.6000-0.2000 0.8000 (   213 PWs)   bands (ev):

    -1.1501   1.4972   5.8045   7.7564

          k = 0.5000-0.1000 0.7000 (   214 PWs)   bands (ev):

    -1.7381   2.2344   5.3284   8.3343

          k = 0.4000 0.0000 0.6000 (   212 PWs)   bands (ev):

    -3.5727   4.5389   5.6063   9.3222

          k = 0.8000-0.2000 1.0000 (   213 PWs)   bands (ev):

    -2.1809   3.7317   6.3162   6.7964

          k = 0.7000-0.1000 0.9000 (   213 PWs)   bands (ev):

    -0.3986   2.1992   4.7345   6.6780

          k = 0.6000 0.0000 0.8000 (   212 PWs)   bands (ev):

    -0.0773   2.0109   3.7486   7.2975

          k =-0.2000-1.0000-0.0000 (   210 PWs)   bands (ev):

     0.7208   0.7208   6.0856   6.0856

          k = 0.6000-0.2000 1.0000 (   210 PWs)   bands (ev):

    -1.2768   3.0933   4.7718   6.7037

          k = 0.5000-0.1000 0.9000 (   210 PWs)   bands (ev):

     0.1217   1.8567   4.4680   6.1149

          k =-0.4000-1.0000-0.0000 (   212 PWs)   bands (ev):

     1.2123   1.2123   4.9446   4.9446

     highest occupied level (ev):    13.0970

!    total energy              =     -23.05495035 Ry
     estimated scf accuracy    <          6.0E-09 Ry

     The total energy is the sum of the following terms:
     one-electron contribution =       7.94709250 Ry
     hartree contribution      =       1.91655217 Ry
     xc contribution           =      -7.34329269 Ry
     ewald contribution        =     -25.57530233 Ry

     convergence has been achieved in   5 iterations

     Forces acting on atoms (cartesian axes, Ry/au):

     atom    1 type  1   force =     0.00000000    0.00000000    0.00000000
     atom    2 type  1   force =    -0.00000000   -0.00000000   -0.00000000

     Total force =     0.000000     Total SCF correction =     0.000000


     Computing stress (Cartesian axis) and pressure

          total   stress  (Ry/bohr**3)                   (kbar)     P=     -120.81
  -0.00082125  -0.00000000  -0.00000000         -120.81       -0.00       -0.00
  -0.00000000  -0.00082125   0.00000000           -0.00     -120.81        0.00
   0.00000000   0.00000000  -0.00082125            0.00        0.00     -120.81


     Writing all to output data dir ./Diamond.save/
 
     init_run     :      0.45s CPU      0.50s WALL (       1 calls)
     electrons    :      2.02s CPU      2.40s WALL (       1 calls)
     forces       :      0.02s CPU      0.03s WALL (       1 calls)
     stress       :      0.12s CPU      0.12s WALL (       1 calls)

     Called by init_run:
     wfcinit      :      0.18s CPU      0.20s WALL (       1 calls)
     potinit      :      0.00s CPU      0.00s WALL (       1 calls)
     hinit0       :      0.26s CPU      0.28s WALL (       1 calls)

     Called by electrons:
     c_bands      :      1.76s CPU      2.12s WALL (       5 calls)
     sum_band     :      0.23s CPU      0.24s WALL (       5 calls)
     v_of_rho     :      0.01s CPU      0.01s WALL (       6 calls)
     newd         :      0.02s CPU      0.02s WALL (       6 calls)
     mix_rho      :      0.00s CPU      0.00s WALL (       5 calls)

     Called by c_bands:
     init_us_2    :      0.09s CPU      0.10s WALL (     611 calls)
     init_us_2:cp :      0.08s CPU      0.10s WALL (     611 calls)
     ccgdiagg     :      1.36s CPU      1.64s WALL (     235 calls)
     wfcrot       :      0.47s CPU      0.53s WALL (     235 calls)

     Called by *cgdiagg:
     h_psi        :      1.34s CPU      1.58s WALL (    2946 calls)
     s_psi        :      0.10s CPU      0.12s WALL (    5657 calls)

     Called by h_psi:
     h_psi:calbec :      0.09s CPU      0.10s WALL (    2946 calls)
     vloc_psi     :      1.09s CPU      1.28s WALL (    2946 calls)
     add_vuspsi   :      0.06s CPU      0.07s WALL (    2946 calls)
     hs_1psi      :      1.12s CPU      1.34s WALL (    2711 calls)
     s_1psi       :      0.16s CPU      0.20s WALL (    2711 calls)

     General routines
     calbec       :      0.11s CPU      0.13s WALL (    6127 calls)
     fft          :      0.01s CPU      0.03s WALL (      32 calls)
     ffts         :      0.00s CPU      0.00s WALL (       5 calls)
     fftw         :      1.05s CPU      1.22s WALL (    8618 calls)
 
     Parallel routines
 
     PWSCF        :      2.96s CPU      3.82s WALL

 
   This run was terminated on:  17: 9: 7  14Mar2022            

=------------------------------------------------------------------------------=
   JOB DONE.
=------------------------------------------------------------------------------=
