
     Program PWSCF v.7.0 starts on 14Mar2022 at 17:10:18 

     This program is part of the open-source Quantum ESPRESSO suite
     for quantum simulation of materials; please cite
         "P. Giannozzi et al., J. Phys.:Condens. Matter 21 395502 (2009);
         "P. Giannozzi et al., J. Phys.:Condens. Matter 29 465901 (2017);
         "P. Giannozzi et al., J. Chem. Phys. 152 154105 (2020);
          URL http://www.quantum-espresso.org", 
     in publications or presentations arising from this work. More details at
     http://www.quantum-espresso.org/quote

     Parallel version (MPI), running on     1 processors

     MPI processes distributed on     1 nodes
     91913 MiB available memory on the printing compute node when the environment starts
 
     Waiting for input...
     Reading input from standard input
Warning: card &CELL ignored
Warning: card  CELL_DYNAMICS = 'BFGS', ignored
Warning: card  PRESS=0.1D0, ignored
Warning: card / ignored
     Message from routine read_cards :
     DEPRECATED: no units specified in ATOMIC_POSITIONS card
     Message from routine read_cards :
     ATOMIC_POSITIONS: units set to alat

     Current dimensions of program PWSCF are:
     Max number of different atomic species (ntypx) = 10
     Max number of k-points (npk) =  40000
     Max angular momentum in pseudopotentials (lmaxx) =  4

     Subspace diagonalization in iterative solution of the eigenvalue problem:
     a serial algorithm will be used

 
     G-vector sticks info
     --------------------
     sticks:   dense  smooth     PW     G-vecs:    dense   smooth      PW
     Sum         685     685    211                11935    11935    2085
 
     Using Slab Decomposition
 


     bravais-lattice index     =            2
     lattice parameter (alat)  =       6.7400  a.u.
     unit-cell volume          =      76.5455 (a.u.)^3
     number of atoms/cell      =            2
     number of atomic types    =            1
     number of electrons       =         8.00
     number of Kohn-Sham states=            4
     kinetic-energy cutoff     =     110.0000  Ry
     charge density cutoff     =     440.0000  Ry
     scf convergence threshold =      1.0E-08
     mixing beta               =       0.7000
     number of iterations used =            8  plain     mixing
     Exchange-correlation= SLA  PZ   NOGX NOGC
                           (   1   1   0   0   0   0   0)

     celldm(1)=   6.740000  celldm(2)=   0.000000  celldm(3)=   0.000000
     celldm(4)=   0.000000  celldm(5)=   0.000000  celldm(6)=   0.000000

     crystal axes: (cart. coord. in units of alat)
               a(1) = (  -0.500000   0.000000   0.500000 )  
               a(2) = (   0.000000   0.500000   0.500000 )  
               a(3) = (  -0.500000   0.500000   0.000000 )  

     reciprocal axes: (cart. coord. in units 2 pi/alat)
               b(1) = ( -1.000000 -1.000000  1.000000 )  
               b(2) = (  1.000000  1.000000  1.000000 )  
               b(3) = ( -1.000000  1.000000 -1.000000 )  


     PseudoPot. # 1 for C  read from file:
     ../C_LDA.UPF
     MD5 check sum: 407c1fe918d93b14b177d5600f28733c
     Pseudo is Ultrasoft + core correction, Zval =  4.0
     Generated by new atomic code, or converted to UPF format
     Using radial grid of  721 points,  4 beta functions with: 
                l(1) =   0
                l(2) =   0
                l(3) =   1
                l(4) =   1
     Q(r) pseudized with  8 coefficients,  rinner =    1.100   1.100   1.100


     atomic species   valence    mass     pseudopotential
        C              4.00    12.01100     C ( 1.00)

     48 Sym. Ops., with inversion, found (24 have fractional translation)



   Cartesian axes

     site n.     atom                  positions (alat units)
         1           C   tau(   1) = (   0.0000000   0.0000000   0.0000000  )
         2           C   tau(   2) = (   0.2500000   0.2500000   0.2500000  )

     number of k points=    47
                       cart. coord. in units 2pi/alat
        k(    1) = (   0.0000000   0.0000000   0.0000000), wk =   0.0020000
        k(    2) = (  -0.1000000   0.1000000  -0.1000000), wk =   0.0160000
        k(    3) = (  -0.2000000   0.2000000  -0.2000000), wk =   0.0160000
        k(    4) = (  -0.3000000   0.3000000  -0.3000000), wk =   0.0160000
        k(    5) = (  -0.4000000   0.4000000  -0.4000000), wk =   0.0160000
        k(    6) = (   0.5000000  -0.5000000   0.5000000), wk =   0.0080000
        k(    7) = (   0.0000000   0.2000000   0.0000000), wk =   0.0120000
        k(    8) = (  -0.1000000   0.3000000  -0.1000000), wk =   0.0480000
        k(    9) = (  -0.2000000   0.4000000  -0.2000000), wk =   0.0480000
        k(   10) = (  -0.3000000   0.5000000  -0.3000000), wk =   0.0480000
        k(   11) = (   0.6000000  -0.4000000   0.6000000), wk =   0.0480000
        k(   12) = (   0.5000000  -0.3000000   0.5000000), wk =   0.0480000
        k(   13) = (   0.4000000  -0.2000000   0.4000000), wk =   0.0480000
        k(   14) = (   0.3000000  -0.1000000   0.3000000), wk =   0.0480000
        k(   15) = (   0.2000000   0.0000000   0.2000000), wk =   0.0240000
        k(   16) = (   0.0000000   0.4000000   0.0000000), wk =   0.0120000
        k(   17) = (  -0.1000000   0.5000000  -0.1000000), wk =   0.0480000
        k(   18) = (  -0.2000000   0.6000000  -0.2000000), wk =   0.0480000
        k(   19) = (   0.7000000  -0.3000000   0.7000000), wk =   0.0480000
        k(   20) = (   0.6000000  -0.2000000   0.6000000), wk =   0.0480000
        k(   21) = (   0.5000000  -0.1000000   0.5000000), wk =   0.0480000
        k(   22) = (   0.4000000   0.0000000   0.4000000), wk =   0.0240000
        k(   23) = (  -0.0000000   0.6000000  -0.0000000), wk =   0.0120000
        k(   24) = (  -0.1000000   0.7000000  -0.1000000), wk =   0.0480000
        k(   25) = (   0.8000000  -0.2000000   0.8000000), wk =   0.0480000
        k(   26) = (   0.7000000  -0.1000000   0.7000000), wk =   0.0480000
        k(   27) = (   0.6000000   0.0000000   0.6000000), wk =   0.0240000
        k(   28) = (   0.0000000   0.8000000   0.0000000), wk =   0.0120000
        k(   29) = (   0.9000000  -0.1000000   0.9000000), wk =   0.0480000
        k(   30) = (   0.8000000   0.0000000   0.8000000), wk =   0.0240000
        k(   31) = (   0.0000000  -1.0000000   0.0000000), wk =   0.0060000
        k(   32) = (  -0.2000000   0.4000000   0.0000000), wk =   0.0480000
        k(   33) = (  -0.3000000   0.5000000  -0.1000000), wk =   0.0960000
        k(   34) = (   0.6000000  -0.4000000   0.8000000), wk =   0.0960000
        k(   35) = (   0.5000000  -0.3000000   0.7000000), wk =   0.0480000
        k(   36) = (  -0.2000000   0.6000000   0.0000000), wk =   0.0480000
        k(   37) = (   0.7000000  -0.3000000   0.9000000), wk =   0.0960000
        k(   38) = (   0.6000000  -0.2000000   0.8000000), wk =   0.0960000
        k(   39) = (   0.5000000  -0.1000000   0.7000000), wk =   0.0960000
        k(   40) = (   0.4000000   0.0000000   0.6000000), wk =   0.0480000
        k(   41) = (   0.8000000  -0.2000000   1.0000000), wk =   0.0480000
        k(   42) = (   0.7000000  -0.1000000   0.9000000), wk =   0.0960000
        k(   43) = (   0.6000000   0.0000000   0.8000000), wk =   0.0480000
        k(   44) = (  -0.2000000  -1.0000000  -0.0000000), wk =   0.0240000
        k(   45) = (   0.6000000  -0.2000000   1.0000000), wk =   0.0480000
        k(   46) = (   0.5000000  -0.1000000   0.9000000), wk =   0.0480000
        k(   47) = (  -0.4000000  -1.0000000  -0.0000000), wk =   0.0240000

     Dense  grid:    11935 G-vectors     FFT dimensions: (  32,  32,  32)

     Estimated max dynamical RAM per process >      21.53 MB

     Initial potential from superposition of free atoms

     starting charge       7.9999, renormalised to       8.0000
     Starting wfcs are    8 randomized atomic wfcs

     total cpu time spent up to now is        1.5 secs

     Self-consistent Calculation

     iteration #  1     ecut=   110.00 Ry     beta= 0.70
     CG style diagonalization
     ethr =  1.00E-02,  avg # of iterations =  3.0

     total cpu time spent up to now is        2.7 secs

     total energy              =     -23.04074453 Ry
     estimated scf accuracy    <       0.13317733 Ry

     iteration #  2     ecut=   110.00 Ry     beta= 0.70
     CG style diagonalization
     ethr =  1.66E-03,  avg # of iterations =  3.6

     total cpu time spent up to now is        4.0 secs

     total energy              =     -23.05697258 Ry
     estimated scf accuracy    <       0.00138009 Ry

     iteration #  3     ecut=   110.00 Ry     beta= 0.70
     CG style diagonalization
     ethr =  1.73E-05,  avg # of iterations =  4.0

     total cpu time spent up to now is        5.4 secs

     total energy              =     -23.05745096 Ry
     estimated scf accuracy    <       0.00005769 Ry

     iteration #  4     ecut=   110.00 Ry     beta= 0.70
     CG style diagonalization
     ethr =  7.21E-07,  avg # of iterations =  4.1

     total cpu time spent up to now is        6.9 secs

     total energy              =     -23.05747143 Ry
     estimated scf accuracy    <       0.00000377 Ry

     iteration #  5     ecut=   110.00 Ry     beta= 0.70
     CG style diagonalization
     ethr =  4.71E-08,  avg # of iterations =  3.9

     total cpu time spent up to now is        8.3 secs

     total energy              =     -23.05747296 Ry
     estimated scf accuracy    <       0.00000009 Ry

     iteration #  6     ecut=   110.00 Ry     beta= 0.70
     CG style diagonalization
     ethr =  1.09E-09,  avg # of iterations =  4.3

     total cpu time spent up to now is        9.8 secs

     End of self-consistent calculation

          k = 0.0000 0.0000 0.0000 (  1459 PWs)   bands (ev):

    -8.2163  13.0897  13.0897  13.0897

          k =-0.1000 0.1000-0.1000 (  1459 PWs)   bands (ev):

    -7.9400  11.4337  12.6442  12.6442

          k =-0.2000 0.2000-0.2000 (  1480 PWs)   bands (ev):

    -7.1160   8.2572  11.7707  11.7707

          k =-0.3000 0.3000-0.3000 (  1483 PWs)   bands (ev):

    -5.7624   4.8787  10.9830  10.9830

          k =-0.4000 0.4000-0.4000 (  1486 PWs)   bands (ev):

    -3.9431   1.7496  10.4733  10.4733

          k = 0.5000-0.5000 0.5000 (  1476 PWs)   bands (ev):

    -2.3795  -0.2640  10.2994  10.2994

          k = 0.0000 0.2000 0.0000 (  1459 PWs)   bands (ev):

    -7.8481  11.8644  11.8644  12.2511

          k =-0.1000 0.3000-0.1000 (  1479 PWs)   bands (ev):

    -7.2069   9.3642  10.8990  11.7777

          k =-0.2000 0.4000-0.2000 (  1483 PWs)   bands (ev):

    -6.0295   6.1170  10.1557  10.9128

          k =-0.3000 0.5000-0.3000 (  1478 PWs)   bands (ev):

    -4.3570   2.9292   9.7816  10.0456

          k = 0.6000-0.4000 0.6000 (  1494 PWs)   bands (ev):

    -2.4545   0.3033   9.4120   9.8111

          k = 0.5000-0.3000 0.5000 (  1488 PWs)   bands (ev):

    -3.0545   1.0528   9.1172  10.2232

          k = 0.4000-0.2000 0.4000 (  1484 PWs)   bands (ev):

    -4.9649   3.9713   9.2139  10.9523

          k = 0.3000-0.1000 0.3000 (  1481 PWs)   bands (ev):

    -6.4804   7.2286   9.7200  11.8593

          k = 0.2000 0.0000 0.2000 (  1472 PWs)   bands (ev):

    -7.4813  10.1998  10.7645  12.6174

          k = 0.0000 0.4000 0.0000 (  1479 PWs)   bands (ev):

    -6.7507   9.8678   9.8678  10.0930

          k =-0.1000 0.5000-0.1000 (  1488 PWs)   bands (ev):

    -5.7570   7.3323   9.0799   9.4909

          k =-0.2000 0.6000-0.2000 (  1484 PWs)   bands (ev):

    -4.2557   4.3833   8.4361   8.6957

          k = 0.7000-0.3000 0.7000 (  1489 PWs)   bands (ev):

    -2.3750   1.6345   7.4381   8.7611

          k = 0.6000-0.2000 0.6000 (  1491 PWs)   bands (ev):

    -1.8093   0.9612   6.7654   9.2581

          k = 0.5000-0.1000 0.5000 (  1495 PWs)   bands (ev):

    -3.6671   3.4959   6.5381  10.1053

          k = 0.4000 0.0000 0.4000 (  1496 PWs)   bands (ev):

    -5.3153   6.2074   7.0987  11.1115

          k =-0.0000 0.6000-0.0000 (  1491 PWs)   bands (ev):

    -4.9498   7.1446   8.2092   8.2092

          k =-0.1000 0.7000-0.1000 (  1492 PWs)   bands (ev):

    -3.6316   5.1774   7.1176   7.7391

          k = 0.8000-0.2000 0.8000 (  1494 PWs)   bands (ev):

    -1.8821   2.9909   5.5870   7.7359

          k = 0.7000-0.1000 0.7000 (  1498 PWs)   bands (ev):

    -0.4899   1.5127   4.4433   8.1957

          k = 0.6000 0.0000 0.6000 (  1500 PWs)   bands (ev):

    -1.9569   3.0806   4.2263   9.0475

          k = 0.0000 0.8000 0.0000 (  1496 PWs)   bands (ev):

    -2.5007   3.8106   7.1567   7.1567

          k = 0.9000-0.1000 0.9000 (  1495 PWs)   bands (ev):

    -0.9196   2.1874   6.0402   7.0407

          k = 0.8000 0.0000 0.8000 (  1496 PWs)   bands (ev):

     0.5791   1.1417   4.2862   7.4045

          k = 0.0000-1.0000 0.0000 (  1524 PWs)   bands (ev):

     0.4871   0.4871   6.7981   6.7981

          k =-0.2000 0.4000 0.0000 (  1482 PWs)   bands (ev):

    -6.3890   8.1270   8.8765  11.2089

          k =-0.3000 0.5000-0.1000 (  1490 PWs)   bands (ev):

    -5.0483   5.3075   8.0270  10.3124

          k = 0.6000-0.4000 0.8000 (  1490 PWs)   bands (ev):

    -3.2547   2.3412   7.8006   9.4408

          k = 0.5000-0.3000 0.7000 (  1496 PWs)   bands (ev):

    -1.7357   0.4087   7.8009   9.0520

          k =-0.2000 0.6000 0.0000 (  1483 PWs)   bands (ev):

    -4.6003   6.1370   7.2896   8.7722

          k = 0.7000-0.3000 0.9000 (  1490 PWs)   bands (ev):

    -2.9681   3.7939   6.4333   7.9188

          k = 0.6000-0.2000 0.8000 (  1501 PWs)   bands (ev):

    -1.1502   1.4954   5.8010   7.7513

          k = 0.5000-0.1000 0.7000 (  1500 PWs)   bands (ev):

    -1.7382   2.2325   5.3250   8.3290

          k = 0.4000 0.0000 0.6000 (  1497 PWs)   bands (ev):

    -3.5725   4.5365   5.6026   9.3164

          k = 0.8000-0.2000 1.0000 (  1498 PWs)   bands (ev):

    -2.1810   3.7300   6.3118   6.7916

          k = 0.7000-0.1000 0.9000 (  1495 PWs)   bands (ev):

    -0.3990   2.1980   4.7308   6.6734

          k = 0.6000 0.0000 0.8000 (  1489 PWs)   bands (ev):

    -0.0776   2.0096   3.7452   7.2927

          k =-0.2000-1.0000-0.0000 (  1506 PWs)   bands (ev):

     0.7200   0.7200   6.0813   6.0813

          k = 0.6000-0.2000 1.0000 (  1504 PWs)   bands (ev):

    -1.2770   3.0917   4.7682   6.6992

          k = 0.5000-0.1000 0.9000 (  1498 PWs)   bands (ev):

     0.1213   1.8553   4.4647   6.1105

          k =-0.4000-1.0000-0.0000 (  1496 PWs)   bands (ev):

     1.2115   1.2115   4.9407   4.9407

     highest occupied level (ev):    13.0897

!    total energy              =     -23.05747302 Ry
     estimated scf accuracy    <          3.5E-10 Ry

     The total energy is the sum of the following terms:
     one-electron contribution =       7.94405800 Ry
     hartree contribution      =       1.91737346 Ry
     xc contribution           =      -7.34360220 Ry
     ewald contribution        =     -25.57530229 Ry

     convergence has been achieved in   6 iterations

     Forces acting on atoms (cartesian axes, Ry/au):

     atom    1 type  1   force =    -0.00000000   -0.00000000   -0.00000000
     atom    2 type  1   force =     0.00000000   -0.00000000    0.00000000

     Total force =     0.000000     Total SCF correction =     0.000000


     Computing stress (Cartesian axis) and pressure

          total   stress  (Ry/bohr**3)                   (kbar)     P=     -128.65
  -0.00087453   0.00000000  -0.00000000         -128.65        0.00       -0.00
   0.00000000  -0.00087453   0.00000000            0.00     -128.65        0.00
  -0.00000000   0.00000000  -0.00087453           -0.00        0.00     -128.65


     Writing all to output data dir ./Diamond.save/
 
     init_run     :      1.07s CPU      1.12s WALL (       1 calls)
     electrons    :      7.69s CPU      8.34s WALL (       1 calls)
     forces       :      0.12s CPU      0.13s WALL (       1 calls)
     stress       :      0.75s CPU      0.76s WALL (       1 calls)

     Called by init_run:
     wfcinit      :      0.58s CPU      0.60s WALL (       1 calls)
     potinit      :      0.01s CPU      0.02s WALL (       1 calls)
     hinit0       :      0.42s CPU      0.43s WALL (       1 calls)

     Called by electrons:
     c_bands      :      6.50s CPU      7.08s WALL (       6 calls)
     sum_band     :      1.04s CPU      1.08s WALL (       6 calls)
     v_of_rho     :      0.06s CPU      0.06s WALL (       7 calls)
     newd         :      0.09s CPU      0.10s WALL (       7 calls)
     mix_rho      :      0.01s CPU      0.02s WALL (       6 calls)

     Called by c_bands:
     init_us_2    :      0.61s CPU      0.66s WALL (     705 calls)
     init_us_2:cp :      0.59s CPU      0.65s WALL (     705 calls)
     ccgdiagg     :      5.06s CPU      5.52s WALL (     282 calls)
     wfcrot       :      1.55s CPU      1.63s WALL (     282 calls)

     Called by *cgdiagg:
     h_psi        :      5.38s CPU      5.77s WALL (    3662 calls)
     s_psi        :      0.32s CPU      0.37s WALL (    7042 calls)

     Called by h_psi:
     h_psi:calbec :      0.42s CPU      0.45s WALL (    3662 calls)
     vloc_psi     :      4.53s CPU      4.85s WALL (    3662 calls)
     add_vuspsi   :      0.24s CPU      0.26s WALL (    3662 calls)
     hs_1psi      :      4.35s CPU      4.71s WALL (    3380 calls)
     s_1psi       :      0.44s CPU      0.49s WALL (    3380 calls)

     General routines
     calbec       :      0.60s CPU      0.67s WALL (    7559 calls)
     fft          :      0.02s CPU      0.04s WALL (      36 calls)
     ffts         :      0.00s CPU      0.00s WALL (       6 calls)
     fftw         :      3.94s CPU      4.21s WALL (   10520 calls)
 
     Parallel routines
 
     PWSCF        :      9.98s CPU     11.15s WALL

 
   This run was terminated on:  17:10:29  14Mar2022            

=------------------------------------------------------------------------------=
   JOB DONE.
=------------------------------------------------------------------------------=
