
     Program PWSCF v.7.0 starts on 14Mar2022 at 17: 8:58 

     This program is part of the open-source Quantum ESPRESSO suite
     for quantum simulation of materials; please cite
         "P. Giannozzi et al., J. Phys.:Condens. Matter 21 395502 (2009);
         "P. Giannozzi et al., J. Phys.:Condens. Matter 29 465901 (2017);
         "P. Giannozzi et al., J. Chem. Phys. 152 154105 (2020);
          URL http://www.quantum-espresso.org", 
     in publications or presentations arising from this work. More details at
     http://www.quantum-espresso.org/quote

     Parallel version (MPI), running on     1 processors

     MPI processes distributed on     1 nodes
     91924 MiB available memory on the printing compute node when the environment starts
 
     Waiting for input...
     Reading input from standard input
Warning: card &CELL ignored
Warning: card  CELL_DYNAMICS = 'BFGS', ignored
Warning: card  PRESS=0.1D0, ignored
Warning: card / ignored
     Message from routine read_cards :
     DEPRECATED: no units specified in ATOMIC_POSITIONS card
     Message from routine read_cards :
     ATOMIC_POSITIONS: units set to alat

     Current dimensions of program PWSCF are:
     Max number of different atomic species (ntypx) = 10
     Max number of k-points (npk) =  40000
     Max angular momentum in pseudopotentials (lmaxx) =  4

     Subspace diagonalization in iterative solution of the eigenvalue problem:
     a serial algorithm will be used

 
     G-vector sticks info
     --------------------
     sticks:   dense  smooth     PW     G-vecs:    dense   smooth      PW
     Sum         121     121     55                  941      941     259
 
     Using Slab Decomposition
 


     bravais-lattice index     =            2
     lattice parameter (alat)  =       6.7400  a.u.
     unit-cell volume          =      76.5455 (a.u.)^3
     number of atoms/cell      =            2
     number of atomic types    =            1
     number of electrons       =         8.00
     number of Kohn-Sham states=            4
     kinetic-energy cutoff     =      20.0000  Ry
     charge density cutoff     =      80.0000  Ry
     scf convergence threshold =      1.0E-08
     mixing beta               =       0.7000
     number of iterations used =            8  plain     mixing
     Exchange-correlation= SLA  PZ   NOGX NOGC
                           (   1   1   0   0   0   0   0)

     celldm(1)=   6.740000  celldm(2)=   0.000000  celldm(3)=   0.000000
     celldm(4)=   0.000000  celldm(5)=   0.000000  celldm(6)=   0.000000

     crystal axes: (cart. coord. in units of alat)
               a(1) = (  -0.500000   0.000000   0.500000 )  
               a(2) = (   0.000000   0.500000   0.500000 )  
               a(3) = (  -0.500000   0.500000   0.000000 )  

     reciprocal axes: (cart. coord. in units 2 pi/alat)
               b(1) = ( -1.000000 -1.000000  1.000000 )  
               b(2) = (  1.000000  1.000000  1.000000 )  
               b(3) = ( -1.000000  1.000000 -1.000000 )  


     PseudoPot. # 1 for C  read from file:
     ../C_LDA.UPF
     MD5 check sum: 407c1fe918d93b14b177d5600f28733c
     Pseudo is Ultrasoft + core correction, Zval =  4.0
     Generated by new atomic code, or converted to UPF format
     Using radial grid of  721 points,  4 beta functions with: 
                l(1) =   0
                l(2) =   0
                l(3) =   1
                l(4) =   1
     Q(r) pseudized with  8 coefficients,  rinner =    1.100   1.100   1.100


     atomic species   valence    mass     pseudopotential
        C              4.00    12.01100     C ( 1.00)

     48 Sym. Ops., with inversion, found (24 have fractional translation)



   Cartesian axes

     site n.     atom                  positions (alat units)
         1           C   tau(   1) = (   0.0000000   0.0000000   0.0000000  )
         2           C   tau(   2) = (   0.2500000   0.2500000   0.2500000  )

     number of k points=    47
                       cart. coord. in units 2pi/alat
        k(    1) = (   0.0000000   0.0000000   0.0000000), wk =   0.0020000
        k(    2) = (  -0.1000000   0.1000000  -0.1000000), wk =   0.0160000
        k(    3) = (  -0.2000000   0.2000000  -0.2000000), wk =   0.0160000
        k(    4) = (  -0.3000000   0.3000000  -0.3000000), wk =   0.0160000
        k(    5) = (  -0.4000000   0.4000000  -0.4000000), wk =   0.0160000
        k(    6) = (   0.5000000  -0.5000000   0.5000000), wk =   0.0080000
        k(    7) = (   0.0000000   0.2000000   0.0000000), wk =   0.0120000
        k(    8) = (  -0.1000000   0.3000000  -0.1000000), wk =   0.0480000
        k(    9) = (  -0.2000000   0.4000000  -0.2000000), wk =   0.0480000
        k(   10) = (  -0.3000000   0.5000000  -0.3000000), wk =   0.0480000
        k(   11) = (   0.6000000  -0.4000000   0.6000000), wk =   0.0480000
        k(   12) = (   0.5000000  -0.3000000   0.5000000), wk =   0.0480000
        k(   13) = (   0.4000000  -0.2000000   0.4000000), wk =   0.0480000
        k(   14) = (   0.3000000  -0.1000000   0.3000000), wk =   0.0480000
        k(   15) = (   0.2000000   0.0000000   0.2000000), wk =   0.0240000
        k(   16) = (   0.0000000   0.4000000   0.0000000), wk =   0.0120000
        k(   17) = (  -0.1000000   0.5000000  -0.1000000), wk =   0.0480000
        k(   18) = (  -0.2000000   0.6000000  -0.2000000), wk =   0.0480000
        k(   19) = (   0.7000000  -0.3000000   0.7000000), wk =   0.0480000
        k(   20) = (   0.6000000  -0.2000000   0.6000000), wk =   0.0480000
        k(   21) = (   0.5000000  -0.1000000   0.5000000), wk =   0.0480000
        k(   22) = (   0.4000000   0.0000000   0.4000000), wk =   0.0240000
        k(   23) = (  -0.0000000   0.6000000  -0.0000000), wk =   0.0120000
        k(   24) = (  -0.1000000   0.7000000  -0.1000000), wk =   0.0480000
        k(   25) = (   0.8000000  -0.2000000   0.8000000), wk =   0.0480000
        k(   26) = (   0.7000000  -0.1000000   0.7000000), wk =   0.0480000
        k(   27) = (   0.6000000   0.0000000   0.6000000), wk =   0.0240000
        k(   28) = (   0.0000000   0.8000000   0.0000000), wk =   0.0120000
        k(   29) = (   0.9000000  -0.1000000   0.9000000), wk =   0.0480000
        k(   30) = (   0.8000000   0.0000000   0.8000000), wk =   0.0240000
        k(   31) = (   0.0000000  -1.0000000   0.0000000), wk =   0.0060000
        k(   32) = (  -0.2000000   0.4000000   0.0000000), wk =   0.0480000
        k(   33) = (  -0.3000000   0.5000000  -0.1000000), wk =   0.0960000
        k(   34) = (   0.6000000  -0.4000000   0.8000000), wk =   0.0960000
        k(   35) = (   0.5000000  -0.3000000   0.7000000), wk =   0.0480000
        k(   36) = (  -0.2000000   0.6000000   0.0000000), wk =   0.0480000
        k(   37) = (   0.7000000  -0.3000000   0.9000000), wk =   0.0960000
        k(   38) = (   0.6000000  -0.2000000   0.8000000), wk =   0.0960000
        k(   39) = (   0.5000000  -0.1000000   0.7000000), wk =   0.0960000
        k(   40) = (   0.4000000   0.0000000   0.6000000), wk =   0.0480000
        k(   41) = (   0.8000000  -0.2000000   1.0000000), wk =   0.0480000
        k(   42) = (   0.7000000  -0.1000000   0.9000000), wk =   0.0960000
        k(   43) = (   0.6000000   0.0000000   0.8000000), wk =   0.0480000
        k(   44) = (  -0.2000000  -1.0000000  -0.0000000), wk =   0.0240000
        k(   45) = (   0.6000000  -0.2000000   1.0000000), wk =   0.0480000
        k(   46) = (   0.5000000  -0.1000000   0.9000000), wk =   0.0480000
        k(   47) = (  -0.4000000  -1.0000000  -0.0000000), wk =   0.0240000

     Dense  grid:      941 G-vectors     FFT dimensions: (  15,  15,  15)

     Estimated max dynamical RAM per process >       1.91 MB

     Check: negative core charge=   -0.000008

     Initial potential from superposition of free atoms

     starting charge       7.9999, renormalised to       8.0000
     Starting wfcs are    8 randomized atomic wfcs

     total cpu time spent up to now is        0.8 secs

     Self-consistent Calculation

     iteration #  1     ecut=    20.00 Ry     beta= 0.70
     CG style diagonalization
     ethr =  1.00E-02,  avg # of iterations =  3.0

     total cpu time spent up to now is        1.2 secs

     total energy              =     -23.02624841 Ry
     estimated scf accuracy    <       0.12270448 Ry

     iteration #  2     ecut=    20.00 Ry     beta= 0.70
     CG style diagonalization
     ethr =  1.53E-03,  avg # of iterations =  3.3

     total cpu time spent up to now is        1.6 secs

     total energy              =     -23.03742365 Ry
     estimated scf accuracy    <       0.00178141 Ry

     iteration #  3     ecut=    20.00 Ry     beta= 0.70
     CG style diagonalization
     ethr =  2.23E-05,  avg # of iterations =  3.8

     total cpu time spent up to now is        2.1 secs

     total energy              =     -23.03781491 Ry
     estimated scf accuracy    <       0.00004611 Ry

     iteration #  4     ecut=    20.00 Ry     beta= 0.70
     CG style diagonalization
     ethr =  5.76E-07,  avg # of iterations =  3.8

     total cpu time spent up to now is        2.6 secs

     total energy              =     -23.03782364 Ry
     estimated scf accuracy    <       0.00000080 Ry

     iteration #  5     ecut=    20.00 Ry     beta= 0.70
     CG style diagonalization
     ethr =  1.00E-08,  avg # of iterations =  4.2

     total cpu time spent up to now is        3.1 secs

     total energy              =     -23.03782400 Ry
     estimated scf accuracy    <       0.00000002 Ry

     iteration #  6     ecut=    20.00 Ry     beta= 0.70
     CG style diagonalization
     ethr =  2.96E-10,  avg # of iterations =  4.0

     total cpu time spent up to now is        3.6 secs

     End of self-consistent calculation

          k = 0.0000 0.0000 0.0000 (   113 PWs)   bands (ev):

    -8.2233  13.1021  13.1021  13.1021

          k =-0.1000 0.1000-0.1000 (   116 PWs)   bands (ev):

    -7.9467  11.4457  12.6652  12.6652

          k =-0.2000 0.2000-0.2000 (   122 PWs)   bands (ev):

    -7.1228   8.2675  11.7901  11.7901

          k =-0.3000 0.3000-0.3000 (   114 PWs)   bands (ev):

    -5.7667   4.9072  11.0221  11.0221

          k =-0.4000 0.4000-0.4000 (   114 PWs)   bands (ev):

    -3.9455   1.7654  10.5151  10.5151

          k = 0.5000-0.5000 0.5000 (   120 PWs)   bands (ev):

    -2.3870  -0.2504  10.3066  10.3066

          k = 0.0000 0.2000 0.0000 (   117 PWs)   bands (ev):

    -7.8547  11.8920  11.8920  12.2647

          k =-0.1000 0.3000-0.1000 (   121 PWs)   bands (ev):

    -7.2135   9.3774  10.9213  11.7955

          k =-0.2000 0.4000-0.2000 (   117 PWs)   bands (ev):

    -6.0347   6.1376  10.1918  10.9472

          k =-0.3000 0.5000-0.3000 (   116 PWs)   bands (ev):

    -4.3614   2.9451   9.8186  10.0816

          k = 0.6000-0.4000 0.6000 (   114 PWs)   bands (ev):

    -2.4576   0.3182   9.4465   9.8519

          k = 0.5000-0.3000 0.5000 (   117 PWs)   bands (ev):

    -3.0586   1.0681   9.1411  10.2445

          k = 0.4000-0.2000 0.4000 (   118 PWs)   bands (ev):

    -4.9698   3.9890   9.2279  10.9801

          k = 0.3000-0.1000 0.3000 (   120 PWs)   bands (ev):

    -6.4861   7.2485   9.7418  11.8887

          k = 0.2000 0.0000 0.2000 (   119 PWs)   bands (ev):

    -7.4879  10.2142  10.7783  12.6358

          k = 0.0000 0.4000 0.0000 (   121 PWs)   bands (ev):

    -6.7570   9.8807   9.8807  10.1549

          k =-0.1000 0.5000-0.1000 (   119 PWs)   bands (ev):

    -5.7635   7.3597   9.0996   9.5140

          k =-0.2000 0.6000-0.2000 (   117 PWs)   bands (ev):

    -4.2604   4.4036   8.4534   8.7148

          k = 0.7000-0.3000 0.7000 (   115 PWs)   bands (ev):

    -2.3776   1.6460   7.4499   8.7995

          k = 0.6000-0.2000 0.6000 (   111 PWs)   bands (ev):

    -1.8124   0.9848   6.7838   9.3037

          k = 0.5000-0.1000 0.5000 (   117 PWs)   bands (ev):

    -3.6710   3.5119   6.5536  10.1437

          k = 0.4000 0.0000 0.4000 (   121 PWs)   bands (ev):

    -5.3221   6.2306   7.1080  11.1485

          k =-0.0000 0.6000-0.0000 (   125 PWs)   bands (ev):

    -4.9567   7.1495   8.2183   8.2183

          k =-0.1000 0.7000-0.1000 (   118 PWs)   bands (ev):

    -3.6357   5.1956   7.1311   7.7552

          k = 0.8000-0.2000 0.8000 (   114 PWs)   bands (ev):

    -1.8825   3.0084   5.6081   7.7564

          k = 0.7000-0.1000 0.7000 (   116 PWs)   bands (ev):

    -0.4942   1.5281   4.4535   8.2201

          k = 0.6000 0.0000 0.6000 (   115 PWs)   bands (ev):

    -1.9605   3.0935   4.2513   9.0740

          k = 0.0000 0.8000 0.0000 (   116 PWs)   bands (ev):

    -2.5020   3.8289   7.1783   7.1783

          k = 0.9000-0.1000 0.9000 (   115 PWs)   bands (ev):

    -0.9174   2.1977   6.0622   7.0623

          k = 0.8000 0.0000 0.8000 (   110 PWs)   bands (ev):

     0.5821   1.1512   4.3274   7.4328

          k = 0.0000-1.0000 0.0000 (   116 PWs)   bands (ev):

     0.4922   0.4922   6.8181   6.8181

          k =-0.2000 0.4000 0.0000 (   119 PWs)   bands (ev):

    -6.3952   8.1540   8.8915  11.2446

          k =-0.3000 0.5000-0.1000 (   116 PWs)   bands (ev):

    -5.0531   5.3334   8.0472  10.3536

          k = 0.6000-0.4000 0.8000 (   118 PWs)   bands (ev):

    -3.2596   2.3579   7.8155   9.4620

          k = 0.5000-0.3000 0.7000 (   116 PWs)   bands (ev):

    -1.7419   0.4261   7.8198   9.0790

          k =-0.2000 0.6000 0.0000 (   120 PWs)   bands (ev):

    -4.6065   6.1528   7.3067   8.7902

          k = 0.7000-0.3000 0.9000 (   116 PWs)   bands (ev):

    -2.9721   3.8106   6.4464   7.9427

          k = 0.6000-0.2000 0.8000 (   114 PWs)   bands (ev):

    -1.1521   1.5123   5.8127   7.7746

          k = 0.5000-0.1000 0.7000 (   113 PWs)   bands (ev):

    -1.7406   2.2502   5.3390   8.3526

          k = 0.4000 0.0000 0.6000 (   116 PWs)   bands (ev):

    -3.5773   4.5536   5.6115   9.3395

          k = 0.8000-0.2000 1.0000 (   113 PWs)   bands (ev):

    -2.1802   3.7443   6.3445   6.8130

          k = 0.7000-0.1000 0.9000 (   111 PWs)   bands (ev):

    -0.3954   2.2068   4.7584   6.7023

          k = 0.6000 0.0000 0.8000 (   110 PWs)   bands (ev):

    -0.0783   2.0203   3.7728   7.3176

          k =-0.2000-1.0000-0.0000 (   112 PWs)   bands (ev):

     0.7272   0.7272   6.1037   6.1037

          k = 0.6000-0.2000 1.0000 (   111 PWs)   bands (ev):

    -1.2760   3.1046   4.7936   6.7215

          k = 0.5000-0.1000 0.9000 (   112 PWs)   bands (ev):

     0.1201   1.8647   4.4857   6.1286

          k =-0.4000-1.0000-0.0000 (   112 PWs)   bands (ev):

     1.2147   1.2147   4.9606   4.9606

     highest occupied level (ev):    13.1021

!    total energy              =     -23.03782401 Ry
     estimated scf accuracy    <          2.6E-09 Ry

     The total energy is the sum of the following terms:
     one-electron contribution =       7.97076952 Ry
     hartree contribution      =       1.90658793 Ry
     xc contribution           =      -7.33987917 Ry
     ewald contribution        =     -25.57530229 Ry

     convergence has been achieved in   6 iterations

     Forces acting on atoms (cartesian axes, Ry/au):

     atom    1 type  1   force =    -0.00000000   -0.00000000   -0.00000000
     atom    2 type  1   force =     0.00000000    0.00000000    0.00000000

     Total force =     0.000000     Total SCF correction =     0.000000


     Computing stress (Cartesian axis) and pressure

          total   stress  (Ry/bohr**3)                   (kbar)     P=     -295.14
  -0.00200635   0.00000000  -0.00000000         -295.14        0.00       -0.00
  -0.00000000  -0.00200635   0.00000000           -0.00     -295.14        0.00
  -0.00000000   0.00000000  -0.00200635           -0.00        0.00     -295.14


     Writing all to output data dir ./Diamond.save/
 
     init_run     :      0.40s CPU      0.43s WALL (       1 calls)
     electrons    :      2.30s CPU      2.76s WALL (       1 calls)
     forces       :      0.02s CPU      0.02s WALL (       1 calls)
     stress       :      0.07s CPU      0.08s WALL (       1 calls)

     Called by init_run:
     wfcinit      :      0.17s CPU      0.18s WALL (       1 calls)
     potinit      :      0.00s CPU      0.00s WALL (       1 calls)
     hinit0       :      0.22s CPU      0.24s WALL (       1 calls)

     Called by electrons:
     c_bands      :      2.04s CPU      2.46s WALL (       6 calls)
     sum_band     :      0.24s CPU      0.26s WALL (       6 calls)
     v_of_rho     :      0.01s CPU      0.01s WALL (       7 calls)
     newd         :      0.01s CPU      0.01s WALL (       7 calls)
     mix_rho      :      0.00s CPU      0.00s WALL (       6 calls)

     Called by c_bands:
     init_us_2    :      0.06s CPU      0.08s WALL (     705 calls)
     init_us_2:cp :      0.06s CPU      0.07s WALL (     705 calls)
     ccgdiagg     :      1.58s CPU      1.92s WALL (     282 calls)
     wfcrot       :      0.54s CPU      0.60s WALL (     282 calls)

     Called by *cgdiagg:
     h_psi        :      1.56s CPU      1.85s WALL (    3493 calls)
     s_psi        :      0.10s CPU      0.13s WALL (    6704 calls)

     Called by h_psi:
     h_psi:calbec :      0.10s CPU      0.11s WALL (    3493 calls)
     vloc_psi     :      1.28s CPU      1.52s WALL (    3493 calls)
     add_vuspsi   :      0.06s CPU      0.07s WALL (    3493 calls)
     hs_1psi      :      1.31s CPU      1.58s WALL (    3211 calls)
     s_1psi       :      0.18s CPU      0.22s WALL (    3211 calls)

     General routines
     calbec       :      0.10s CPU      0.13s WALL (    7221 calls)
     fft          :      0.01s CPU      0.02s WALL (      36 calls)
     ffts         :      0.00s CPU      0.00s WALL (       6 calls)
     fftw         :      1.28s CPU      1.51s WALL (   10182 calls)
 
     Parallel routines
 
     PWSCF        :      3.14s CPU      4.07s WALL

 
   This run was terminated on:  17: 9: 2  14Mar2022            

=------------------------------------------------------------------------------=
   JOB DONE.
=------------------------------------------------------------------------------=
