
     Program PWSCF v.7.0 starts on 14Mar2022 at 17: 3:20 

     This program is part of the open-source Quantum ESPRESSO suite
     for quantum simulation of materials; please cite
         "P. Giannozzi et al., J. Phys.:Condens. Matter 21 395502 (2009);
         "P. Giannozzi et al., J. Phys.:Condens. Matter 29 465901 (2017);
         "P. Giannozzi et al., J. Chem. Phys. 152 154105 (2020);
          URL http://www.quantum-espresso.org", 
     in publications or presentations arising from this work. More details at
     http://www.quantum-espresso.org/quote

     Parallel version (MPI), running on     1 processors

     MPI processes distributed on     1 nodes
     90688 MiB available memory on the printing compute node when the environment starts
 
     Waiting for input...
     Reading input from standard input
Warning: card &CELL ignored
Warning: card  CELL_DYNAMICS = 'BFGS', ignored
Warning: card  PRESS=0.1D0, ignored
Warning: card / ignored
     Message from routine read_cards :
     DEPRECATED: no units specified in ATOMIC_POSITIONS card
     Message from routine read_cards :
     ATOMIC_POSITIONS: units set to alat

     Current dimensions of program PWSCF are:
     Max number of different atomic species (ntypx) = 10
     Max number of k-points (npk) =  40000
     Max angular momentum in pseudopotentials (lmaxx) =  4

     Subspace diagonalization in iterative solution of the eigenvalue problem:
     a serial algorithm will be used

 
     G-vector sticks info
     --------------------
     sticks:   dense  smooth     PW     G-vecs:    dense   smooth      PW
     Sum         931     313    109                18907     3695     725
 
     Using Slab Decomposition
 


     bravais-lattice index     =            2
     lattice parameter (alat)  =       6.7400  a.u.
     unit-cell volume          =      76.5455 (a.u.)^3
     number of atoms/cell      =            2
     number of atomic types    =            1
     number of electrons       =         8.00
     number of Kohn-Sham states=            4
     kinetic-energy cutoff     =      50.0000  Ry
     charge density cutoff     =     600.0000  Ry
     scf convergence threshold =      1.0E-08
     mixing beta               =       0.7000
     number of iterations used =            8  plain     mixing
     Exchange-correlation= SLA  PZ   NOGX NOGC
                           (   1   1   0   0   0   0   0)

     celldm(1)=   6.740000  celldm(2)=   0.000000  celldm(3)=   0.000000
     celldm(4)=   0.000000  celldm(5)=   0.000000  celldm(6)=   0.000000

     crystal axes: (cart. coord. in units of alat)
               a(1) = (  -0.500000   0.000000   0.500000 )  
               a(2) = (   0.000000   0.500000   0.500000 )  
               a(3) = (  -0.500000   0.500000   0.000000 )  

     reciprocal axes: (cart. coord. in units 2 pi/alat)
               b(1) = ( -1.000000 -1.000000  1.000000 )  
               b(2) = (  1.000000  1.000000  1.000000 )  
               b(3) = ( -1.000000  1.000000 -1.000000 )  


     PseudoPot. # 1 for C  read from file:
     ../C_LDA.UPF
     MD5 check sum: 407c1fe918d93b14b177d5600f28733c
     Pseudo is Ultrasoft + core correction, Zval =  4.0
     Generated by new atomic code, or converted to UPF format
     Using radial grid of  721 points,  4 beta functions with: 
                l(1) =   0
                l(2) =   0
                l(3) =   1
                l(4) =   1
     Q(r) pseudized with  8 coefficients,  rinner =    1.100   1.100   1.100


     atomic species   valence    mass     pseudopotential
        C              4.00    12.01100     C ( 1.00)

     48 Sym. Ops., with inversion, found (24 have fractional translation)



   Cartesian axes

     site n.     atom                  positions (alat units)
         1           C   tau(   1) = (   0.0000000   0.0000000   0.0000000  )
         2           C   tau(   2) = (   0.2500000   0.2500000   0.2500000  )

     number of k points=    35
                       cart. coord. in units 2pi/alat
        k(    1) = (   0.0000000   0.0000000   0.0000000), wk =   0.0027435
        k(    2) = (  -0.1111111   0.1111111  -0.1111111), wk =   0.0219479
        k(    3) = (  -0.2222222   0.2222222  -0.2222222), wk =   0.0219479
        k(    4) = (  -0.3333333   0.3333333  -0.3333333), wk =   0.0219479
        k(    5) = (  -0.4444444   0.4444444  -0.4444444), wk =   0.0219479
        k(    6) = (   0.0000000   0.2222222   0.0000000), wk =   0.0164609
        k(    7) = (  -0.1111111   0.3333333  -0.1111111), wk =   0.0658436
        k(    8) = (  -0.2222222   0.4444444  -0.2222222), wk =   0.0658436
        k(    9) = (  -0.3333333   0.5555556  -0.3333333), wk =   0.0658436
        k(   10) = (   0.5555556  -0.3333333   0.5555556), wk =   0.0658436
        k(   11) = (   0.4444444  -0.2222222   0.4444444), wk =   0.0658436
        k(   12) = (   0.3333333  -0.1111111   0.3333333), wk =   0.0658436
        k(   13) = (   0.2222222  -0.0000000   0.2222222), wk =   0.0329218
        k(   14) = (   0.0000000   0.4444444   0.0000000), wk =   0.0164609
        k(   15) = (  -0.1111111   0.5555556  -0.1111111), wk =   0.0658436
        k(   16) = (  -0.2222222   0.6666667  -0.2222222), wk =   0.0658436
        k(   17) = (   0.6666667  -0.2222222   0.6666667), wk =   0.0658436
        k(   18) = (   0.5555556  -0.1111111   0.5555556), wk =   0.0658436
        k(   19) = (   0.4444444  -0.0000000   0.4444444), wk =   0.0329218
        k(   20) = (   0.0000000   0.6666667   0.0000000), wk =   0.0164609
        k(   21) = (  -0.1111111   0.7777778  -0.1111111), wk =   0.0658436
        k(   22) = (   0.7777778  -0.1111111   0.7777778), wk =   0.0658436
        k(   23) = (   0.6666667  -0.0000000   0.6666667), wk =   0.0329218
        k(   24) = (   0.0000000   0.8888889   0.0000000), wk =   0.0164609
        k(   25) = (   0.8888889   0.0000000   0.8888889), wk =   0.0329218
        k(   26) = (  -0.2222222   0.4444444   0.0000000), wk =   0.0658436
        k(   27) = (  -0.3333333   0.5555556  -0.1111111), wk =   0.1316872
        k(   28) = (   0.5555556  -0.3333333   0.7777778), wk =   0.1316872
        k(   29) = (  -0.2222222   0.6666667   0.0000000), wk =   0.0658436
        k(   30) = (   0.6666667  -0.2222222   0.8888889), wk =   0.1316872
        k(   31) = (   0.5555556  -0.1111111   0.7777778), wk =   0.1316872
        k(   32) = (   0.4444444  -0.0000000   0.6666667), wk =   0.0658436
        k(   33) = (   0.7777778  -0.1111111   1.0000000), wk =   0.0658436
        k(   34) = (   0.6666667  -0.0000000   0.8888889), wk =   0.0658436
        k(   35) = (   0.5555556  -0.1111111   1.0000000), wk =   0.0658436

     Dense  grid:    18907 G-vectors     FFT dimensions: (  40,  40,  40)

     Smooth grid:     3695 G-vectors     FFT dimensions: (  24,  24,  24)

     Estimated max dynamical RAM per process >      28.24 MB

     Initial potential from superposition of free atoms

     starting charge       7.9999, renormalised to       8.0000
     Starting wfcs are    8 randomized atomic wfcs

     total cpu time spent up to now is        1.2 secs

     Self-consistent Calculation

     iteration #  1     ecut=    50.00 Ry     beta= 0.70
     CG style diagonalization
     ethr =  1.00E-02,  avg # of iterations =  3.0

     total cpu time spent up to now is        1.8 secs

     total energy              =     -23.04079110 Ry
     estimated scf accuracy    <       0.13199825 Ry

     iteration #  2     ecut=    50.00 Ry     beta= 0.70
     CG style diagonalization
     ethr =  1.65E-03,  avg # of iterations =  3.6

     total cpu time spent up to now is        2.4 secs

     total energy              =     -23.05618432 Ry
     estimated scf accuracy    <       0.00143187 Ry

     iteration #  3     ecut=    50.00 Ry     beta= 0.70
     CG style diagonalization
     ethr =  1.79E-05,  avg # of iterations =  4.0

     total cpu time spent up to now is        3.1 secs

     total energy              =     -23.05665135 Ry
     estimated scf accuracy    <       0.00004894 Ry

     iteration #  4     ecut=    50.00 Ry     beta= 0.70
     CG style diagonalization
     ethr =  6.12E-07,  avg # of iterations =  4.1

     total cpu time spent up to now is        3.8 secs

     total energy              =     -23.05666872 Ry
     estimated scf accuracy    <       0.00000214 Ry

     iteration #  5     ecut=    50.00 Ry     beta= 0.70
     CG style diagonalization
     ethr =  2.68E-08,  avg # of iterations =  4.0

     total cpu time spent up to now is        4.5 secs

     total energy              =     -23.05666959 Ry
     estimated scf accuracy    <       0.00000003 Ry

     iteration #  6     ecut=    50.00 Ry     beta= 0.70
     CG style diagonalization
     ethr =  3.70E-10,  avg # of iterations =  4.4

     total cpu time spent up to now is        5.3 secs

     End of self-consistent calculation

          k = 0.0000 0.0000 0.0000 (   459 PWs)   bands (ev):

    -8.2165  13.0921  13.0921  13.0921

          k =-0.1111 0.1111-0.1111 (   465 PWs)   bands (ev):

    -7.8756  11.1184  12.5577  12.5577

          k =-0.2222 0.2222-0.2222 (   465 PWs)   bands (ev):

    -6.8601   7.5040  11.5801  11.5801

          k =-0.3333 0.3333-0.3333 (   468 PWs)   bands (ev):

    -5.2013   3.7921  10.7800  10.7800

          k =-0.4444 0.4444-0.4444 (   464 PWs)   bands (ev):

    -3.0649   0.5614  10.3553  10.3553

          k = 0.0000 0.2222 0.0000 (   459 PWs)   bands (ev):

    -7.7621  11.6476  11.6476  12.0673

          k =-0.1111 0.3333-0.1111 (   464 PWs)   bands (ev):

    -6.9718   8.7836  10.5909  11.4903

          k =-0.2222 0.4444-0.2222 (   461 PWs)   bands (ev):

    -5.5262   5.1807   9.8712  10.4899

          k =-0.3333 0.5556-0.3333 (   458 PWs)   bands (ev):

    -3.5114   1.7869   9.5677   9.6379

          k = 0.5556-0.3333 0.5556 (   451 PWs)   bands (ev):

    -2.2131   0.1332   8.9914   9.9055

          k = 0.4444-0.2222 0.4444 (   457 PWs)   bands (ev):

    -4.2337   2.8721   8.8773  10.6121

          k = 0.3333-0.1111 0.3333 (   463 PWs)   bands (ev):

    -6.0788   6.4050   9.2764  11.6043

          k = 0.2222-0.0000 0.2222 (   469 PWs)   bands (ev):

    -7.3098   9.7407  10.3616  12.5036

          k = 0.0000 0.4444 0.0000 (   464 PWs)   bands (ev):

    -6.4101   9.4573   9.4573   9.4924

          k =-0.1111 0.5556-0.1111 (   453 PWs)   bands (ev):

    -5.1905   6.5878   8.6785   8.7985

          k =-0.2222 0.6667-0.2222 (   455 PWs)   bands (ev):

    -3.3693   3.4393   7.5379   8.4300

          k = 0.6667-0.2222 0.6667 (   455 PWs)   bands (ev):

    -1.4112   0.9084   6.4954   8.7430

          k = 0.5556-0.1111 0.5556 (   456 PWs)   bands (ev):

    -2.6837   2.5345   5.9611   9.5542

          k = 0.4444-0.0000 0.4444 (   451 PWs)   bands (ev):

    -4.6543   5.4205   6.3536  10.6683

          k = 0.0000 0.6667 0.0000 (   444 PWs)   bands (ev):

    -4.2016   6.0572   7.7866   7.7866

          k =-0.1111 0.7778-0.1111 (   460 PWs)   bands (ev):

    -2.6015   4.0491   6.4196   7.4222

          k = 0.7778-0.1111 0.7778 (   458 PWs)   bands (ev):

    -0.5983   2.0787   4.5312   7.6451

          k = 0.6667-0.0000 0.6667 (   456 PWs)   bands (ev):

    -0.7634   2.2958   3.6941   8.4137

          k = 0.0000 0.8889 0.0000 (   452 PWs)   bands (ev):

    -1.2298   2.3105   6.9108   6.9108

          k = 0.8889 0.0000 0.8889 (   460 PWs)   bands (ev):

     0.5708   0.6898   5.7483   6.9898

          k =-0.2222 0.4444 0.0000 (   464 PWs)   bands (ev):

    -5.9662   7.4703   8.2971  10.7936

          k =-0.3333 0.5556-0.1111 (   457 PWs)   bands (ev):

    -4.3292   4.3912   7.4791   9.7471

          k = 0.5556-0.3333 0.7778 (   453 PWs)   bands (ev):

    -2.2405   1.3406   7.3649   8.9096

          k =-0.2222 0.6667 0.0000 (   454 PWs)   bands (ev):

    -3.7793   5.2923   6.7156   8.0279

          k = 0.6667-0.2222 0.8889 (   451 PWs)   bands (ev):

    -1.8368   2.9265   5.6661   7.2699

          k = 0.5556-0.1111 0.7778 (   457 PWs)   bands (ev):

    -0.6576   1.6113   4.8678   7.5646

          k = 0.4444-0.0000 0.6667 (   462 PWs)   bands (ev):

    -2.5567   3.7230   4.8949   8.5597

          k = 0.7778-0.1111 1.0000 (   455 PWs)   bands (ev):

    -0.8701   2.4376   5.9556   6.2373

          k = 0.6667-0.0000 0.8889 (   455 PWs)   bands (ev):

     0.7007   1.3680   4.2022   6.5233

          k = 0.5556-0.1111 1.0000 (   458 PWs)   bands (ev):

     0.0499   2.2533   4.4311   5.7328

     highest occupied level (ev):    13.0921

!    total energy              =     -23.05666961 Ry
     estimated scf accuracy    <          5.2E-10 Ry

     The total energy is the sum of the following terms:
     one-electron contribution =       7.94505294 Ry
     hartree contribution      =       1.91714766 Ry
     xc contribution           =      -7.34356792 Ry
     ewald contribution        =     -25.57530229 Ry

     convergence has been achieved in   6 iterations

     Forces acting on atoms (cartesian axes, Ry/au):

     atom    1 type  1   force =    -0.00000000   -0.00000000    0.00000000
     atom    2 type  1   force =     0.00000000    0.00000000   -0.00000000

     Total force =     0.000000     Total SCF correction =     0.000000


     Computing stress (Cartesian axis) and pressure

          total   stress  (Ry/bohr**3)                   (kbar)     P=     -126.52
  -0.00086010   0.00000000   0.00000000         -126.52        0.00        0.00
   0.00000000  -0.00086010  -0.00000000            0.00     -126.52       -0.00
   0.00000000   0.00000000  -0.00086010            0.00        0.00     -126.52


     Writing all to output data dir ./Diamond.save/
 
     init_run     :      0.75s CPU      0.80s WALL (       1 calls)
     electrons    :      3.67s CPU      4.09s WALL (       1 calls)
     forces       :      0.08s CPU      0.09s WALL (       1 calls)
     stress       :      0.39s CPU      0.40s WALL (       1 calls)

     Called by init_run:
     wfcinit      :      0.24s CPU      0.26s WALL (       1 calls)
     potinit      :      0.02s CPU      0.03s WALL (       1 calls)
     hinit0       :      0.42s CPU      0.43s WALL (       1 calls)

     Called by electrons:
     c_bands      :      2.82s CPU      3.16s WALL (       6 calls)
     sum_band     :      0.57s CPU      0.61s WALL (       6 calls)
     v_of_rho     :      0.11s CPU      0.11s WALL (       7 calls)
     newd         :      0.16s CPU      0.18s WALL (       7 calls)
     mix_rho      :      0.02s CPU      0.02s WALL (       6 calls)

     Called by c_bands:
     init_us_2    :      0.15s CPU      0.17s WALL (     525 calls)
     init_us_2:cp :      0.14s CPU      0.17s WALL (     525 calls)
     ccgdiagg     :      2.18s CPU      2.44s WALL (     210 calls)
     wfcrot       :      0.74s CPU      0.79s WALL (     210 calls)

     Called by *cgdiagg:
     h_psi        :      2.35s CPU      2.59s WALL (    2739 calls)
     s_psi        :      0.12s CPU      0.14s WALL (    5268 calls)

     Called by h_psi:
     h_psi:calbec :      0.12s CPU      0.13s WALL (    2739 calls)
     vloc_psi     :      2.05s CPU      2.25s WALL (    2739 calls)
     add_vuspsi   :      0.07s CPU      0.08s WALL (    2739 calls)
     hs_1psi      :      1.89s CPU      2.11s WALL (    2529 calls)
     s_1psi       :      0.19s CPU      0.21s WALL (    2529 calls)

     General routines
     calbec       :      0.15s CPU      0.18s WALL (    5653 calls)
     fft          :      0.06s CPU      0.08s WALL (      48 calls)
     ffts         :      0.01s CPU      0.01s WALL (      13 calls)
     fftw         :      1.98s CPU      2.17s WALL (    7858 calls)
     interpolate  :      0.01s CPU      0.02s WALL (       7 calls)
 
     Parallel routines
 
     PWSCF        :      5.23s CPU      6.12s WALL

 
   This run was terminated on:  17: 3:26  14Mar2022            

=------------------------------------------------------------------------------=
   JOB DONE.
=------------------------------------------------------------------------------=
