
     Program PWSCF v.7.0 starts on 14Mar2022 at 17: 2:41 

     This program is part of the open-source Quantum ESPRESSO suite
     for quantum simulation of materials; please cite
         "P. Giannozzi et al., J. Phys.:Condens. Matter 21 395502 (2009);
         "P. Giannozzi et al., J. Phys.:Condens. Matter 29 465901 (2017);
         "P. Giannozzi et al., J. Chem. Phys. 152 154105 (2020);
          URL http://www.quantum-espresso.org", 
     in publications or presentations arising from this work. More details at
     http://www.quantum-espresso.org/quote

     Parallel version (MPI), running on     1 processors

     MPI processes distributed on     1 nodes
     90733 MiB available memory on the printing compute node when the environment starts
 
     Waiting for input...
     Reading input from standard input
Warning: card &CELL ignored
Warning: card  CELL_DYNAMICS = 'BFGS', ignored
Warning: card  PRESS=0.1D0, ignored
Warning: card / ignored
     Message from routine read_cards :
     DEPRECATED: no units specified in ATOMIC_POSITIONS card
     Message from routine read_cards :
     ATOMIC_POSITIONS: units set to alat

     Current dimensions of program PWSCF are:
     Max number of different atomic species (ntypx) = 10
     Max number of k-points (npk) =  40000
     Max angular momentum in pseudopotentials (lmaxx) =  4

     Subspace diagonalization in iterative solution of the eigenvalue problem:
     a serial algorithm will be used

 
     G-vector sticks info
     --------------------
     sticks:   dense  smooth     PW     G-vecs:    dense   smooth      PW
     Sum         931     313     85                18907     3695     459
 
     Using Slab Decomposition
 


     bravais-lattice index     =            2
     lattice parameter (alat)  =       6.7400  a.u.
     unit-cell volume          =      76.5455 (a.u.)^3
     number of atoms/cell      =            2
     number of atomic types    =            1
     number of electrons       =         8.00
     number of Kohn-Sham states=            4
     kinetic-energy cutoff     =      50.0000  Ry
     charge density cutoff     =     600.0000  Ry
     scf convergence threshold =      1.0E-08
     mixing beta               =       0.7000
     number of iterations used =            8  plain     mixing
     Exchange-correlation= SLA  PZ   NOGX NOGC
                           (   1   1   0   0   0   0   0)

     celldm(1)=   6.740000  celldm(2)=   0.000000  celldm(3)=   0.000000
     celldm(4)=   0.000000  celldm(5)=   0.000000  celldm(6)=   0.000000

     crystal axes: (cart. coord. in units of alat)
               a(1) = (  -0.500000   0.000000   0.500000 )  
               a(2) = (   0.000000   0.500000   0.500000 )  
               a(3) = (  -0.500000   0.500000   0.000000 )  

     reciprocal axes: (cart. coord. in units 2 pi/alat)
               b(1) = ( -1.000000 -1.000000  1.000000 )  
               b(2) = (  1.000000  1.000000  1.000000 )  
               b(3) = ( -1.000000  1.000000 -1.000000 )  


     PseudoPot. # 1 for C  read from file:
     ../C_LDA.UPF
     MD5 check sum: 407c1fe918d93b14b177d5600f28733c
     Pseudo is Ultrasoft + core correction, Zval =  4.0
     Generated by new atomic code, or converted to UPF format
     Using radial grid of  721 points,  4 beta functions with: 
                l(1) =   0
                l(2) =   0
                l(3) =   1
                l(4) =   1
     Q(r) pseudized with  8 coefficients,  rinner =    1.100   1.100   1.100


     atomic species   valence    mass     pseudopotential
        C              4.00    12.01100     C ( 1.00)

     48 Sym. Ops., with inversion, found (24 have fractional translation)



   Cartesian axes

     site n.     atom                  positions (alat units)
         1           C   tau(   1) = (   0.0000000   0.0000000   0.0000000  )
         2           C   tau(   2) = (   0.2500000   0.2500000   0.2500000  )

     number of k points=     1
                       cart. coord. in units 2pi/alat
        k(    1) = (   0.0000000   0.0000000   0.0000000), wk =   2.0000000

     Dense  grid:    18907 G-vectors     FFT dimensions: (  40,  40,  40)

     Smooth grid:     3695 G-vectors     FFT dimensions: (  24,  24,  24)

     Estimated max dynamical RAM per process >      27.27 MB

     Initial potential from superposition of free atoms

     starting charge       7.9999, renormalised to       8.0000
     Starting wfcs are    8 randomized atomic wfcs

     total cpu time spent up to now is        2.5 secs

     Self-consistent Calculation

     iteration #  1     ecut=    50.00 Ry     beta= 0.70
     CG style diagonalization
     ethr =  1.00E-02,  avg # of iterations =  3.0

     total cpu time spent up to now is        2.7 secs

     total energy              =     -20.83522170 Ry
     estimated scf accuracy    <       0.54535217 Ry

     iteration #  2     ecut=    50.00 Ry     beta= 0.70
     CG style diagonalization
     ethr =  6.82E-03,  avg # of iterations =  3.2

     total cpu time spent up to now is        2.8 secs

     total energy              =     -20.86615220 Ry
     estimated scf accuracy    <       0.01539409 Ry

     iteration #  3     ecut=    50.00 Ry     beta= 0.70
     CG style diagonalization
     ethr =  1.92E-04,  avg # of iterations =  3.8

     total cpu time spent up to now is        3.0 secs

     total energy              =     -20.86933857 Ry
     estimated scf accuracy    <       0.00016562 Ry

     iteration #  4     ecut=    50.00 Ry     beta= 0.70
     CG style diagonalization
     ethr =  2.07E-06,  avg # of iterations =  4.0

     total cpu time spent up to now is        3.1 secs

     total energy              =     -20.86939932 Ry
     estimated scf accuracy    <       0.00001305 Ry

     iteration #  5     ecut=    50.00 Ry     beta= 0.70
     CG style diagonalization
     ethr =  1.63E-07,  avg # of iterations =  3.5

     total cpu time spent up to now is        3.2 secs

     total energy              =     -20.86940128 Ry
     estimated scf accuracy    <       0.00000019 Ry

     iteration #  6     ecut=    50.00 Ry     beta= 0.70
     CG style diagonalization
     ethr =  2.39E-09,  avg # of iterations =  6.0

     total cpu time spent up to now is        3.3 secs

     total energy              =     -20.86940192 Ry
     estimated scf accuracy    <       0.00000005 Ry

     iteration #  7     ecut=    50.00 Ry     beta= 0.70
     CG style diagonalization
     ethr =  5.67E-10,  avg # of iterations =  3.2

     total cpu time spent up to now is        3.4 secs

     End of self-consistent calculation

          k = 0.0000 0.0000 0.0000 (   459 PWs)   bands (ev):

    -7.2580  15.0117  15.0117  15.0117

     highest occupied level (ev):    15.0117

!    total energy              =     -20.86940192 Ry
     estimated scf accuracy    <          4.8E-09 Ry

     The total energy is the sum of the following terms:
     one-electron contribution =       9.48938410 Ry
     hartree contribution      =       2.91658370 Ry
     xc contribution           =      -7.70006743 Ry
     ewald contribution        =     -25.57530229 Ry

     convergence has been achieved in   7 iterations

     Forces acting on atoms (cartesian axes, Ry/au):

     atom    1 type  1   force =     0.00000000   -0.00000000    0.00000000
     atom    2 type  1   force =     0.00000000    0.00000000    0.00000000

     Total force =     0.000000     Total SCF correction =     0.000000


     Computing stress (Cartesian axis) and pressure

          total   stress  (Ry/bohr**3)                   (kbar)     P=     3148.34
   0.02140196  -0.00000000  -0.00000000         3148.34       -0.00       -0.00
   0.00000000   0.02140196   0.00000000            0.00     3148.34        0.00
  -0.00000000   0.00000000   0.02140196           -0.00        0.00     3148.34


     Writing all to output data dir ./Diamond.save/
 
     init_run     :      0.52s CPU      1.00s WALL (       1 calls)
     electrons    :      0.70s CPU      0.94s WALL (       1 calls)
     forces       :      0.06s CPU      0.17s WALL (       1 calls)
     stress       :      0.26s CPU      0.29s WALL (       1 calls)

     Called by init_run:
     wfcinit      :      0.01s CPU      0.14s WALL (       1 calls)
     potinit      :      0.03s CPU      0.07s WALL (       1 calls)
     hinit0       :      0.42s CPU      0.57s WALL (       1 calls)

     Called by electrons:
     c_bands      :      0.10s CPU      0.15s WALL (       7 calls)
     sum_band     :      0.28s CPU      0.33s WALL (       7 calls)
     v_of_rho     :      0.13s CPU      0.15s WALL (       8 calls)
     newd         :      0.19s CPU      0.24s WALL (       8 calls)
     mix_rho      :      0.03s CPU      0.03s WALL (       7 calls)

     Called by c_bands:
     init_us_2    :      0.00s CPU      0.01s WALL (      15 calls)
     init_us_2:cp :      0.00s CPU      0.01s WALL (      15 calls)
     ccgdiagg     :      0.07s CPU      0.09s WALL (       7 calls)
     wfcrot       :      0.03s CPU      0.13s WALL (       7 calls)

     Called by *cgdiagg:
     h_psi        :      0.08s CPU      0.12s WALL (      90 calls)
     s_psi        :      0.00s CPU      0.04s WALL (     173 calls)

     Called by h_psi:
     h_psi:calbec :      0.01s CPU      0.03s WALL (      90 calls)
     vloc_psi     :      0.07s CPU      0.08s WALL (      90 calls)
     add_vuspsi   :      0.00s CPU      0.00s WALL (      90 calls)
     hs_1psi      :      0.06s CPU      0.07s WALL (      83 calls)
     s_1psi       :      0.01s CPU      0.01s WALL (      83 calls)

     General routines
     calbec       :      0.01s CPU      0.03s WALL (     185 calls)
     fft          :      0.07s CPU      0.12s WALL (      54 calls)
     ffts         :      0.01s CPU      0.01s WALL (      15 calls)
     fftw         :      0.06s CPU      0.07s WALL (     258 calls)
     interpolate  :      0.02s CPU      0.02s WALL (       8 calls)
 
     Parallel routines
 
     PWSCF        :      1.85s CPU      4.27s WALL

 
   This run was terminated on:  17: 2:45  14Mar2022            

=------------------------------------------------------------------------------=
   JOB DONE.
=------------------------------------------------------------------------------=
