
     Program PWSCF v.7.0 starts on 14Mar2022 at 17: 9:52 

     This program is part of the open-source Quantum ESPRESSO suite
     for quantum simulation of materials; please cite
         "P. Giannozzi et al., J. Phys.:Condens. Matter 21 395502 (2009);
         "P. Giannozzi et al., J. Phys.:Condens. Matter 29 465901 (2017);
         "P. Giannozzi et al., J. Chem. Phys. 152 154105 (2020);
          URL http://www.quantum-espresso.org", 
     in publications or presentations arising from this work. More details at
     http://www.quantum-espresso.org/quote

     Parallel version (MPI), running on     1 processors

     MPI processes distributed on     1 nodes
     91917 MiB available memory on the printing compute node when the environment starts
 
     Waiting for input...
     Reading input from standard input
Warning: card &CELL ignored
Warning: card  CELL_DYNAMICS = 'BFGS', ignored
Warning: card  PRESS=0.1D0, ignored
Warning: card / ignored
     Message from routine read_cards :
     DEPRECATED: no units specified in ATOMIC_POSITIONS card
     Message from routine read_cards :
     ATOMIC_POSITIONS: units set to alat

     Current dimensions of program PWSCF are:
     Max number of different atomic species (ntypx) = 10
     Max number of k-points (npk) =  40000
     Max angular momentum in pseudopotentials (lmaxx) =  4

     Subspace diagonalization in iterative solution of the eigenvalue problem:
     a serial algorithm will be used

 
     G-vector sticks info
     --------------------
     sticks:   dense  smooth     PW     G-vecs:    dense   smooth      PW
     Sum         559     559    187                 8801     8801    1591
 
     Using Slab Decomposition
 


     bravais-lattice index     =            2
     lattice parameter (alat)  =       6.7400  a.u.
     unit-cell volume          =      76.5455 (a.u.)^3
     number of atoms/cell      =            2
     number of atomic types    =            1
     number of electrons       =         8.00
     number of Kohn-Sham states=            4
     kinetic-energy cutoff     =      90.0000  Ry
     charge density cutoff     =     360.0000  Ry
     scf convergence threshold =      1.0E-08
     mixing beta               =       0.7000
     number of iterations used =            8  plain     mixing
     Exchange-correlation= SLA  PZ   NOGX NOGC
                           (   1   1   0   0   0   0   0)

     celldm(1)=   6.740000  celldm(2)=   0.000000  celldm(3)=   0.000000
     celldm(4)=   0.000000  celldm(5)=   0.000000  celldm(6)=   0.000000

     crystal axes: (cart. coord. in units of alat)
               a(1) = (  -0.500000   0.000000   0.500000 )  
               a(2) = (   0.000000   0.500000   0.500000 )  
               a(3) = (  -0.500000   0.500000   0.000000 )  

     reciprocal axes: (cart. coord. in units 2 pi/alat)
               b(1) = ( -1.000000 -1.000000  1.000000 )  
               b(2) = (  1.000000  1.000000  1.000000 )  
               b(3) = ( -1.000000  1.000000 -1.000000 )  


     PseudoPot. # 1 for C  read from file:
     ../C_LDA.UPF
     MD5 check sum: 407c1fe918d93b14b177d5600f28733c
     Pseudo is Ultrasoft + core correction, Zval =  4.0
     Generated by new atomic code, or converted to UPF format
     Using radial grid of  721 points,  4 beta functions with: 
                l(1) =   0
                l(2) =   0
                l(3) =   1
                l(4) =   1
     Q(r) pseudized with  8 coefficients,  rinner =    1.100   1.100   1.100


     atomic species   valence    mass     pseudopotential
        C              4.00    12.01100     C ( 1.00)

     48 Sym. Ops., with inversion, found (24 have fractional translation)



   Cartesian axes

     site n.     atom                  positions (alat units)
         1           C   tau(   1) = (   0.0000000   0.0000000   0.0000000  )
         2           C   tau(   2) = (   0.2500000   0.2500000   0.2500000  )

     number of k points=    47
                       cart. coord. in units 2pi/alat
        k(    1) = (   0.0000000   0.0000000   0.0000000), wk =   0.0020000
        k(    2) = (  -0.1000000   0.1000000  -0.1000000), wk =   0.0160000
        k(    3) = (  -0.2000000   0.2000000  -0.2000000), wk =   0.0160000
        k(    4) = (  -0.3000000   0.3000000  -0.3000000), wk =   0.0160000
        k(    5) = (  -0.4000000   0.4000000  -0.4000000), wk =   0.0160000
        k(    6) = (   0.5000000  -0.5000000   0.5000000), wk =   0.0080000
        k(    7) = (   0.0000000   0.2000000   0.0000000), wk =   0.0120000
        k(    8) = (  -0.1000000   0.3000000  -0.1000000), wk =   0.0480000
        k(    9) = (  -0.2000000   0.4000000  -0.2000000), wk =   0.0480000
        k(   10) = (  -0.3000000   0.5000000  -0.3000000), wk =   0.0480000
        k(   11) = (   0.6000000  -0.4000000   0.6000000), wk =   0.0480000
        k(   12) = (   0.5000000  -0.3000000   0.5000000), wk =   0.0480000
        k(   13) = (   0.4000000  -0.2000000   0.4000000), wk =   0.0480000
        k(   14) = (   0.3000000  -0.1000000   0.3000000), wk =   0.0480000
        k(   15) = (   0.2000000   0.0000000   0.2000000), wk =   0.0240000
        k(   16) = (   0.0000000   0.4000000   0.0000000), wk =   0.0120000
        k(   17) = (  -0.1000000   0.5000000  -0.1000000), wk =   0.0480000
        k(   18) = (  -0.2000000   0.6000000  -0.2000000), wk =   0.0480000
        k(   19) = (   0.7000000  -0.3000000   0.7000000), wk =   0.0480000
        k(   20) = (   0.6000000  -0.2000000   0.6000000), wk =   0.0480000
        k(   21) = (   0.5000000  -0.1000000   0.5000000), wk =   0.0480000
        k(   22) = (   0.4000000   0.0000000   0.4000000), wk =   0.0240000
        k(   23) = (  -0.0000000   0.6000000  -0.0000000), wk =   0.0120000
        k(   24) = (  -0.1000000   0.7000000  -0.1000000), wk =   0.0480000
        k(   25) = (   0.8000000  -0.2000000   0.8000000), wk =   0.0480000
        k(   26) = (   0.7000000  -0.1000000   0.7000000), wk =   0.0480000
        k(   27) = (   0.6000000   0.0000000   0.6000000), wk =   0.0240000
        k(   28) = (   0.0000000   0.8000000   0.0000000), wk =   0.0120000
        k(   29) = (   0.9000000  -0.1000000   0.9000000), wk =   0.0480000
        k(   30) = (   0.8000000   0.0000000   0.8000000), wk =   0.0240000
        k(   31) = (   0.0000000  -1.0000000   0.0000000), wk =   0.0060000
        k(   32) = (  -0.2000000   0.4000000   0.0000000), wk =   0.0480000
        k(   33) = (  -0.3000000   0.5000000  -0.1000000), wk =   0.0960000
        k(   34) = (   0.6000000  -0.4000000   0.8000000), wk =   0.0960000
        k(   35) = (   0.5000000  -0.3000000   0.7000000), wk =   0.0480000
        k(   36) = (  -0.2000000   0.6000000   0.0000000), wk =   0.0480000
        k(   37) = (   0.7000000  -0.3000000   0.9000000), wk =   0.0960000
        k(   38) = (   0.6000000  -0.2000000   0.8000000), wk =   0.0960000
        k(   39) = (   0.5000000  -0.1000000   0.7000000), wk =   0.0960000
        k(   40) = (   0.4000000   0.0000000   0.6000000), wk =   0.0480000
        k(   41) = (   0.8000000  -0.2000000   1.0000000), wk =   0.0480000
        k(   42) = (   0.7000000  -0.1000000   0.9000000), wk =   0.0960000
        k(   43) = (   0.6000000   0.0000000   0.8000000), wk =   0.0480000
        k(   44) = (  -0.2000000  -1.0000000  -0.0000000), wk =   0.0240000
        k(   45) = (   0.6000000  -0.2000000   1.0000000), wk =   0.0480000
        k(   46) = (   0.5000000  -0.1000000   0.9000000), wk =   0.0480000
        k(   47) = (  -0.4000000  -1.0000000  -0.0000000), wk =   0.0240000

     Dense  grid:     8801 G-vectors     FFT dimensions: (  30,  30,  30)

     Estimated max dynamical RAM per process >      16.17 MB

     Initial potential from superposition of free atoms

     starting charge       7.9999, renormalised to       8.0000
     Starting wfcs are    8 randomized atomic wfcs

     total cpu time spent up to now is        1.6 secs

     Self-consistent Calculation

     iteration #  1     ecut=    90.00 Ry     beta= 0.70
     CG style diagonalization
     ethr =  1.00E-02,  avg # of iterations =  3.0

     total cpu time spent up to now is        3.0 secs

     total energy              =     -23.04082596 Ry
     estimated scf accuracy    <       0.13296873 Ry

     iteration #  2     ecut=    90.00 Ry     beta= 0.70
     CG style diagonalization
     ethr =  1.66E-03,  avg # of iterations =  3.6

     total cpu time spent up to now is        4.5 secs

     total energy              =     -23.05685933 Ry
     estimated scf accuracy    <       0.00139912 Ry

     iteration #  3     ecut=    90.00 Ry     beta= 0.70
     CG style diagonalization
     ethr =  1.75E-05,  avg # of iterations =  4.0

     total cpu time spent up to now is        6.2 secs

     total energy              =     -23.05735947 Ry
     estimated scf accuracy    <       0.00005221 Ry

     iteration #  4     ecut=    90.00 Ry     beta= 0.70
     CG style diagonalization
     ethr =  6.53E-07,  avg # of iterations =  4.1

     total cpu time spent up to now is        7.9 secs

     total energy              =     -23.05737950 Ry
     estimated scf accuracy    <       0.00000286 Ry

     iteration #  5     ecut=    90.00 Ry     beta= 0.70
     CG style diagonalization
     ethr =  3.58E-08,  avg # of iterations =  4.0

     total cpu time spent up to now is        9.5 secs

     total energy              =     -23.05738069 Ry
     estimated scf accuracy    <       0.00000006 Ry

     iteration #  6     ecut=    90.00 Ry     beta= 0.70
     CG style diagonalization
     ethr =  7.36E-10,  avg # of iterations =  4.4

     total cpu time spent up to now is       11.3 secs

     End of self-consistent calculation

          k = 0.0000 0.0000 0.0000 (  1067 PWs)   bands (ev):

    -8.2164  13.0898  13.0898  13.0898

          k =-0.1000 0.1000-0.1000 (  1097 PWs)   bands (ev):

    -7.9401  11.4338  12.6443  12.6443

          k =-0.2000 0.2000-0.2000 (  1098 PWs)   bands (ev):

    -7.1161   8.2573  11.7709  11.7709

          k =-0.3000 0.3000-0.3000 (  1095 PWs)   bands (ev):

    -5.7625   4.8787  10.9831  10.9831

          k =-0.4000 0.4000-0.4000 (  1107 PWs)   bands (ev):

    -3.9432   1.7496  10.4735  10.4735

          k = 0.5000-0.5000 0.5000 (  1104 PWs)   bands (ev):

    -2.3796  -0.2639  10.2995  10.2995

          k = 0.0000 0.2000 0.0000 (  1106 PWs)   bands (ev):

    -7.8481  11.8645  11.8645  12.2512

          k =-0.1000 0.3000-0.1000 (  1108 PWs)   bands (ev):

    -7.2069   9.3643  10.8992  11.7778

          k =-0.2000 0.4000-0.2000 (  1102 PWs)   bands (ev):

    -6.0296   6.1170  10.1559  10.9129

          k =-0.3000 0.5000-0.3000 (  1105 PWs)   bands (ev):

    -4.3570   2.9292   9.7818  10.0457

          k = 0.6000-0.4000 0.6000 (  1105 PWs)   bands (ev):

    -2.4546   0.3033   9.4121   9.8113

          k = 0.5000-0.3000 0.5000 (  1109 PWs)   bands (ev):

    -3.0546   1.0528   9.1173  10.2234

          k = 0.4000-0.2000 0.4000 (  1105 PWs)   bands (ev):

    -4.9650   3.9714   9.2140  10.9525

          k = 0.3000-0.1000 0.3000 (  1106 PWs)   bands (ev):

    -6.4804   7.2286   9.7201  11.8594

          k = 0.2000 0.0000 0.2000 (  1109 PWs)   bands (ev):

    -7.4813  10.1999  10.7646  12.6175

          k = 0.0000 0.4000 0.0000 (  1106 PWs)   bands (ev):

    -6.7508   9.8679   9.8679  10.0932

          k =-0.1000 0.5000-0.1000 (  1095 PWs)   bands (ev):

    -5.7570   7.3324   9.0801   9.4910

          k =-0.2000 0.6000-0.2000 (  1097 PWs)   bands (ev):

    -4.2557   4.3833   8.4362   8.6958

          k = 0.7000-0.3000 0.7000 (  1107 PWs)   bands (ev):

    -2.3750   1.6346   7.4382   8.7612

          k = 0.6000-0.2000 0.6000 (  1114 PWs)   bands (ev):

    -1.8094   0.9612   6.7655   9.2583

          k = 0.5000-0.1000 0.5000 (  1109 PWs)   bands (ev):

    -3.6672   3.4959   6.5382  10.1055

          k = 0.4000 0.0000 0.4000 (  1093 PWs)   bands (ev):

    -5.3154   6.2074   7.0989  11.1116

          k =-0.0000 0.6000-0.0000 (  1094 PWs)   bands (ev):

    -4.9499   7.1446   8.2094   8.2094

          k =-0.1000 0.7000-0.1000 (  1100 PWs)   bands (ev):

    -3.6317   5.1775   7.1178   7.7392

          k = 0.8000-0.2000 0.8000 (  1102 PWs)   bands (ev):

    -1.8822   2.9908   5.5871   7.7360

          k = 0.7000-0.1000 0.7000 (  1111 PWs)   bands (ev):

    -0.4900   1.5127   4.4433   8.1959

          k = 0.6000 0.0000 0.6000 (  1113 PWs)   bands (ev):

    -1.9569   3.0806   4.2264   9.0477

          k = 0.0000 0.8000 0.0000 (  1094 PWs)   bands (ev):

    -2.5007   3.8106   7.1569   7.1569

          k = 0.9000-0.1000 0.9000 (  1106 PWs)   bands (ev):

    -0.9196   2.1873   6.0403   7.0409

          k = 0.8000 0.0000 0.8000 (  1117 PWs)   bands (ev):

     0.5790   1.1417   4.2863   7.4047

          k = 0.0000-1.0000 0.0000 (  1106 PWs)   bands (ev):

     0.4871   0.4871   6.7983   6.7983

          k =-0.2000 0.4000 0.0000 (  1104 PWs)   bands (ev):

    -6.3891   8.1271   8.8766  11.2090

          k =-0.3000 0.5000-0.1000 (  1099 PWs)   bands (ev):

    -5.0484   5.3076   8.0271  10.3126

          k = 0.6000-0.4000 0.8000 (  1105 PWs)   bands (ev):

    -3.2547   2.3413   7.8007   9.4409

          k = 0.5000-0.3000 0.7000 (  1108 PWs)   bands (ev):

    -1.7358   0.4088   7.8010   9.0521

          k =-0.2000 0.6000 0.0000 (  1094 PWs)   bands (ev):

    -4.6003   6.1370   7.2897   8.7723

          k = 0.7000-0.3000 0.9000 (  1095 PWs)   bands (ev):

    -2.9682   3.7939   6.4334   7.9189

          k = 0.6000-0.2000 0.8000 (  1107 PWs)   bands (ev):

    -1.1503   1.4954   5.8011   7.7514

          k = 0.5000-0.1000 0.7000 (  1108 PWs)   bands (ev):

    -1.7383   2.2325   5.3251   8.3291

          k = 0.4000 0.0000 0.6000 (  1103 PWs)   bands (ev):

    -3.5726   4.5365   5.6026   9.3166

          k = 0.8000-0.2000 1.0000 (  1094 PWs)   bands (ev):

    -2.1811   3.7300   6.3119   6.7918

          k = 0.7000-0.1000 0.9000 (  1106 PWs)   bands (ev):

    -0.3991   2.1980   4.7309   6.6735

          k = 0.6000 0.0000 0.8000 (  1110 PWs)   bands (ev):

    -0.0777   2.0096   3.7453   7.2928

          k =-0.2000-1.0000-0.0000 (  1114 PWs)   bands (ev):

     0.7199   0.7199   6.0814   6.0814

          k = 0.6000-0.2000 1.0000 (  1099 PWs)   bands (ev):

    -1.2771   3.0917   4.7683   6.6993

          k = 0.5000-0.1000 0.9000 (  1110 PWs)   bands (ev):

     0.1212   1.8552   4.4648   6.1106

          k =-0.4000-1.0000-0.0000 (  1108 PWs)   bands (ev):

     1.2114   1.2114   4.9408   4.9408

     highest occupied level (ev):    13.0898

!    total energy              =     -23.05738074 Ry
     estimated scf accuracy    <          9.2E-11 Ry

     The total energy is the sum of the following terms:
     one-electron contribution =       7.94416750 Ry
     hartree contribution      =       1.91734681 Ry
     xc contribution           =      -7.34359276 Ry
     ewald contribution        =     -25.57530229 Ry

     convergence has been achieved in   6 iterations

     Forces acting on atoms (cartesian axes, Ry/au):

     atom    1 type  1   force =    -0.00000000   -0.00000000    0.00000000
     atom    2 type  1   force =     0.00000000   -0.00000000    0.00000000

     Total force =     0.000000     Total SCF correction =     0.000000


     Computing stress (Cartesian axis) and pressure

          total   stress  (Ry/bohr**3)                   (kbar)     P=     -126.90
  -0.00086262   0.00000000  -0.00000000         -126.90        0.00       -0.00
  -0.00000000  -0.00086262  -0.00000000           -0.00     -126.90       -0.00
  -0.00000000   0.00000000  -0.00086262           -0.00        0.00     -126.90


     Writing all to output data dir ./Diamond.save/
 
     init_run     :      1.11s CPU      1.16s WALL (       1 calls)
     electrons    :      9.24s CPU      9.80s WALL (       1 calls)
     forces       :      0.09s CPU      0.09s WALL (       1 calls)
     stress       :      0.55s CPU      0.56s WALL (       1 calls)

     Called by init_run:
     wfcinit      :      0.67s CPU      0.69s WALL (       1 calls)
     potinit      :      0.01s CPU      0.01s WALL (       1 calls)
     hinit0       :      0.39s CPU      0.40s WALL (       1 calls)

     Called by electrons:
     c_bands      :      7.97s CPU      8.45s WALL (       6 calls)
     sum_band     :      1.15s CPU      1.19s WALL (       6 calls)
     v_of_rho     :      0.05s CPU      0.05s WALL (       7 calls)
     newd         :      0.07s CPU      0.08s WALL (       7 calls)
     mix_rho      :      0.01s CPU      0.02s WALL (       6 calls)

     Called by c_bands:
     init_us_2    :      0.45s CPU      0.50s WALL (     705 calls)
     init_us_2:cp :      0.44s CPU      0.49s WALL (     705 calls)
     ccgdiagg     :      6.22s CPU      6.62s WALL (     282 calls)
     wfcrot       :      2.05s CPU      2.10s WALL (     282 calls)

     Called by *cgdiagg:
     h_psi        :      7.20s CPU      7.54s WALL (    3669 calls)
     s_psi        :      0.27s CPU      0.30s WALL (    7056 calls)

     Called by h_psi:
     h_psi:calbec :      0.34s CPU      0.36s WALL (    3669 calls)
     vloc_psi     :      6.47s CPU      6.78s WALL (    3669 calls)
     add_vuspsi   :      0.19s CPU      0.21s WALL (    3669 calls)
     hs_1psi      :      5.61s CPU      5.95s WALL (    3387 calls)
     s_1psi       :      0.37s CPU      0.40s WALL (    3387 calls)

     General routines
     calbec       :      0.47s CPU      0.51s WALL (    7573 calls)
     fft          :      0.03s CPU      0.04s WALL (      36 calls)
     ffts         :      0.00s CPU      0.00s WALL (       6 calls)
     fftw         :      6.36s CPU      6.65s WALL (   10534 calls)
 
     Parallel routines
 
     PWSCF        :     11.34s CPU     12.43s WALL

 
   This run was terminated on:  17:10: 4  14Mar2022            

=------------------------------------------------------------------------------=
   JOB DONE.
=------------------------------------------------------------------------------=
