
     Program PWSCF v.7.0 starts on 14Mar2022 at 17: 9:41 

     This program is part of the open-source Quantum ESPRESSO suite
     for quantum simulation of materials; please cite
         "P. Giannozzi et al., J. Phys.:Condens. Matter 21 395502 (2009);
         "P. Giannozzi et al., J. Phys.:Condens. Matter 29 465901 (2017);
         "P. Giannozzi et al., J. Chem. Phys. 152 154105 (2020);
          URL http://www.quantum-espresso.org", 
     in publications or presentations arising from this work. More details at
     http://www.quantum-espresso.org/quote

     Parallel version (MPI), running on     1 processors

     MPI processes distributed on     1 nodes
     91915 MiB available memory on the printing compute node when the environment starts
 
     Waiting for input...
     Reading input from standard input
Warning: card &CELL ignored
Warning: card  CELL_DYNAMICS = 'BFGS', ignored
Warning: card  PRESS=0.1D0, ignored
Warning: card / ignored
     Message from routine read_cards :
     DEPRECATED: no units specified in ATOMIC_POSITIONS card
     Message from routine read_cards :
     ATOMIC_POSITIONS: units set to alat

     Current dimensions of program PWSCF are:
     Max number of different atomic species (ntypx) = 10
     Max number of k-points (npk) =  40000
     Max angular momentum in pseudopotentials (lmaxx) =  4

     Subspace diagonalization in iterative solution of the eigenvalue problem:
     a serial algorithm will be used

 
     G-vector sticks info
     --------------------
     sticks:   dense  smooth     PW     G-vecs:    dense   smooth      PW
     Sum         499     499    163                 7391     7391    1363
 
     Using Slab Decomposition
 


     bravais-lattice index     =            2
     lattice parameter (alat)  =       6.7400  a.u.
     unit-cell volume          =      76.5455 (a.u.)^3
     number of atoms/cell      =            2
     number of atomic types    =            1
     number of electrons       =         8.00
     number of Kohn-Sham states=            4
     kinetic-energy cutoff     =      80.0000  Ry
     charge density cutoff     =     320.0000  Ry
     scf convergence threshold =      1.0E-08
     mixing beta               =       0.7000
     number of iterations used =            8  plain     mixing
     Exchange-correlation= SLA  PZ   NOGX NOGC
                           (   1   1   0   0   0   0   0)

     celldm(1)=   6.740000  celldm(2)=   0.000000  celldm(3)=   0.000000
     celldm(4)=   0.000000  celldm(5)=   0.000000  celldm(6)=   0.000000

     crystal axes: (cart. coord. in units of alat)
               a(1) = (  -0.500000   0.000000   0.500000 )  
               a(2) = (   0.000000   0.500000   0.500000 )  
               a(3) = (  -0.500000   0.500000   0.000000 )  

     reciprocal axes: (cart. coord. in units 2 pi/alat)
               b(1) = ( -1.000000 -1.000000  1.000000 )  
               b(2) = (  1.000000  1.000000  1.000000 )  
               b(3) = ( -1.000000  1.000000 -1.000000 )  


     PseudoPot. # 1 for C  read from file:
     ../C_LDA.UPF
     MD5 check sum: 407c1fe918d93b14b177d5600f28733c
     Pseudo is Ultrasoft + core correction, Zval =  4.0
     Generated by new atomic code, or converted to UPF format
     Using radial grid of  721 points,  4 beta functions with: 
                l(1) =   0
                l(2) =   0
                l(3) =   1
                l(4) =   1
     Q(r) pseudized with  8 coefficients,  rinner =    1.100   1.100   1.100


     atomic species   valence    mass     pseudopotential
        C              4.00    12.01100     C ( 1.00)

     48 Sym. Ops., with inversion, found (24 have fractional translation)



   Cartesian axes

     site n.     atom                  positions (alat units)
         1           C   tau(   1) = (   0.0000000   0.0000000   0.0000000  )
         2           C   tau(   2) = (   0.2500000   0.2500000   0.2500000  )

     number of k points=    47
                       cart. coord. in units 2pi/alat
        k(    1) = (   0.0000000   0.0000000   0.0000000), wk =   0.0020000
        k(    2) = (  -0.1000000   0.1000000  -0.1000000), wk =   0.0160000
        k(    3) = (  -0.2000000   0.2000000  -0.2000000), wk =   0.0160000
        k(    4) = (  -0.3000000   0.3000000  -0.3000000), wk =   0.0160000
        k(    5) = (  -0.4000000   0.4000000  -0.4000000), wk =   0.0160000
        k(    6) = (   0.5000000  -0.5000000   0.5000000), wk =   0.0080000
        k(    7) = (   0.0000000   0.2000000   0.0000000), wk =   0.0120000
        k(    8) = (  -0.1000000   0.3000000  -0.1000000), wk =   0.0480000
        k(    9) = (  -0.2000000   0.4000000  -0.2000000), wk =   0.0480000
        k(   10) = (  -0.3000000   0.5000000  -0.3000000), wk =   0.0480000
        k(   11) = (   0.6000000  -0.4000000   0.6000000), wk =   0.0480000
        k(   12) = (   0.5000000  -0.3000000   0.5000000), wk =   0.0480000
        k(   13) = (   0.4000000  -0.2000000   0.4000000), wk =   0.0480000
        k(   14) = (   0.3000000  -0.1000000   0.3000000), wk =   0.0480000
        k(   15) = (   0.2000000   0.0000000   0.2000000), wk =   0.0240000
        k(   16) = (   0.0000000   0.4000000   0.0000000), wk =   0.0120000
        k(   17) = (  -0.1000000   0.5000000  -0.1000000), wk =   0.0480000
        k(   18) = (  -0.2000000   0.6000000  -0.2000000), wk =   0.0480000
        k(   19) = (   0.7000000  -0.3000000   0.7000000), wk =   0.0480000
        k(   20) = (   0.6000000  -0.2000000   0.6000000), wk =   0.0480000
        k(   21) = (   0.5000000  -0.1000000   0.5000000), wk =   0.0480000
        k(   22) = (   0.4000000   0.0000000   0.4000000), wk =   0.0240000
        k(   23) = (  -0.0000000   0.6000000  -0.0000000), wk =   0.0120000
        k(   24) = (  -0.1000000   0.7000000  -0.1000000), wk =   0.0480000
        k(   25) = (   0.8000000  -0.2000000   0.8000000), wk =   0.0480000
        k(   26) = (   0.7000000  -0.1000000   0.7000000), wk =   0.0480000
        k(   27) = (   0.6000000   0.0000000   0.6000000), wk =   0.0240000
        k(   28) = (   0.0000000   0.8000000   0.0000000), wk =   0.0120000
        k(   29) = (   0.9000000  -0.1000000   0.9000000), wk =   0.0480000
        k(   30) = (   0.8000000   0.0000000   0.8000000), wk =   0.0240000
        k(   31) = (   0.0000000  -1.0000000   0.0000000), wk =   0.0060000
        k(   32) = (  -0.2000000   0.4000000   0.0000000), wk =   0.0480000
        k(   33) = (  -0.3000000   0.5000000  -0.1000000), wk =   0.0960000
        k(   34) = (   0.6000000  -0.4000000   0.8000000), wk =   0.0960000
        k(   35) = (   0.5000000  -0.3000000   0.7000000), wk =   0.0480000
        k(   36) = (  -0.2000000   0.6000000   0.0000000), wk =   0.0480000
        k(   37) = (   0.7000000  -0.3000000   0.9000000), wk =   0.0960000
        k(   38) = (   0.6000000  -0.2000000   0.8000000), wk =   0.0960000
        k(   39) = (   0.5000000  -0.1000000   0.7000000), wk =   0.0960000
        k(   40) = (   0.4000000   0.0000000   0.6000000), wk =   0.0480000
        k(   41) = (   0.8000000  -0.2000000   1.0000000), wk =   0.0480000
        k(   42) = (   0.7000000  -0.1000000   0.9000000), wk =   0.0960000
        k(   43) = (   0.6000000   0.0000000   0.8000000), wk =   0.0480000
        k(   44) = (  -0.2000000  -1.0000000  -0.0000000), wk =   0.0240000
        k(   45) = (   0.6000000  -0.2000000   1.0000000), wk =   0.0480000
        k(   46) = (   0.5000000  -0.1000000   0.9000000), wk =   0.0480000
        k(   47) = (  -0.4000000  -1.0000000  -0.0000000), wk =   0.0240000

     Dense  grid:     7391 G-vectors     FFT dimensions: (  27,  27,  27)

     Estimated max dynamical RAM per process >      13.41 MB

     Initial potential from superposition of free atoms

     starting charge       7.9999, renormalised to       8.0000
     Starting wfcs are    8 randomized atomic wfcs

     total cpu time spent up to now is        1.3 secs

     Self-consistent Calculation

     iteration #  1     ecut=    80.00 Ry     beta= 0.70
     CG style diagonalization
     ethr =  1.00E-02,  avg # of iterations =  3.0

     total cpu time spent up to now is        2.4 secs

     total energy              =     -23.04077883 Ry
     estimated scf accuracy    <       0.13281027 Ry

     iteration #  2     ecut=    80.00 Ry     beta= 0.70
     CG style diagonalization
     ethr =  1.66E-03,  avg # of iterations =  3.6

     total cpu time spent up to now is        3.5 secs

     total energy              =     -23.05677727 Ry
     estimated scf accuracy    <       0.00141562 Ry

     iteration #  3     ecut=    80.00 Ry     beta= 0.70
     CG style diagonalization
     ethr =  1.77E-05,  avg # of iterations =  4.1

     total cpu time spent up to now is        4.7 secs

     total energy              =     -23.05728840 Ry
     estimated scf accuracy    <       0.00005157 Ry

     iteration #  4     ecut=    80.00 Ry     beta= 0.70
     CG style diagonalization
     ethr =  6.45E-07,  avg # of iterations =  4.1

     total cpu time spent up to now is        6.0 secs

     total energy              =     -23.05730766 Ry
     estimated scf accuracy    <       0.00000282 Ry

     iteration #  5     ecut=    80.00 Ry     beta= 0.70
     CG style diagonalization
     ethr =  3.52E-08,  avg # of iterations =  3.9

     total cpu time spent up to now is        7.2 secs

     total energy              =     -23.05730886 Ry
     estimated scf accuracy    <       0.00000005 Ry

     iteration #  6     ecut=    80.00 Ry     beta= 0.70
     CG style diagonalization
     ethr =  6.70E-10,  avg # of iterations =  4.4

     total cpu time spent up to now is        8.5 secs

     End of self-consistent calculation

          k = 0.0000 0.0000 0.0000 (   941 PWs)   bands (ev):

    -8.2164  13.0899  13.0899  13.0899

          k =-0.1000 0.1000-0.1000 (   923 PWs)   bands (ev):

    -7.9401  11.4339  12.6445  12.6445

          k =-0.2000 0.2000-0.2000 (   917 PWs)   bands (ev):

    -7.1161   8.2575  11.7711  11.7711

          k =-0.3000 0.3000-0.3000 (   926 PWs)   bands (ev):

    -5.7625   4.8788  10.9833  10.9833

          k =-0.4000 0.4000-0.4000 (   923 PWs)   bands (ev):

    -3.9432   1.7496  10.4737  10.4737

          k = 0.5000-0.5000 0.5000 (   912 PWs)   bands (ev):

    -2.3795  -0.2638  10.2997  10.2997

          k = 0.0000 0.2000 0.0000 (   925 PWs)   bands (ev):

    -7.8481  11.8647  11.8647  12.2513

          k =-0.1000 0.3000-0.1000 (   923 PWs)   bands (ev):

    -7.2069   9.3645  10.8993  11.7780

          k =-0.2000 0.4000-0.2000 (   931 PWs)   bands (ev):

    -6.0296   6.1172  10.1561  10.9131

          k =-0.3000 0.5000-0.3000 (   921 PWs)   bands (ev):

    -4.3570   2.9293   9.7819  10.0459

          k = 0.6000-0.4000 0.6000 (   924 PWs)   bands (ev):

    -2.4545   0.3034   9.4123   9.8115

          k = 0.5000-0.3000 0.5000 (   925 PWs)   bands (ev):

    -3.0546   1.0529   9.1175  10.2236

          k = 0.4000-0.2000 0.4000 (   924 PWs)   bands (ev):

    -4.9650   3.9715   9.2142  10.9527

          k = 0.3000-0.1000 0.3000 (   929 PWs)   bands (ev):

    -6.4804   7.2288   9.7202  11.8596

          k = 0.2000 0.0000 0.2000 (   919 PWs)   bands (ev):

    -7.4813  10.2001  10.7648  12.6177

          k = 0.0000 0.4000 0.0000 (   925 PWs)   bands (ev):

    -6.7508   9.8681   9.8681  10.0933

          k =-0.1000 0.5000-0.1000 (   923 PWs)   bands (ev):

    -5.7570   7.3326   9.0803   9.4912

          k =-0.2000 0.6000-0.2000 (   926 PWs)   bands (ev):

    -4.2557   4.3834   8.4364   8.6960

          k = 0.7000-0.3000 0.7000 (   923 PWs)   bands (ev):

    -2.3750   1.6346   7.4384   8.7614

          k = 0.6000-0.2000 0.6000 (   930 PWs)   bands (ev):

    -1.8094   0.9613   6.7657   9.2585

          k = 0.5000-0.1000 0.5000 (   920 PWs)   bands (ev):

    -3.6671   3.4960   6.5383  10.1057

          k = 0.4000 0.0000 0.4000 (   919 PWs)   bands (ev):

    -5.3154   6.2076   7.0990  11.1118

          k =-0.0000 0.6000-0.0000 (   926 PWs)   bands (ev):

    -4.9499   7.1448   8.2096   8.2096

          k =-0.1000 0.7000-0.1000 (   925 PWs)   bands (ev):

    -3.6317   5.1776   7.1179   7.7394

          k = 0.8000-0.2000 0.8000 (   927 PWs)   bands (ev):

    -1.8822   2.9909   5.5873   7.7362

          k = 0.7000-0.1000 0.7000 (   925 PWs)   bands (ev):

    -0.4900   1.5128   4.4434   8.1960

          k = 0.6000 0.0000 0.6000 (   927 PWs)   bands (ev):

    -1.9569   3.0807   4.2265   9.0479

          k = 0.0000 0.8000 0.0000 (   938 PWs)   bands (ev):

    -2.5007   3.8107   7.1570   7.1570

          k = 0.9000-0.1000 0.9000 (   940 PWs)   bands (ev):

    -0.9196   2.1874   6.0404   7.0411

          k = 0.8000 0.0000 0.8000 (   930 PWs)   bands (ev):

     0.5790   1.1418   4.2864   7.4048

          k = 0.0000-1.0000 0.0000 (   934 PWs)   bands (ev):

     0.4872   0.4872   6.7985   6.7985

          k =-0.2000 0.4000 0.0000 (   926 PWs)   bands (ev):

    -6.3891   8.1272   8.8768  11.2092

          k =-0.3000 0.5000-0.1000 (   925 PWs)   bands (ev):

    -5.0484   5.3077   8.0273  10.3127

          k = 0.6000-0.4000 0.8000 (   923 PWs)   bands (ev):

    -3.2547   2.3413   7.8008   9.4411

          k = 0.5000-0.3000 0.7000 (   934 PWs)   bands (ev):

    -1.7358   0.4088   7.8012   9.0523

          k =-0.2000 0.6000 0.0000 (   921 PWs)   bands (ev):

    -4.6003   6.1372   7.2899   8.7725

          k = 0.7000-0.3000 0.9000 (   924 PWs)   bands (ev):

    -2.9682   3.7940   6.4335   7.9191

          k = 0.6000-0.2000 0.8000 (   925 PWs)   bands (ev):

    -1.1502   1.4955   5.8012   7.7516

          k = 0.5000-0.1000 0.7000 (   928 PWs)   bands (ev):

    -1.7383   2.2326   5.3252   8.3293

          k = 0.4000 0.0000 0.6000 (   922 PWs)   bands (ev):

    -3.5726   4.5366   5.6028   9.3168

          k = 0.8000-0.2000 1.0000 (   930 PWs)   bands (ev):

    -2.1810   3.7301   6.3121   6.7919

          k = 0.7000-0.1000 0.9000 (   927 PWs)   bands (ev):

    -0.3990   2.1981   4.7310   6.6737

          k = 0.6000 0.0000 0.8000 (   922 PWs)   bands (ev):

    -0.0777   2.0097   3.7454   7.2930

          k =-0.2000-1.0000-0.0000 (   934 PWs)   bands (ev):

     0.7200   0.7200   6.0816   6.0816

          k = 0.6000-0.2000 1.0000 (   918 PWs)   bands (ev):

    -1.2771   3.0918   4.7684   6.6995

          k = 0.5000-0.1000 0.9000 (   926 PWs)   bands (ev):

     0.1212   1.8553   4.4649   6.1108

          k =-0.4000-1.0000-0.0000 (   928 PWs)   bands (ev):

     1.2115   1.2115   4.9410   4.9410

     highest occupied level (ev):    13.0899

!    total energy              =     -23.05730891 Ry
     estimated scf accuracy    <          1.6E-10 Ry

     The total energy is the sum of the following terms:
     one-electron contribution =       7.94426196 Ry
     hartree contribution      =       1.91731720 Ry
     xc contribution           =      -7.34358578 Ry
     ewald contribution        =     -25.57530229 Ry

     convergence has been achieved in   6 iterations

     Forces acting on atoms (cartesian axes, Ry/au):

     atom    1 type  1   force =     0.00000000    0.00000000    0.00000000
     atom    2 type  1   force =     0.00000000    0.00000000    0.00000000

     Total force =     0.000000     Total SCF correction =     0.000000


     Computing stress (Cartesian axis) and pressure

          total   stress  (Ry/bohr**3)                   (kbar)     P=     -128.38
  -0.00087272   0.00000000  -0.00000000         -128.38        0.00       -0.00
   0.00000000  -0.00087272   0.00000000            0.00     -128.38        0.00
  -0.00000000   0.00000000  -0.00087272           -0.00        0.00     -128.38


     Writing all to output data dir ./Diamond.save/
 
     init_run     :      0.89s CPU      0.93s WALL (       1 calls)
     electrons    :      6.67s CPU      7.20s WALL (       1 calls)
     forces       :      0.07s CPU      0.07s WALL (       1 calls)
     stress       :      0.46s CPU      0.47s WALL (       1 calls)

     Called by init_run:
     wfcinit      :      0.48s CPU      0.50s WALL (       1 calls)
     potinit      :      0.01s CPU      0.01s WALL (       1 calls)
     hinit0       :      0.37s CPU      0.38s WALL (       1 calls)

     Called by electrons:
     c_bands      :      5.73s CPU      6.20s WALL (       6 calls)
     sum_band     :      0.84s CPU      0.88s WALL (       6 calls)
     v_of_rho     :      0.03s CPU      0.04s WALL (       7 calls)
     newd         :      0.06s CPU      0.07s WALL (       7 calls)
     mix_rho      :      0.01s CPU      0.01s WALL (       6 calls)

     Called by c_bands:
     init_us_2    :      0.38s CPU      0.42s WALL (     705 calls)
     init_us_2:cp :      0.37s CPU      0.41s WALL (     705 calls)
     ccgdiagg     :      4.48s CPU      4.85s WALL (     282 calls)
     wfcrot       :      1.43s CPU      1.47s WALL (     282 calls)

     Called by *cgdiagg:
     h_psi        :      4.93s CPU      5.24s WALL (    3672 calls)
     s_psi        :      0.24s CPU      0.27s WALL (    7062 calls)

     Called by h_psi:
     h_psi:calbec :      0.28s CPU      0.29s WALL (    3672 calls)
     vloc_psi     :      4.31s CPU      4.58s WALL (    3672 calls)
     add_vuspsi   :      0.16s CPU      0.18s WALL (    3672 calls)
     hs_1psi      :      3.94s CPU      4.24s WALL (    3390 calls)
     s_1psi       :      0.33s CPU      0.36s WALL (    3390 calls)

     General routines
     calbec       :      0.38s CPU      0.42s WALL (    7579 calls)
     fft          :      0.02s CPU      0.04s WALL (      36 calls)
     ffts         :      0.00s CPU      0.00s WALL (       6 calls)
     fftw         :      4.18s CPU      4.42s WALL (   10540 calls)
 
     Parallel routines
 
     PWSCF        :      8.41s CPU      9.48s WALL

 
   This run was terminated on:  17: 9:51  14Mar2022            

=------------------------------------------------------------------------------=
   JOB DONE.
=------------------------------------------------------------------------------=
