
     Program PWSCF v.7.0 starts on 14Mar2022 at 17:10:30 

     This program is part of the open-source Quantum ESPRESSO suite
     for quantum simulation of materials; please cite
         "P. Giannozzi et al., J. Phys.:Condens. Matter 21 395502 (2009);
         "P. Giannozzi et al., J. Phys.:Condens. Matter 29 465901 (2017);
         "P. Giannozzi et al., J. Chem. Phys. 152 154105 (2020);
          URL http://www.quantum-espresso.org", 
     in publications or presentations arising from this work. More details at
     http://www.quantum-espresso.org/quote

     Parallel version (MPI), running on     1 processors

     MPI processes distributed on     1 nodes
     91909 MiB available memory on the printing compute node when the environment starts
 
     Waiting for input...
     Reading input from standard input
Warning: card &CELL ignored
Warning: card  CELL_DYNAMICS = 'BFGS', ignored
Warning: card  PRESS=0.1D0, ignored
Warning: card / ignored
     Message from routine read_cards :
     DEPRECATED: no units specified in ATOMIC_POSITIONS card
     Message from routine read_cards :
     ATOMIC_POSITIONS: units set to alat

     Current dimensions of program PWSCF are:
     Max number of different atomic species (ntypx) = 10
     Max number of k-points (npk) =  40000
     Max angular momentum in pseudopotentials (lmaxx) =  4

     Subspace diagonalization in iterative solution of the eigenvalue problem:
     a serial algorithm will be used

 
     G-vector sticks info
     --------------------
     sticks:   dense  smooth     PW     G-vecs:    dense   smooth      PW
     Sum         745     745    235                13635    13635    2277
 
     Using Slab Decomposition
 


     bravais-lattice index     =            2
     lattice parameter (alat)  =       6.7400  a.u.
     unit-cell volume          =      76.5455 (a.u.)^3
     number of atoms/cell      =            2
     number of atomic types    =            1
     number of electrons       =         8.00
     number of Kohn-Sham states=            4
     kinetic-energy cutoff     =     120.0000  Ry
     charge density cutoff     =     480.0000  Ry
     scf convergence threshold =      1.0E-08
     mixing beta               =       0.7000
     number of iterations used =            8  plain     mixing
     Exchange-correlation= SLA  PZ   NOGX NOGC
                           (   1   1   0   0   0   0   0)

     celldm(1)=   6.740000  celldm(2)=   0.000000  celldm(3)=   0.000000
     celldm(4)=   0.000000  celldm(5)=   0.000000  celldm(6)=   0.000000

     crystal axes: (cart. coord. in units of alat)
               a(1) = (  -0.500000   0.000000   0.500000 )  
               a(2) = (   0.000000   0.500000   0.500000 )  
               a(3) = (  -0.500000   0.500000   0.000000 )  

     reciprocal axes: (cart. coord. in units 2 pi/alat)
               b(1) = ( -1.000000 -1.000000  1.000000 )  
               b(2) = (  1.000000  1.000000  1.000000 )  
               b(3) = ( -1.000000  1.000000 -1.000000 )  


     PseudoPot. # 1 for C  read from file:
     ../C_LDA.UPF
     MD5 check sum: 407c1fe918d93b14b177d5600f28733c
     Pseudo is Ultrasoft + core correction, Zval =  4.0
     Generated by new atomic code, or converted to UPF format
     Using radial grid of  721 points,  4 beta functions with: 
                l(1) =   0
                l(2) =   0
                l(3) =   1
                l(4) =   1
     Q(r) pseudized with  8 coefficients,  rinner =    1.100   1.100   1.100


     atomic species   valence    mass     pseudopotential
        C              4.00    12.01100     C ( 1.00)

     48 Sym. Ops., with inversion, found (24 have fractional translation)



   Cartesian axes

     site n.     atom                  positions (alat units)
         1           C   tau(   1) = (   0.0000000   0.0000000   0.0000000  )
         2           C   tau(   2) = (   0.2500000   0.2500000   0.2500000  )

     number of k points=    47
                       cart. coord. in units 2pi/alat
        k(    1) = (   0.0000000   0.0000000   0.0000000), wk =   0.0020000
        k(    2) = (  -0.1000000   0.1000000  -0.1000000), wk =   0.0160000
        k(    3) = (  -0.2000000   0.2000000  -0.2000000), wk =   0.0160000
        k(    4) = (  -0.3000000   0.3000000  -0.3000000), wk =   0.0160000
        k(    5) = (  -0.4000000   0.4000000  -0.4000000), wk =   0.0160000
        k(    6) = (   0.5000000  -0.5000000   0.5000000), wk =   0.0080000
        k(    7) = (   0.0000000   0.2000000   0.0000000), wk =   0.0120000
        k(    8) = (  -0.1000000   0.3000000  -0.1000000), wk =   0.0480000
        k(    9) = (  -0.2000000   0.4000000  -0.2000000), wk =   0.0480000
        k(   10) = (  -0.3000000   0.5000000  -0.3000000), wk =   0.0480000
        k(   11) = (   0.6000000  -0.4000000   0.6000000), wk =   0.0480000
        k(   12) = (   0.5000000  -0.3000000   0.5000000), wk =   0.0480000
        k(   13) = (   0.4000000  -0.2000000   0.4000000), wk =   0.0480000
        k(   14) = (   0.3000000  -0.1000000   0.3000000), wk =   0.0480000
        k(   15) = (   0.2000000   0.0000000   0.2000000), wk =   0.0240000
        k(   16) = (   0.0000000   0.4000000   0.0000000), wk =   0.0120000
        k(   17) = (  -0.1000000   0.5000000  -0.1000000), wk =   0.0480000
        k(   18) = (  -0.2000000   0.6000000  -0.2000000), wk =   0.0480000
        k(   19) = (   0.7000000  -0.3000000   0.7000000), wk =   0.0480000
        k(   20) = (   0.6000000  -0.2000000   0.6000000), wk =   0.0480000
        k(   21) = (   0.5000000  -0.1000000   0.5000000), wk =   0.0480000
        k(   22) = (   0.4000000   0.0000000   0.4000000), wk =   0.0240000
        k(   23) = (  -0.0000000   0.6000000  -0.0000000), wk =   0.0120000
        k(   24) = (  -0.1000000   0.7000000  -0.1000000), wk =   0.0480000
        k(   25) = (   0.8000000  -0.2000000   0.8000000), wk =   0.0480000
        k(   26) = (   0.7000000  -0.1000000   0.7000000), wk =   0.0480000
        k(   27) = (   0.6000000   0.0000000   0.6000000), wk =   0.0240000
        k(   28) = (   0.0000000   0.8000000   0.0000000), wk =   0.0120000
        k(   29) = (   0.9000000  -0.1000000   0.9000000), wk =   0.0480000
        k(   30) = (   0.8000000   0.0000000   0.8000000), wk =   0.0240000
        k(   31) = (   0.0000000  -1.0000000   0.0000000), wk =   0.0060000
        k(   32) = (  -0.2000000   0.4000000   0.0000000), wk =   0.0480000
        k(   33) = (  -0.3000000   0.5000000  -0.1000000), wk =   0.0960000
        k(   34) = (   0.6000000  -0.4000000   0.8000000), wk =   0.0960000
        k(   35) = (   0.5000000  -0.3000000   0.7000000), wk =   0.0480000
        k(   36) = (  -0.2000000   0.6000000   0.0000000), wk =   0.0480000
        k(   37) = (   0.7000000  -0.3000000   0.9000000), wk =   0.0960000
        k(   38) = (   0.6000000  -0.2000000   0.8000000), wk =   0.0960000
        k(   39) = (   0.5000000  -0.1000000   0.7000000), wk =   0.0960000
        k(   40) = (   0.4000000   0.0000000   0.6000000), wk =   0.0480000
        k(   41) = (   0.8000000  -0.2000000   1.0000000), wk =   0.0480000
        k(   42) = (   0.7000000  -0.1000000   0.9000000), wk =   0.0960000
        k(   43) = (   0.6000000   0.0000000   0.8000000), wk =   0.0480000
        k(   44) = (  -0.2000000  -1.0000000  -0.0000000), wk =   0.0240000
        k(   45) = (   0.6000000  -0.2000000   1.0000000), wk =   0.0480000
        k(   46) = (   0.5000000  -0.1000000   0.9000000), wk =   0.0480000
        k(   47) = (  -0.4000000  -1.0000000  -0.0000000), wk =   0.0240000

     Dense  grid:    13635 G-vectors     FFT dimensions: (  36,  36,  36)

     Estimated max dynamical RAM per process >      25.17 MB

     Initial potential from superposition of free atoms

     starting charge       7.9999, renormalised to       8.0000
     Starting wfcs are    8 randomized atomic wfcs

     total cpu time spent up to now is        2.0 secs

     Self-consistent Calculation

     iteration #  1     ecut=   120.00 Ry     beta= 0.70
     CG style diagonalization
     ethr =  1.00E-02,  avg # of iterations =  3.0

     total cpu time spent up to now is        4.1 secs

     total energy              =     -23.04072054 Ry
     estimated scf accuracy    <       0.13334102 Ry

     iteration #  2     ecut=   120.00 Ry     beta= 0.70
     CG style diagonalization
     ethr =  1.67E-03,  avg # of iterations =  3.6

     total cpu time spent up to now is        6.4 secs

     total energy              =     -23.05708161 Ry
     estimated scf accuracy    <       0.00138262 Ry

     iteration #  3     ecut=   120.00 Ry     beta= 0.70
     CG style diagonalization
     ethr =  1.73E-05,  avg # of iterations =  4.0

     total cpu time spent up to now is        9.0 secs

     total energy              =     -23.05757010 Ry
     estimated scf accuracy    <       0.00005784 Ry

     iteration #  4     ecut=   120.00 Ry     beta= 0.70
     CG style diagonalization
     ethr =  7.23E-07,  avg # of iterations =  4.1

     total cpu time spent up to now is       11.5 secs

     total energy              =     -23.05759185 Ry
     estimated scf accuracy    <       0.00000389 Ry

     iteration #  5     ecut=   120.00 Ry     beta= 0.70
     CG style diagonalization
     ethr =  4.86E-08,  avg # of iterations =  3.9

     total cpu time spent up to now is       14.0 secs

     total energy              =     -23.05759340 Ry
     estimated scf accuracy    <       0.00000009 Ry

     iteration #  6     ecut=   120.00 Ry     beta= 0.70
     CG style diagonalization
     ethr =  1.11E-09,  avg # of iterations =  4.3

     total cpu time spent up to now is       16.7 secs

     End of self-consistent calculation

          k = 0.0000 0.0000 0.0000 (  1687 PWs)   bands (ev):

    -8.2163  13.0892  13.0892  13.0892

          k =-0.1000 0.1000-0.1000 (  1720 PWs)   bands (ev):

    -7.9400  11.4332  12.6437  12.6437

          k =-0.2000 0.2000-0.2000 (  1714 PWs)   bands (ev):

    -7.1160   8.2570  11.7703  11.7703

          k =-0.3000 0.3000-0.3000 (  1685 PWs)   bands (ev):

    -5.7624   4.8786  10.9826  10.9826

          k =-0.4000 0.4000-0.4000 (  1685 PWs)   bands (ev):

    -3.9432   1.7495  10.4729  10.4729

          k = 0.5000-0.5000 0.5000 (  1694 PWs)   bands (ev):

    -2.3795  -0.2641  10.2990  10.2990

          k = 0.0000 0.2000 0.0000 (  1719 PWs)   bands (ev):

    -7.8481  11.8639  11.8639  12.2506

          k =-0.1000 0.3000-0.1000 (  1704 PWs)   bands (ev):

    -7.2069   9.3639  10.8986  11.7773

          k =-0.2000 0.4000-0.2000 (  1698 PWs)   bands (ev):

    -6.0295   6.1168  10.1554  10.9124

          k =-0.3000 0.5000-0.3000 (  1696 PWs)   bands (ev):

    -4.3570   2.9291   9.7812  10.0452

          k = 0.6000-0.4000 0.6000 (  1705 PWs)   bands (ev):

    -2.4545   0.3032   9.4117   9.8107

          k = 0.5000-0.3000 0.5000 (  1701 PWs)   bands (ev):

    -3.0545   1.0527   9.1168  10.2228

          k = 0.4000-0.2000 0.4000 (  1698 PWs)   bands (ev):

    -4.9649   3.9712   9.2136  10.9519

          k = 0.3000-0.1000 0.3000 (  1706 PWs)   bands (ev):

    -6.4804   7.2284   9.7196  11.8588

          k = 0.2000 0.0000 0.2000 (  1717 PWs)   bands (ev):

    -7.4812  10.1994  10.7641  12.6169

          k = 0.0000 0.4000 0.0000 (  1696 PWs)   bands (ev):

    -6.7507   9.8674   9.8674  10.0929

          k =-0.1000 0.5000-0.1000 (  1698 PWs)   bands (ev):

    -5.7570   7.3321   9.0796   9.4906

          k =-0.2000 0.6000-0.2000 (  1700 PWs)   bands (ev):

    -4.2557   4.3831   8.4358   8.6953

          k = 0.7000-0.3000 0.7000 (  1700 PWs)   bands (ev):

    -2.3750   1.6344   7.4379   8.7608

          k = 0.6000-0.2000 0.6000 (  1704 PWs)   bands (ev):

    -1.8093   0.9611   6.7652   9.2578

          k = 0.5000-0.1000 0.5000 (  1695 PWs)   bands (ev):

    -3.6671   3.4958   6.5379  10.1050

          k = 0.4000 0.0000 0.4000 (  1708 PWs)   bands (ev):

    -5.3153   6.2072   7.0985  11.1110

          k =-0.0000 0.6000-0.0000 (  1712 PWs)   bands (ev):

    -4.9498   7.1444   8.2089   8.2089

          k =-0.1000 0.7000-0.1000 (  1689 PWs)   bands (ev):

    -3.6317   5.1773   7.1174   7.7388

          k = 0.8000-0.2000 0.8000 (  1691 PWs)   bands (ev):

    -1.8822   2.9908   5.5869   7.7356

          k = 0.7000-0.1000 0.7000 (  1700 PWs)   bands (ev):

    -0.4899   1.5126   4.4431   8.1954

          k = 0.6000 0.0000 0.6000 (  1696 PWs)   bands (ev):

    -1.9569   3.0805   4.2261   9.0472

          k = 0.0000 0.8000 0.0000 (  1708 PWs)   bands (ev):

    -2.5007   3.8106   7.1564   7.1564

          k = 0.9000-0.1000 0.9000 (  1704 PWs)   bands (ev):

    -0.9196   2.1873   6.0399   7.0404

          k = 0.8000 0.0000 0.8000 (  1692 PWs)   bands (ev):

     0.5790   1.1417   4.2860   7.4042

          k = 0.0000-1.0000 0.0000 (  1724 PWs)   bands (ev):

     0.4871   0.4871   6.7979   6.7979

          k =-0.2000 0.4000 0.0000 (  1704 PWs)   bands (ev):

    -6.3890   8.1268   8.8762  11.2085

          k =-0.3000 0.5000-0.1000 (  1700 PWs)   bands (ev):

    -5.0484   5.3074   8.0267  10.3121

          k = 0.6000-0.4000 0.8000 (  1705 PWs)   bands (ev):

    -3.2547   2.3411   7.8003   9.4404

          k = 0.5000-0.3000 0.7000 (  1708 PWs)   bands (ev):

    -1.7357   0.4086   7.8007   9.0516

          k =-0.2000 0.6000 0.0000 (  1695 PWs)   bands (ev):

    -4.6003   6.1368   7.2894   8.7719

          k = 0.7000-0.3000 0.9000 (  1696 PWs)   bands (ev):

    -2.9682   3.7938   6.4331   7.9185

          k = 0.6000-0.2000 0.8000 (  1698 PWs)   bands (ev):

    -1.1502   1.4953   5.8008   7.7510

          k = 0.5000-0.1000 0.7000 (  1696 PWs)   bands (ev):

    -1.7383   2.2324   5.3249   8.3287

          k = 0.4000 0.0000 0.6000 (  1694 PWs)   bands (ev):

    -3.5725   4.5364   5.6024   9.3161

          k = 0.8000-0.2000 1.0000 (  1692 PWs)   bands (ev):

    -2.1810   3.7299   6.3116   6.7914

          k = 0.7000-0.1000 0.9000 (  1689 PWs)   bands (ev):

    -0.3991   2.1979   4.7306   6.6732

          k = 0.6000 0.0000 0.8000 (  1697 PWs)   bands (ev):

    -0.0777   2.0095   3.7450   7.2924

          k =-0.2000-1.0000-0.0000 (  1694 PWs)   bands (ev):

     0.7199   0.7199   6.0810   6.0810

          k = 0.6000-0.2000 1.0000 (  1693 PWs)   bands (ev):

    -1.2771   3.0916   4.7680   6.6989

          k = 0.5000-0.1000 0.9000 (  1700 PWs)   bands (ev):

     0.1212   1.8552   4.4645   6.1103

          k =-0.4000-1.0000-0.0000 (  1700 PWs)   bands (ev):

     1.2114   1.2114   4.9405   4.9405

     highest occupied level (ev):    13.0892

!    total energy              =     -23.05759346 Ry
     estimated scf accuracy    <          1.4E-10 Ry

     The total energy is the sum of the following terms:
     one-electron contribution =       7.94390784 Ry
     hartree contribution      =       1.91742969 Ry
     xc contribution           =      -7.34362871 Ry
     ewald contribution        =     -25.57530229 Ry

     convergence has been achieved in   6 iterations

     Forces acting on atoms (cartesian axes, Ry/au):

     atom    1 type  1   force =    -0.00000000    0.00000000    0.00000000
     atom    2 type  1   force =     0.00000000    0.00000000   -0.00000000

     Total force =     0.000000     Total SCF correction =     0.000000


     Computing stress (Cartesian axis) and pressure

          total   stress  (Ry/bohr**3)                   (kbar)     P=     -128.66
  -0.00087463  -0.00000000   0.00000000         -128.66       -0.00        0.00
  -0.00000000  -0.00087463   0.00000000           -0.00     -128.66        0.00
   0.00000000  -0.00000000  -0.00087463            0.00       -0.00     -128.66


     Writing all to output data dir ./Diamond.save/
 
     init_run     :      1.55s CPU      1.62s WALL (       1 calls)
     electrons    :     13.86s CPU     14.72s WALL (       1 calls)
     forces       :      0.14s CPU      0.15s WALL (       1 calls)
     stress       :      0.85s CPU      0.86s WALL (       1 calls)

     Called by init_run:
     wfcinit      :      1.04s CPU      1.08s WALL (       1 calls)
     potinit      :      0.01s CPU      0.02s WALL (       1 calls)
     hinit0       :      0.43s CPU      0.45s WALL (       1 calls)

     Called by electrons:
     c_bands      :     11.87s CPU     12.62s WALL (       6 calls)
     sum_band     :      1.80s CPU      1.88s WALL (       6 calls)
     v_of_rho     :      0.08s CPU      0.08s WALL (       7 calls)
     newd         :      0.11s CPU      0.13s WALL (       7 calls)
     mix_rho      :      0.02s CPU      0.02s WALL (       6 calls)

     Called by c_bands:
     init_us_2    :      0.69s CPU      0.75s WALL (     705 calls)
     init_us_2:cp :      0.68s CPU      0.74s WALL (     705 calls)
     ccgdiagg     :      9.25s CPU      9.84s WALL (     282 calls)
     wfcrot       :      3.14s CPU      3.26s WALL (     282 calls)

     Called by *cgdiagg:
     h_psi        :     11.03s CPU     11.58s WALL (    3662 calls)
     s_psi        :      0.36s CPU      0.41s WALL (    7042 calls)

     Called by h_psi:
     h_psi:calbec :      0.48s CPU      0.51s WALL (    3662 calls)
     vloc_psi     :     10.08s CPU     10.57s WALL (    3662 calls)
     add_vuspsi   :      0.26s CPU      0.28s WALL (    3662 calls)
     hs_1psi      :      8.45s CPU      8.93s WALL (    3380 calls)
     s_1psi       :      0.50s CPU      0.55s WALL (    3380 calls)

     General routines
     calbec       :      0.70s CPU      0.78s WALL (    7559 calls)
     fft          :      0.04s CPU      0.05s WALL (      36 calls)
     ffts         :      0.01s CPU      0.01s WALL (       6 calls)
     fftw         :      9.58s CPU     10.01s WALL (   10520 calls)
 
     Parallel routines
 
     PWSCF        :     16.77s CPU     18.17s WALL

 
   This run was terminated on:  17:10:48  14Mar2022            

=------------------------------------------------------------------------------=
   JOB DONE.
=------------------------------------------------------------------------------=
