
     Program PWSCF v.7.0 starts on 14Mar2022 at 17: 2:53 

     This program is part of the open-source Quantum ESPRESSO suite
     for quantum simulation of materials; please cite
         "P. Giannozzi et al., J. Phys.:Condens. Matter 21 395502 (2009);
         "P. Giannozzi et al., J. Phys.:Condens. Matter 29 465901 (2017);
         "P. Giannozzi et al., J. Chem. Phys. 152 154105 (2020);
          URL http://www.quantum-espresso.org", 
     in publications or presentations arising from this work. More details at
     http://www.quantum-espresso.org/quote

     Parallel version (MPI), running on     1 processors

     MPI processes distributed on     1 nodes
     90691 MiB available memory on the printing compute node when the environment starts
 
     Waiting for input...
     Reading input from standard input
Warning: card &CELL ignored
Warning: card  CELL_DYNAMICS = 'BFGS', ignored
Warning: card  PRESS=0.1D0, ignored
Warning: card / ignored
     Message from routine read_cards :
     DEPRECATED: no units specified in ATOMIC_POSITIONS card
     Message from routine read_cards :
     ATOMIC_POSITIONS: units set to alat

     Current dimensions of program PWSCF are:
     Max number of different atomic species (ntypx) = 10
     Max number of k-points (npk) =  40000
     Max angular momentum in pseudopotentials (lmaxx) =  4

     Subspace diagonalization in iterative solution of the eigenvalue problem:
     a serial algorithm will be used

 
     G-vector sticks info
     --------------------
     sticks:   dense  smooth     PW     G-vecs:    dense   smooth      PW
     Sum         931     313    109                18907     3695     701
 
     Using Slab Decomposition
 


     bravais-lattice index     =            2
     lattice parameter (alat)  =       6.7400  a.u.
     unit-cell volume          =      76.5455 (a.u.)^3
     number of atoms/cell      =            2
     number of atomic types    =            1
     number of electrons       =         8.00
     number of Kohn-Sham states=            4
     kinetic-energy cutoff     =      50.0000  Ry
     charge density cutoff     =     600.0000  Ry
     scf convergence threshold =      1.0E-08
     mixing beta               =       0.7000
     number of iterations used =            8  plain     mixing
     Exchange-correlation= SLA  PZ   NOGX NOGC
                           (   1   1   0   0   0   0   0)

     celldm(1)=   6.740000  celldm(2)=   0.000000  celldm(3)=   0.000000
     celldm(4)=   0.000000  celldm(5)=   0.000000  celldm(6)=   0.000000

     crystal axes: (cart. coord. in units of alat)
               a(1) = (  -0.500000   0.000000   0.500000 )  
               a(2) = (   0.000000   0.500000   0.500000 )  
               a(3) = (  -0.500000   0.500000   0.000000 )  

     reciprocal axes: (cart. coord. in units 2 pi/alat)
               b(1) = ( -1.000000 -1.000000  1.000000 )  
               b(2) = (  1.000000  1.000000  1.000000 )  
               b(3) = ( -1.000000  1.000000 -1.000000 )  


     PseudoPot. # 1 for C  read from file:
     ../C_LDA.UPF
     MD5 check sum: 407c1fe918d93b14b177d5600f28733c
     Pseudo is Ultrasoft + core correction, Zval =  4.0
     Generated by new atomic code, or converted to UPF format
     Using radial grid of  721 points,  4 beta functions with: 
                l(1) =   0
                l(2) =   0
                l(3) =   1
                l(4) =   1
     Q(r) pseudized with  8 coefficients,  rinner =    1.100   1.100   1.100


     atomic species   valence    mass     pseudopotential
        C              4.00    12.01100     C ( 1.00)

     48 Sym. Ops., with inversion, found (24 have fractional translation)



   Cartesian axes

     site n.     atom                  positions (alat units)
         1           C   tau(   1) = (   0.0000000   0.0000000   0.0000000  )
         2           C   tau(   2) = (   0.2500000   0.2500000   0.2500000  )

     number of k points=     8
                       cart. coord. in units 2pi/alat
        k(    1) = (   0.0000000   0.0000000   0.0000000), wk =   0.0312500
        k(    2) = (  -0.2500000   0.2500000  -0.2500000), wk =   0.2500000
        k(    3) = (   0.5000000  -0.5000000   0.5000000), wk =   0.1250000
        k(    4) = (   0.0000000   0.5000000   0.0000000), wk =   0.1875000
        k(    5) = (   0.7500000  -0.2500000   0.7500000), wk =   0.7500000
        k(    6) = (   0.5000000   0.0000000   0.5000000), wk =   0.3750000
        k(    7) = (   0.0000000  -1.0000000   0.0000000), wk =   0.0937500
        k(    8) = (  -0.5000000  -1.0000000   0.0000000), wk =   0.1875000

     Dense  grid:    18907 G-vectors     FFT dimensions: (  40,  40,  40)

     Smooth grid:     3695 G-vectors     FFT dimensions: (  24,  24,  24)

     Estimated max dynamical RAM per process >      27.49 MB

     Initial potential from superposition of free atoms

     starting charge       7.9999, renormalised to       8.0000
     Starting wfcs are    8 randomized atomic wfcs

     total cpu time spent up to now is        1.0 secs

     Self-consistent Calculation

     iteration #  1     ecut=    50.00 Ry     beta= 0.70
     CG style diagonalization
     ethr =  1.00E-02,  avg # of iterations =  3.0

     total cpu time spent up to now is        1.2 secs

     total energy              =     -23.03110440 Ry
     estimated scf accuracy    <       0.13604269 Ry

     iteration #  2     ecut=    50.00 Ry     beta= 0.70
     CG style diagonalization
     ethr =  1.70E-03,  avg # of iterations =  3.5

     total cpu time spent up to now is        1.5 secs

     total energy              =     -23.04668184 Ry
     estimated scf accuracy    <       0.00149408 Ry

     iteration #  3     ecut=    50.00 Ry     beta= 0.70
     CG style diagonalization
     ethr =  1.87E-05,  avg # of iterations =  4.0

     total cpu time spent up to now is        1.7 secs

     total energy              =     -23.04707569 Ry
     estimated scf accuracy    <       0.00005361 Ry

     iteration #  4     ecut=    50.00 Ry     beta= 0.70
     CG style diagonalization
     ethr =  6.70E-07,  avg # of iterations =  3.8

     total cpu time spent up to now is        1.9 secs

     total energy              =     -23.04709036 Ry
     estimated scf accuracy    <       0.00000180 Ry

     iteration #  5     ecut=    50.00 Ry     beta= 0.70
     CG style diagonalization
     ethr =  2.25E-08,  avg # of iterations =  4.1

     total cpu time spent up to now is        2.2 secs

     total energy              =     -23.04709098 Ry
     estimated scf accuracy    <       0.00000001 Ry

     iteration #  6     ecut=    50.00 Ry     beta= 0.70
     CG style diagonalization
     ethr =  1.66E-10,  avg # of iterations =  4.7

     total cpu time spent up to now is        2.4 secs

     End of self-consistent calculation

          k = 0.0000 0.0000 0.0000 (   459 PWs)   bands (ev):

    -8.2000  13.1239  13.1239  13.1239

          k =-0.2500 0.2500-0.2500 (   465 PWs)   bands (ev):

    -6.4861   6.5825  11.3806  11.3806

          k = 0.5000-0.5000 0.5000 (   464 PWs)   bands (ev):

    -2.3576  -0.2472  10.3302  10.3302

          k = 0.0000 0.5000 0.0000 (   456 PWs)   bands (ev):

    -5.9181   8.7214   9.0000   9.0000

          k = 0.7500-0.2500 0.7500 (   453 PWs)   bands (ev):

    -2.1659   2.4208   6.4177   8.2476

          k = 0.5000 0.0000 0.5000 (   463 PWs)   bands (ev):

    -3.7294   4.5311   5.5145  10.1159

          k = 0.0000-1.0000 0.0000 (   460 PWs)   bands (ev):

     0.5091   0.5091   6.8239   6.8239

          k =-0.5000-1.0000 0.0000 (   464 PWs)   bands (ev):

     1.3444   1.3444   4.7529   4.7529

     highest occupied level (ev):    13.1239

!    total energy              =     -23.04709100 Ry
     estimated scf accuracy    <          8.0E-10 Ry

     The total energy is the sum of the following terms:
     one-electron contribution =       7.94487389 Ry
     hartree contribution      =       1.93218337 Ry
     xc contribution           =      -7.34884597 Ry
     ewald contribution        =     -25.57530229 Ry

     convergence has been achieved in   6 iterations

     Forces acting on atoms (cartesian axes, Ry/au):

     atom    1 type  1   force =     0.00000000   -0.00000000    0.00000000
     atom    2 type  1   force =    -0.00000000    0.00000000   -0.00000000

     Total force =     0.000000     Total SCF correction =     0.000000


     Computing stress (Cartesian axis) and pressure

          total   stress  (Ry/bohr**3)                   (kbar)     P=     -116.06
  -0.00078894  -0.00000000   0.00000000         -116.06       -0.00        0.00
  -0.00000000  -0.00078894   0.00000000           -0.00     -116.06        0.00
  -0.00000000  -0.00000000  -0.00078894           -0.00       -0.00     -116.06


     Writing all to output data dir ./Diamond.save/
 
     init_run     :      0.56s CPU      0.60s WALL (       1 calls)
     electrons    :      1.24s CPU      1.42s WALL (       1 calls)
     forces       :      0.07s CPU      0.08s WALL (       1 calls)
     stress       :      0.28s CPU      0.30s WALL (       1 calls)

     Called by init_run:
     wfcinit      :      0.06s CPU      0.06s WALL (       1 calls)
     potinit      :      0.03s CPU      0.03s WALL (       1 calls)
     hinit0       :      0.42s CPU      0.43s WALL (       1 calls)

     Called by electrons:
     c_bands      :      0.66s CPU      0.74s WALL (       6 calls)
     sum_band     :      0.31s CPU      0.34s WALL (       6 calls)
     v_of_rho     :      0.11s CPU      0.12s WALL (       7 calls)
     newd         :      0.16s CPU      0.20s WALL (       7 calls)
     mix_rho      :      0.02s CPU      0.02s WALL (       6 calls)

     Called by c_bands:
     init_us_2    :      0.03s CPU      0.04s WALL (     120 calls)
     init_us_2:cp :      0.03s CPU      0.04s WALL (     120 calls)
     ccgdiagg     :      0.51s CPU      0.58s WALL (      48 calls)
     wfcrot       :      0.17s CPU      0.19s WALL (      48 calls)

     Called by *cgdiagg:
     h_psi        :      0.55s CPU      0.61s WALL (     628 calls)
     s_psi        :      0.03s CPU      0.03s WALL (    1208 calls)

     Called by h_psi:
     h_psi:calbec :      0.03s CPU      0.03s WALL (     628 calls)
     vloc_psi     :      0.47s CPU      0.52s WALL (     628 calls)
     add_vuspsi   :      0.02s CPU      0.02s WALL (     628 calls)
     hs_1psi      :      0.44s CPU      0.50s WALL (     580 calls)
     s_1psi       :      0.04s CPU      0.05s WALL (     580 calls)

     General routines
     calbec       :      0.04s CPU      0.04s WALL (    1296 calls)
     fft          :      0.07s CPU      0.08s WALL (      48 calls)
     ffts         :      0.01s CPU      0.01s WALL (      13 calls)
     fftw         :      0.46s CPU      0.50s WALL (    1800 calls)
     interpolate  :      0.02s CPU      0.02s WALL (       7 calls)
 
     Parallel routines
 
     PWSCF        :      2.45s CPU      2.99s WALL

 
   This run was terminated on:  17: 2:56  14Mar2022            

=------------------------------------------------------------------------------=
   JOB DONE.
=------------------------------------------------------------------------------=
