
     Program PWSCF v.7.0 starts on 20Feb2022 at 18:29:17 

     This program is part of the open-source Quantum ESPRESSO suite
     for quantum simulation of materials; please cite
         "P. Giannozzi et al., J. Phys.:Condens. Matter 21 395502 (2009);
         "P. Giannozzi et al., J. Phys.:Condens. Matter 29 465901 (2017);
         "P. Giannozzi et al., J. Chem. Phys. 152 154105 (2020);
          URL http://www.quantum-espresso.org", 
     in publications or presentations arising from this work. More details at
     http://www.quantum-espresso.org/quote

     Parallel version (MPI), running on     1 processors

     MPI processes distributed on     1 nodes
     88902 MiB available memory on the printing compute node when the environment starts
 
     Waiting for input...
     Reading input from standard input

     Current dimensions of program PWSCF are:
     Max number of different atomic species (ntypx) = 10
     Max number of k-points (npk) =  40000
     Max angular momentum in pseudopotentials (lmaxx) =  4

     Subspace diagonalization in iterative solution of the eigenvalue problem:
     a serial algorithm will be used

 
     G-vector sticks info
     --------------------
     sticks:   dense  smooth     PW     G-vecs:    dense   smooth      PW
     Sum        1369     451    151                33487     6423    1243
 
     Using Slab Decomposition
 


     bravais-lattice index     =            2
     lattice parameter (alat)  =       9.1069  a.u.
     unit-cell volume          =     188.8216 (a.u.)^3
     number of atoms/cell      =            2
     number of atomic types    =            2
     number of electrons       =         8.00
     number of Kohn-Sham states=            4
     kinetic-energy cutoff     =      40.0000  Ry
     charge density cutoff     =     480.0000  Ry
     scf convergence threshold =      1.0E-08
     mixing beta               =       0.7000
     number of iterations used =            8  plain     mixing
     energy convergence thresh.=      1.0E-04
     force convergence thresh. =      1.0E-03
     press convergence thresh. =      5.0E-01
     Exchange-correlation= SLA  PW   PBE  PBE
                           (   1   4   3   4   0   0   0)
     nstep                     =           50


     celldm(1)=   9.106900  celldm(2)=   0.000000  celldm(3)=   0.000000
     celldm(4)=   0.000000  celldm(5)=   0.000000  celldm(6)=   0.000000

     crystal axes: (cart. coord. in units of alat)
               a(1) = (  -0.500000   0.000000   0.500000 )  
               a(2) = (   0.000000   0.500000   0.500000 )  
               a(3) = (  -0.500000   0.500000   0.000000 )  

     reciprocal axes: (cart. coord. in units 2 pi/alat)
               b(1) = ( -1.000000 -1.000000  1.000000 )  
               b(2) = (  1.000000  1.000000  1.000000 )  
               b(3) = ( -1.000000  1.000000 -1.000000 )  


     PseudoPot. # 1 for B  read from file:
     ../pseudo_dir/B_PBE.UPF
     MD5 check sum: cc6de2960df11db49a60e589f9ebb39b
     Pseudo is Ultrasoft + core correction, Zval =  3.0
     Generated by new atomic code, or converted to UPF format
     Using radial grid of  781 points,  4 beta functions with: 
                l(1) =   0
                l(2) =   0
                l(3) =   1
                l(4) =   1
     Q(r) pseudized with  8 coefficients,  rinner =    1.100   1.100   1.100


     PseudoPot. # 2 for As read from file:
     ../pseudo_dir/As_PBE.UPF
     MD5 check sum: a55e54db9b6ff5e275ac1f228f32106c
     Pseudo is Ultrasoft + core correction, Zval =  5.0
     Generated by new atomic code, or converted to UPF format
     Using radial grid of  875 points,  6 beta functions with: 
                l(1) =   0
                l(2) =   0
                l(3) =   1
                l(4) =   1
                l(5) =   2
                l(6) =   2
     Q(r) pseudized with  8 coefficients,  rinner =    1.300   1.300   1.300
                                                       1.300   1.300

     atomic species   valence    mass     pseudopotential
        B              3.00    10.81100     B ( 1.00)
        As             5.00    74.92160     As( 1.00)

     24 Sym. Ops. (no inversion) found



   Cartesian axes

     site n.     atom                  positions (alat units)
         1           B   tau(   1) = (   0.0000000   0.0000000   0.0000000  )
         2           As  tau(   2) = (  -0.2500000   0.2500000   0.2500000  )

     number of k points=    29
                       cart. coord. in units 2pi/alat
        k(    1) = (   0.0000000   0.0000000   0.0000000), wk =   0.0039062
        k(    2) = (  -0.1250000   0.1250000  -0.1250000), wk =   0.0312500
        k(    3) = (  -0.2500000   0.2500000  -0.2500000), wk =   0.0312500
        k(    4) = (  -0.3750000   0.3750000  -0.3750000), wk =   0.0312500
        k(    5) = (   0.5000000  -0.5000000   0.5000000), wk =   0.0156250
        k(    6) = (   0.0000000   0.2500000   0.0000000), wk =   0.0234375
        k(    7) = (  -0.1250000   0.3750000  -0.1250000), wk =   0.0937500
        k(    8) = (  -0.2500000   0.5000000  -0.2500000), wk =   0.0937500
        k(    9) = (   0.6250000  -0.3750000   0.6250000), wk =   0.0937500
        k(   10) = (   0.5000000  -0.2500000   0.5000000), wk =   0.0937500
        k(   11) = (   0.3750000  -0.1250000   0.3750000), wk =   0.0937500
        k(   12) = (   0.2500000   0.0000000   0.2500000), wk =   0.0468750
        k(   13) = (   0.0000000   0.5000000   0.0000000), wk =   0.0234375
        k(   14) = (  -0.1250000   0.6250000  -0.1250000), wk =   0.0937500
        k(   15) = (   0.7500000  -0.2500000   0.7500000), wk =   0.0937500
        k(   16) = (   0.6250000  -0.1250000   0.6250000), wk =   0.0937500
        k(   17) = (   0.5000000   0.0000000   0.5000000), wk =   0.0468750
        k(   18) = (   0.0000000   0.7500000   0.0000000), wk =   0.0234375
        k(   19) = (   0.8750000  -0.1250000   0.8750000), wk =   0.0937500
        k(   20) = (   0.7500000   0.0000000   0.7500000), wk =   0.0468750
        k(   21) = (   0.0000000  -1.0000000   0.0000000), wk =   0.0117188
        k(   22) = (  -0.2500000   0.5000000   0.0000000), wk =   0.0937500
        k(   23) = (   0.6250000  -0.3750000   0.8750000), wk =   0.1875000
        k(   24) = (   0.5000000  -0.2500000   0.7500000), wk =   0.0937500
        k(   25) = (   0.7500000  -0.2500000   1.0000000), wk =   0.0937500
        k(   26) = (   0.6250000  -0.1250000   0.8750000), wk =   0.1875000
        k(   27) = (   0.5000000   0.0000000   0.7500000), wk =   0.0937500
        k(   28) = (  -0.2500000  -1.0000000   0.0000000), wk =   0.0468750
        k(   29) = (  -0.5000000  -1.0000000   0.0000000), wk =   0.0234375

     Dense  grid:    33487 G-vectors     FFT dimensions: (  45,  45,  45)

     Smooth grid:     6423 G-vectors     FFT dimensions: (  25,  25,  25)

     Estimated max dynamical RAM per process >     132.53 MB

     Initial potential from superposition of free atoms

     starting charge       7.9995, renormalised to       8.0000
     Starting wfcs are    8 randomized atomic wfcs

     total cpu time spent up to now is        7.4 secs

     Self-consistent Calculation

     iteration #  1     ecut=    40.00 Ry     beta= 0.70
     CG style diagonalization
     ethr =  1.00E-02,  avg # of iterations =  2.6

     total cpu time spent up to now is        8.6 secs

     total energy              =     -46.63185419 Ry
     estimated scf accuracy    <       0.13148084 Ry

     iteration #  2     ecut=    40.00 Ry     beta= 0.70
     CG style diagonalization
     ethr =  1.64E-03,  avg # of iterations =  4.2

     total cpu time spent up to now is        9.9 secs

     total energy              =     -46.65984357 Ry
     estimated scf accuracy    <       0.03241184 Ry

     iteration #  3     ecut=    40.00 Ry     beta= 0.70
     CG style diagonalization
     ethr =  4.05E-04,  avg # of iterations =  4.1

     total cpu time spent up to now is       11.3 secs

     total energy              =     -46.66674024 Ry
     estimated scf accuracy    <       0.00045234 Ry

     iteration #  4     ecut=    40.00 Ry     beta= 0.70
     CG style diagonalization
     ethr =  5.65E-06,  avg # of iterations =  4.4

     total cpu time spent up to now is       12.6 secs

     total energy              =     -46.66697276 Ry
     estimated scf accuracy    <       0.00007065 Ry

     iteration #  5     ecut=    40.00 Ry     beta= 0.70
     CG style diagonalization
     ethr =  8.83E-07,  avg # of iterations =  3.9

     total cpu time spent up to now is       13.9 secs

     total energy              =     -46.66698721 Ry
     estimated scf accuracy    <       0.00000018 Ry

     iteration #  6     ecut=    40.00 Ry     beta= 0.70
     CG style diagonalization
     ethr =  2.23E-09,  avg # of iterations =  7.0

     total cpu time spent up to now is       15.7 secs

     total energy              =     -46.66698877 Ry
     estimated scf accuracy    <       0.00000004 Ry

     iteration #  7     ecut=    40.00 Ry     beta= 0.70
     CG style diagonalization
     ethr =  4.87E-10,  avg # of iterations =  4.0

     total cpu time spent up to now is       17.0 secs

     End of self-consistent calculation

          k = 0.0000 0.0000 0.0000 (   869 PWs)   bands (ev):

    -6.8631   8.2967   8.2967   8.2967

          k =-0.1250 0.1250-0.1250 (   815 PWs)   bands (ev):

    -6.6134   6.3575   7.8728   7.8728

          k =-0.2500 0.2500-0.2500 (   812 PWs)   bands (ev):

    -5.8879   3.4422   7.1822   7.1822

          k =-0.3750 0.3750-0.3750 (   811 PWs)   bands (ev):

    -4.8170   0.9266   6.6961   6.6961

          k = 0.5000-0.5000 0.5000 (   796 PWs)   bands (ev):

    -4.0895  -0.2964   6.5278   6.5278

          k = 0.0000 0.2500 0.0000 (   813 PWs)   bands (ev):

    -6.5297   6.8314   7.1724   7.1724

          k =-0.1250 0.3750-0.1250 (   814 PWs)   bands (ev):

    -5.9597   4.3823   6.4519   6.6864

          k =-0.2500 0.5000-0.2500 (   804 PWs)   bands (ev):

    -4.9817   1.7935   5.9228   6.0549

          k = 0.6250-0.3750 0.6250 (   808 PWs)   bands (ev):

    -3.9976   0.0305   5.3310   6.0619

          k = 0.5000-0.2500 0.5000 (   805 PWs)   bands (ev):

    -4.2666   0.4631   5.0833   6.4546

          k = 0.3750-0.1250 0.3750 (   808 PWs)   bands (ev):

    -5.3456   2.6176   5.2655   7.1349

          k = 0.2500 0.0000 0.2500 (   811 PWs)   bands (ev):

    -6.2036   5.0681   6.1154   7.8258

          k = 0.0000 0.5000 0.0000 (   817 PWs)   bands (ev):

    -5.5515   4.2141   5.6726   5.6726

          k =-0.1250 0.6250-0.1250 (   813 PWs)   bands (ev):

    -4.7128   2.4268   4.7392   5.2235

          k = 0.7500-0.2500 0.7500 (   803 PWs)   bands (ev):

    -3.6877   0.7131   3.6793   5.2118

          k = 0.6250-0.1250 0.6250 (   800 PWs)   bands (ev):

    -3.4805   0.4449   3.0714   5.6340

          k = 0.5000 0.0000 0.5000 (   804 PWs)   bands (ev):

    -4.4163   1.7493   3.3449   6.3855

          k = 0.0000 0.7500 0.0000 (   801 PWs)   bands (ev):

    -4.0401   1.5553   4.6766   4.6766

          k = 0.8750-0.1250 0.8750 (   794 PWs)   bands (ev):

    -3.1705   0.4720   3.6578   4.5656

          k = 0.7500 0.0000 0.7500 (   798 PWs)   bands (ev):

    -2.8602   0.2850   2.5202   4.9108

          k = 0.0000-1.0000 0.0000 (   790 PWs)   bands (ev):

    -2.8166  -0.0785   4.3341   4.3341

          k =-0.2500 0.5000 0.0000 (   814 PWs)   bands (ev):

    -5.2536   3.1587   4.6855   6.3282

          k = 0.6250-0.3750 0.8750 (   804 PWs)   bands (ev):

    -4.2215   1.2554   3.9665   5.6386

          k = 0.5000-0.2500 0.7500 (   812 PWs)   bands (ev):

    -3.5332   0.1760   3.8395   5.3154

          k = 0.7500-0.2500 1.0000 (   803 PWs)   bands (ev):

    -3.8212   1.3262   3.7930   4.5375

          k = 0.6250-0.1250 0.8750 (   801 PWs)   bands (ev):

    -3.0156   0.4550   2.8821   4.2826

          k = 0.5000 0.0000 0.7500 (   805 PWs)   bands (ev):

    -3.2964   0.7461   2.6575   4.7863

          k =-0.2500-1.0000 0.0000 (   794 PWs)   bands (ev):

    -2.7440   0.1129   3.6197   3.7347

          k =-0.5000-1.0000 0.0000 (   792 PWs)   bands (ev):

    -2.6667   0.3600   2.9731   3.2533

     highest occupied level (ev):     8.2967

!    total energy              =     -46.66698878 Ry
     estimated scf accuracy    <          1.1E-09 Ry

     The total energy is the sum of the following terms:
     one-electron contribution =       6.39014327 Ry
     hartree contribution      =       1.27513456 Ry
     xc contribution           =     -34.57324987 Ry
     ewald contribution        =     -19.75901675 Ry

     convergence has been achieved in   7 iterations

     Forces acting on atoms (cartesian axes, Ry/au):

     atom    1 type  1   force =    -0.00000000   -0.00000000   -0.00000000
     atom    2 type  2   force =     0.00000000    0.00000000    0.00000000

     Total force =     0.000000     Total SCF correction =     0.000000


     Computing stress (Cartesian axis) and pressure

          total   stress  (Ry/bohr**3)                   (kbar)     P=        0.27
   0.00000182  -0.00000000  -0.00000000            0.27       -0.00       -0.00
  -0.00000000   0.00000182  -0.00000000           -0.00        0.27       -0.00
  -0.00000000  -0.00000000   0.00000182           -0.00       -0.00        0.27


     BFGS Geometry Optimization
     Energy error            =      0.0E+00 Ry
     Gradient error          =      1.2E-32 Ry/Bohr
     Cell gradient error     =      1.7E-01 kbar

     bfgs converged in   1 scf cycles and   0 bfgs steps
     (criteria: energy <  1.0E-04 Ry, force <  1.0E-03Ry/Bohr, cell <  5.0E-01kbar)

     End of BFGS Geometry Optimization

     Final enthalpy           =     -46.6668604252 Ry
Begin final coordinates
     new unit-cell volume =    188.82162 a.u.^3 (    27.98048 Ang^3 )
     density =      5.08792 g/cm^3

CELL_PARAMETERS (alat=  9.10690000)
  -0.500000000   0.000000000   0.500000000
   0.000000000   0.500000000   0.500000000
  -0.500000000   0.500000000   0.000000000

ATOMIC_POSITIONS (crystal)
B             0.0000000000        0.0000000000        0.0000000000
As            0.2500000000        0.2500000000        0.2500000000
End final coordinates



     Writing config-only to output data dir ./pbe_2.save/

     Final scf calculation at the relaxed structure.
     The G-vectors are recalculated for the final unit cell
     Results may differ from those at the preceding step.
 
     G-vector sticks info
     --------------------
     sticks:   dense  smooth     PW     G-vecs:    dense   smooth      PW
     Sum        1369     451    151                33487     6423    1243
 
     Using Slab Decomposition
 


     bravais-lattice index     =            2
     lattice parameter (alat)  =       9.1069  a.u.
     unit-cell volume          =     188.8216 (a.u.)^3
     number of atoms/cell      =            2
     number of atomic types    =            2
     number of electrons       =         8.00
     number of Kohn-Sham states=            4
     kinetic-energy cutoff     =      40.0000  Ry
     charge density cutoff     =     480.0000  Ry
     scf convergence threshold =      1.0E-08
     mixing beta               =       0.7000
     number of iterations used =            8  plain     mixing
     press convergence thresh. =      5.0E-01
     Exchange-correlation= SLA  PW   PBE  PBE
                           (   1   4   3   4   0   0   0)

     celldm(1)=   9.106900  celldm(2)=   0.000000  celldm(3)=   0.000000
     celldm(4)=   0.000000  celldm(5)=   0.000000  celldm(6)=   0.000000

     crystal axes: (cart. coord. in units of alat)
               a(1) = (  -0.500000   0.000000   0.500000 )  
               a(2) = (   0.000000   0.500000   0.500000 )  
               a(3) = (  -0.500000   0.500000   0.000000 )  

     reciprocal axes: (cart. coord. in units 2 pi/alat)
               b(1) = ( -1.000000 -1.000000  1.000000 )  
               b(2) = (  1.000000  1.000000  1.000000 )  
               b(3) = ( -1.000000  1.000000 -1.000000 )  


     PseudoPot. # 1 for B  read from file:
     ../pseudo_dir/B_PBE.UPF
     MD5 check sum: cc6de2960df11db49a60e589f9ebb39b
     Pseudo is Ultrasoft + core correction, Zval =  3.0
     Generated by new atomic code, or converted to UPF format
     Using radial grid of  781 points,  4 beta functions with: 
                l(1) =   0
                l(2) =   0
                l(3) =   1
                l(4) =   1
     Q(r) pseudized with  8 coefficients,  rinner =    1.100   1.100   1.100


     PseudoPot. # 2 for As read from file:
     ../pseudo_dir/As_PBE.UPF
     MD5 check sum: a55e54db9b6ff5e275ac1f228f32106c
     Pseudo is Ultrasoft + core correction, Zval =  5.0
     Generated by new atomic code, or converted to UPF format
     Using radial grid of  875 points,  6 beta functions with: 
                l(1) =   0
                l(2) =   0
                l(3) =   1
                l(4) =   1
                l(5) =   2
                l(6) =   2
     Q(r) pseudized with  8 coefficients,  rinner =    1.300   1.300   1.300
                                                       1.300   1.300

     atomic species   valence    mass     pseudopotential
        B              3.00    10.81100     B ( 1.00)
        As             5.00    74.92160     As( 1.00)

     24 Sym. Ops. (no inversion) found



   Cartesian axes

     site n.     atom                  positions (alat units)
         1           B   tau(   1) = (   0.0000000   0.0000000   0.0000000  )
         2           As  tau(   2) = (  -0.2500000   0.2500000   0.2500000  )

     number of k points=    29
                       cart. coord. in units 2pi/alat
        k(    1) = (   0.0000000   0.0000000   0.0000000), wk =   0.0039062
        k(    2) = (  -0.1250000   0.1250000  -0.1250000), wk =   0.0312500
        k(    3) = (  -0.2500000   0.2500000  -0.2500000), wk =   0.0312500
        k(    4) = (  -0.3750000   0.3750000  -0.3750000), wk =   0.0312500
        k(    5) = (   0.5000000  -0.5000000   0.5000000), wk =   0.0156250
        k(    6) = (   0.0000000   0.2500000   0.0000000), wk =   0.0234375
        k(    7) = (  -0.1250000   0.3750000  -0.1250000), wk =   0.0937500
        k(    8) = (  -0.2500000   0.5000000  -0.2500000), wk =   0.0937500
        k(    9) = (   0.6250000  -0.3750000   0.6250000), wk =   0.0937500
        k(   10) = (   0.5000000  -0.2500000   0.5000000), wk =   0.0937500
        k(   11) = (   0.3750000  -0.1250000   0.3750000), wk =   0.0937500
        k(   12) = (   0.2500000   0.0000000   0.2500000), wk =   0.0468750
        k(   13) = (   0.0000000   0.5000000   0.0000000), wk =   0.0234375
        k(   14) = (  -0.1250000   0.6250000  -0.1250000), wk =   0.0937500
        k(   15) = (   0.7500000  -0.2500000   0.7500000), wk =   0.0937500
        k(   16) = (   0.6250000  -0.1250000   0.6250000), wk =   0.0937500
        k(   17) = (   0.5000000   0.0000000   0.5000000), wk =   0.0468750
        k(   18) = (   0.0000000   0.7500000   0.0000000), wk =   0.0234375
        k(   19) = (   0.8750000  -0.1250000   0.8750000), wk =   0.0937500
        k(   20) = (   0.7500000   0.0000000   0.7500000), wk =   0.0468750
        k(   21) = (   0.0000000  -1.0000000   0.0000000), wk =   0.0117188
        k(   22) = (  -0.2500000   0.5000000   0.0000000), wk =   0.0937500
        k(   23) = (   0.6250000  -0.3750000   0.8750000), wk =   0.1875000
        k(   24) = (   0.5000000  -0.2500000   0.7500000), wk =   0.0937500
        k(   25) = (   0.7500000  -0.2500000   1.0000000), wk =   0.0937500
        k(   26) = (   0.6250000  -0.1250000   0.8750000), wk =   0.1875000
        k(   27) = (   0.5000000   0.0000000   0.7500000), wk =   0.0937500
        k(   28) = (  -0.2500000  -1.0000000   0.0000000), wk =   0.0468750
        k(   29) = (  -0.5000000  -1.0000000   0.0000000), wk =   0.0234375

     Dense  grid:    33487 G-vectors     FFT dimensions: (  45,  45,  45)

     Smooth grid:     6423 G-vectors     FFT dimensions: (  25,  25,  25)

     Estimated max dynamical RAM per process >     133.04 MB

     Initial potential from superposition of free atoms

     starting charge       7.9995, renormalised to       8.0000
     Starting wfcs are    8 randomized atomic wfcs

     total cpu time spent up to now is       30.0 secs

     Self-consistent Calculation

     iteration #  1     ecut=    40.00 Ry     beta= 0.70
     CG style diagonalization
     ethr =  1.00E-06,  avg # of iterations =  7.8

     total cpu time spent up to now is       32.0 secs

     total energy              =     -46.62763995 Ry
     estimated scf accuracy    <       0.14070900 Ry

     iteration #  2     ecut=    40.00 Ry     beta= 0.70
     CG style diagonalization
     ethr =  1.76E-03,  avg # of iterations =  4.1

     total cpu time spent up to now is       33.4 secs

     total energy              =     -46.65836954 Ry
     estimated scf accuracy    <       0.04224483 Ry

     iteration #  3     ecut=    40.00 Ry     beta= 0.70
     CG style diagonalization
     ethr =  5.28E-04,  avg # of iterations =  4.1

     total cpu time spent up to now is       34.8 secs

     total energy              =     -46.66680909 Ry
     estimated scf accuracy    <       0.00044549 Ry

     iteration #  4     ecut=    40.00 Ry     beta= 0.70
     CG style diagonalization
     ethr =  5.57E-06,  avg # of iterations =  4.0

     total cpu time spent up to now is       36.1 secs

     total energy              =     -46.66698069 Ry
     estimated scf accuracy    <       0.00002855 Ry

     iteration #  5     ecut=    40.00 Ry     beta= 0.70
     CG style diagonalization
     ethr =  3.57E-07,  avg # of iterations =  4.0

     total cpu time spent up to now is       37.5 secs

     total energy              =     -46.66698824 Ry
     estimated scf accuracy    <       0.00000009 Ry

     iteration #  6     ecut=    40.00 Ry     beta= 0.70
     CG style diagonalization
     ethr =  1.14E-09,  avg # of iterations =  6.9

     total cpu time spent up to now is       39.3 secs

     total energy              =     -46.66698878 Ry
     estimated scf accuracy    <       0.00000002 Ry

     iteration #  7     ecut=    40.00 Ry     beta= 0.70
     CG style diagonalization
     ethr =  2.48E-10,  avg # of iterations =  3.9

     total cpu time spent up to now is       40.6 secs

     End of self-consistent calculation

          k = 0.0000 0.0000 0.0000 (   869 PWs)   bands (ev):

    -6.8631   8.2967   8.2967   8.2967

          k =-0.1250 0.1250-0.1250 (   815 PWs)   bands (ev):

    -6.6134   6.3575   7.8729   7.8729

          k =-0.2500 0.2500-0.2500 (   812 PWs)   bands (ev):

    -5.8879   3.4422   7.1823   7.1823

          k =-0.3750 0.3750-0.3750 (   811 PWs)   bands (ev):

    -4.8169   0.9266   6.6961   6.6961

          k = 0.5000-0.5000 0.5000 (   796 PWs)   bands (ev):

    -4.0895  -0.2964   6.5278   6.5278

          k = 0.0000 0.2500 0.0000 (   813 PWs)   bands (ev):

    -6.5297   6.8314   7.1724   7.1724

          k =-0.1250 0.3750-0.1250 (   814 PWs)   bands (ev):

    -5.9597   4.3824   6.4519   6.6864

          k =-0.2500 0.5000-0.2500 (   804 PWs)   bands (ev):

    -4.9816   1.7935   5.9228   6.0550

          k = 0.6250-0.3750 0.6250 (   808 PWs)   bands (ev):

    -3.9976   0.0305   5.3311   6.0620

          k = 0.5000-0.2500 0.5000 (   805 PWs)   bands (ev):

    -4.2666   0.4632   5.0833   6.4546

          k = 0.3750-0.1250 0.3750 (   808 PWs)   bands (ev):

    -5.3456   2.6176   5.2655   7.1350

          k = 0.2500 0.0000 0.2500 (   811 PWs)   bands (ev):

    -6.2035   5.0681   6.1155   7.8258

          k = 0.0000 0.5000 0.0000 (   817 PWs)   bands (ev):

    -5.5515   4.2141   5.6726   5.6726

          k =-0.1250 0.6250-0.1250 (   813 PWs)   bands (ev):

    -4.7128   2.4269   4.7392   5.2235

          k = 0.7500-0.2500 0.7500 (   803 PWs)   bands (ev):

    -3.6877   0.7131   3.6793   5.2119

          k = 0.6250-0.1250 0.6250 (   800 PWs)   bands (ev):

    -3.4805   0.4449   3.0714   5.6340

          k = 0.5000 0.0000 0.5000 (   804 PWs)   bands (ev):

    -4.4163   1.7493   3.3449   6.3855

          k = 0.0000 0.7500 0.0000 (   801 PWs)   bands (ev):

    -4.0400   1.5554   4.6766   4.6766

          k = 0.8750-0.1250 0.8750 (   794 PWs)   bands (ev):

    -3.1705   0.4720   3.6578   4.5656

          k = 0.7500 0.0000 0.7500 (   798 PWs)   bands (ev):

    -2.8602   0.2850   2.5202   4.9109

          k = 0.0000-1.0000 0.0000 (   790 PWs)   bands (ev):

    -2.8165  -0.0785   4.3341   4.3341

          k =-0.2500 0.5000 0.0000 (   814 PWs)   bands (ev):

    -5.2536   3.1587   4.6856   6.3282

          k = 0.6250-0.3750 0.8750 (   804 PWs)   bands (ev):

    -4.2215   1.2554   3.9666   5.6386

          k = 0.5000-0.2500 0.7500 (   812 PWs)   bands (ev):

    -3.5332   0.1760   3.8396   5.3155

          k = 0.7500-0.2500 1.0000 (   803 PWs)   bands (ev):

    -3.8212   1.3262   3.7930   4.5375

          k = 0.6250-0.1250 0.8750 (   801 PWs)   bands (ev):

    -3.0156   0.4550   2.8821   4.2826

          k = 0.5000 0.0000 0.7500 (   805 PWs)   bands (ev):

    -3.2964   0.7461   2.6575   4.7864

          k =-0.2500-1.0000 0.0000 (   794 PWs)   bands (ev):

    -2.7440   0.1130   3.6197   3.7347

          k =-0.5000-1.0000 0.0000 (   792 PWs)   bands (ev):

    -2.6667   0.3600   2.9731   3.2533

     highest occupied level (ev):     8.2967

!    total energy              =     -46.66698878 Ry
     estimated scf accuracy    <          8.0E-10 Ry

     The total energy is the sum of the following terms:
     one-electron contribution =       6.39014704 Ry
     hartree contribution      =       1.27512695 Ry
     xc contribution           =     -34.57324603 Ry
     ewald contribution        =     -19.75901675 Ry

     convergence has been achieved in   7 iterations

     Forces acting on atoms (cartesian axes, Ry/au):

     atom    1 type  1   force =     0.00000000    0.00000000    0.00000000
     atom    2 type  2   force =     0.00000000    0.00000000    0.00000000

     Total force =     0.000000     Total SCF correction =     0.000000


     Computing stress (Cartesian axis) and pressure

          total   stress  (Ry/bohr**3)                   (kbar)     P=        0.26
   0.00000174   0.00000000   0.00000000            0.26        0.00        0.00
   0.00000000   0.00000174  -0.00000000            0.00        0.26       -0.00
   0.00000000  -0.00000000   0.00000174            0.00       -0.00        0.26


     Writing all to output data dir ./pbe_2.save/
 
     init_run     :     10.37s CPU     10.89s WALL (       2 calls)
     electrons    :     18.27s CPU     20.24s WALL (       2 calls)
     forces       :      4.27s CPU      4.33s WALL (       2 calls)
     stress       :     10.06s CPU     10.26s WALL (       2 calls)

     Called by init_run:
     wfcinit      :      0.56s CPU      0.67s WALL (       2 calls)
     potinit      :      1.19s CPU      1.24s WALL (       2 calls)
     hinit0       :      8.16s CPU      8.31s WALL (       2 calls)

     Called by electrons:
     c_bands      :      9.59s CPU     10.76s WALL (      14 calls)
     sum_band     :      4.27s CPU      4.64s WALL (      14 calls)
     v_of_rho     :      2.13s CPU      2.18s WALL (      16 calls)
     newd         :      2.69s CPU      3.06s WALL (      16 calls)
     mix_rho      :      0.09s CPU      0.10s WALL (      14 calls)

     Called by c_bands:
     init_us_2    :      0.99s CPU      1.07s WALL (     986 calls)
     init_us_2:cp :      0.97s CPU      1.06s WALL (     986 calls)
     ccgdiagg     :      7.63s CPU      8.38s WALL (     406 calls)
     wfcrot       :      1.84s CPU      1.97s WALL (     406 calls)

     Called by *cgdiagg:
     h_psi        :      7.43s CPU      8.08s WALL (    6530 calls)
     s_psi        :      0.60s CPU      0.67s WALL (   12654 calls)

     Called by h_psi:
     h_psi:calbec :      0.60s CPU      0.66s WALL (    6530 calls)
     vloc_psi     :      6.11s CPU      6.63s WALL (    6530 calls)
     add_vuspsi   :      0.40s CPU      0.43s WALL (    6530 calls)
     hs_1psi      :      6.46s CPU      7.07s WALL (    6124 calls)
     s_1psi       :      0.77s CPU      0.84s WALL (    6124 calls)

     General routines
     calbec       :      0.87s CPU      0.97s WALL (   13350 calls)
     fft          :      0.61s CPU      0.65s WALL (     254 calls)
     ffts         :      0.01s CPU      0.02s WALL (      30 calls)
     fftw         :      5.78s CPU      6.26s WALL (   17584 calls)
     interpolate  :      0.05s CPU      0.06s WALL (      16 calls)
 
     Parallel routines
 
     PWSCF        :     43.82s CPU     48.45s WALL

 
   This run was terminated on:  18:30: 6  20Feb2022            

=------------------------------------------------------------------------------=
   JOB DONE.
=------------------------------------------------------------------------------=
