
     Program PWSCF v.7.0 starts on 29Apr2022 at 18:45:56 

     This program is part of the open-source Quantum ESPRESSO suite
     for quantum simulation of materials; please cite
         "P. Giannozzi et al., J. Phys.:Condens. Matter 21 395502 (2009);
         "P. Giannozzi et al., J. Phys.:Condens. Matter 29 465901 (2017);
         "P. Giannozzi et al., J. Chem. Phys. 152 154105 (2020);
          URL http://www.quantum-espresso.org", 
     in publications or presentations arising from this work. More details at
     http://www.quantum-espresso.org/quote

     Parallel version (MPI), running on     1 processors

     MPI processes distributed on     1 nodes
     90735 MiB available memory on the printing compute node when the environment starts
 
     Waiting for input...
     Reading input from standard input
Warning: card &CELL ignored
Warning: card  CELL_DYNAMICS = 'BFGS', ignored
Warning: card  PRESS=0.1D0, ignored
Warning: card / ignored

     Current dimensions of program PWSCF are:
     Max number of different atomic species (ntypx) = 10
     Max number of k-points (npk) =  40000
     Max angular momentum in pseudopotentials (lmaxx) =  4

     Subspace diagonalization in iterative solution of the eigenvalue problem:
     a serial algorithm will be used

 
     G-vector sticks info
     --------------------
     sticks:   dense  smooth     PW     G-vecs:    dense   smooth      PW
     Sum        4243    1703    505               160901    40759    6591
 
     Using Slab Decomposition
 


     bravais-lattice index     =            5
     lattice parameter (alat)  =      12.1600  a.u.
     unit-cell volume          =     852.1729 (a.u.)^3
     number of atoms/cell      =           10
     number of atomic types    =            3
     number of electrons       =        64.00
     number of Kohn-Sham states=           32
     kinetic-energy cutoff     =      50.0000  Ry
     charge density cutoff     =     500.0000  Ry
     scf convergence threshold =      1.0E-08
     mixing beta               =       0.7000
     number of iterations used =            8  plain     mixing
     Exchange-correlation= SLA  PW   PBE  PBE
                           (   1   4   3   4   0   0   0)

     celldm(1)=  12.160000  celldm(2)=   0.000000  celldm(3)=   0.000000
     celldm(4)=   0.693200  celldm(5)=   0.000000  celldm(6)=   0.000000

     crystal axes: (cart. coord. in units of alat)
               a(1) = (   0.391663  -0.226127   0.891889 )  
               a(2) = (   0.000000   0.452254   0.891889 )  
               a(3) = (  -0.391663  -0.226127   0.891889 )  

     reciprocal axes: (cart. coord. in units 2 pi/alat)
               b(1) = (  1.276607 -0.737050  0.373738 )  
               b(2) = (  0.000000  1.474099  0.373738 )  
               b(3) = ( -1.276607 -0.737050  0.373738 )  


     PseudoPot. # 1 for Ca read from file:
     ./Ca_PBE.UPF
     MD5 check sum: 403a4c14b9e4d4dfdc3024c9a3812218
     Pseudo is Ultrasoft + core correction, Zval = 10.0
     Generated by new atomic code, or converted to UPF format
     Using radial grid of  845 points,  6 beta functions with: 
                l(1) =   0
                l(2) =   0
                l(3) =   1
                l(4) =   1
                l(5) =   2
                l(6) =   2
     Q(r) pseudized with  8 coefficients,  rinner =    1.500   1.500   1.500
                                                       1.500   1.500

     PseudoPot. # 2 for C  read from file:
     ./C_PBE.UPF
     MD5 check sum: d1aef80898a10debaa0f26306b886e00
     Pseudo is Ultrasoft + core correction, Zval =  4.0
     Generated by new atomic code, or converted to UPF format
     Using radial grid of  721 points,  4 beta functions with: 
                l(1) =   0
                l(2) =   0
                l(3) =   1
                l(4) =   1
     Q(r) pseudized with  8 coefficients,  rinner =    1.100   1.100   1.100


     PseudoPot. # 3 for O  read from file:
     ./O_PBE.UPF
     MD5 check sum: 734c27235a0248c51dbae37a1fbe46ec
     Pseudo is Ultrasoft + core correction, Zval =  6.0
     Generated by new atomic code, or converted to UPF format
     Using radial grid of  737 points,  5 beta functions with: 
                l(1) =   0
                l(2) =   0
                l(3) =   1
                l(4) =   1
                l(5) =   2
     Q(r) pseudized with  8 coefficients,  rinner =    0.900   0.900   0.900
                                                       0.900   0.900

     atomic species   valence    mass     pseudopotential
        Ca            10.00    40.07800     Ca( 1.00)
        C              4.00    12.01070     C ( 1.00)
        O              6.00    16.00000     O ( 1.00)

     12 Sym. Ops., with inversion, found ( 6 have fractional translation)



   Cartesian axes

     site n.     atom                  positions (alat units)
         1           Ca  tau(   1) = (   0.0000000  -0.0000000   1.3378341  )
         2           Ca  tau(   2) = (   0.0000000   0.0000000   0.0000000  )
         3           C   tau(   3) = (   0.0000000  -0.0000000   0.6689170  )
         4           C   tau(   4) = (   0.0000000  -0.0000000   2.0067511  )
         5           O   tau(   5) = (   0.1006582   0.2779086   1.5608064  )
         6           O   tau(   6) = (   0.1903468  -0.2261268   1.5608064  )
         7           O   tau(   7) = (  -0.2910050  -0.0517817   1.5608064  )
         8           O   tau(   8) = (  -0.1903468   0.2261268   1.1148617  )
         9           O   tau(   9) = (   0.2910050   0.0517817   1.1148617  )
        10           O   tau(  10) = (  -0.1006582  -0.2779086   1.1148617  )

     number of k points=    32
                       cart. coord. in units 2pi/alat
        k(    1) = (   0.0000000   0.0000000   0.0000000), wk =   0.0092593
        k(    2) = (  -0.2127679  -0.1228416   0.0622897), wk =   0.0555556
        k(    3) = (  -0.4255358  -0.2456832   0.1245795), wk =   0.0555556
        k(    4) = (   0.6383037   0.3685248  -0.1868692), wk =   0.0277778
        k(    5) = (  -0.2127679   0.1228416   0.1245795), wk =   0.0555556
        k(    6) = (  -0.4255358   0.0000000   0.1868692), wk =   0.1111111
        k(    7) = (   0.6383037   0.6142080  -0.1245795), wk =   0.1111111
        k(    8) = (   0.4255358   0.4913664  -0.0622897), wk =   0.1111111
        k(    9) = (   0.2127679   0.3685248   0.0000000), wk =   0.0555556
        k(   10) = (  -0.4255358   0.2456832   0.2491590), wk =   0.0555556
        k(   11) = (   0.6383037   0.8598912  -0.0622897), wk =   0.1111111
        k(   12) = (   0.4255358   0.7370496   0.0000000), wk =   0.0555556
        k(   13) = (   0.6383037  -0.3685248  -0.3737384), wk =   0.0277778
        k(   14) = (   0.0000000   0.0000000   0.1868692), wk =   0.0185185
        k(   15) = (  -0.2127679  -0.1228416   0.2491590), wk =   0.0555556
        k(   16) = (   0.8510715   0.4913664  -0.0622897), wk =   0.0555556
        k(   17) = (   0.6383037   0.3685248   0.0000000), wk =   0.0555556
        k(   18) = (   0.4255358   0.2456832   0.0622897), wk =   0.0555556
        k(   19) = (  -0.2127679   0.1228416   0.3114487), wk =   0.0555556
        k(   20) = (   0.8510715   0.7370496   0.0000000), wk =   0.1111111
        k(   21) = (   0.6383037   0.6142080   0.0622897), wk =   0.1111111
        k(   22) = (   0.4255358   0.4913664   0.1245795), wk =   0.1111111
        k(   23) = (   0.8510715  -0.4913664  -0.3114487), wk =   0.0555556
        k(   24) = (   0.6383037  -0.6142080  -0.2491590), wk =   0.1111111
        k(   25) = (   0.4255358  -0.7370496  -0.1868692), wk =   0.0555556
        k(   26) = (   0.6383037  -0.3685248  -0.1868692), wk =   0.0555556
        k(   27) = (   0.0000000   0.0000000   0.3737384), wk =   0.0185185
        k(   28) = (   1.0638394   0.6142080   0.0622897), wk =   0.0555556
        k(   29) = (   0.8510715   0.4913664   0.1245795), wk =   0.0555556
        k(   30) = (   1.0638394  -0.6142080  -0.2491590), wk =   0.0555556
        k(   31) = (   0.8510715  -0.7370496  -0.1868692), wk =   0.0555556
        k(   32) = (   0.0000000   0.0000000  -0.5606076), wk =   0.0092593

     Dense  grid:   160901 G-vectors     FFT dimensions: (  90,  90,  90)

     Smooth grid:    40759 G-vectors     FFT dimensions: (  60,  60,  60)

     Estimated max dynamical RAM per process >     720.52 MB

     Check: negative core charge=   -0.000002

     Initial potential from superposition of free atoms

     starting charge      63.9890, renormalised to      64.0000
     Starting wfcs are   52 randomized atomic wfcs

     total cpu time spent up to now is       29.6 secs

     Self-consistent Calculation

     iteration #  1     ecut=    50.00 Ry     beta= 0.70
     CG style diagonalization
     ethr =  1.00E-02,  avg # of iterations =  2.7

     total cpu time spent up to now is       89.7 secs

     total energy              =    -366.67115584 Ry
     estimated scf accuracy    <       1.75321296 Ry

     iteration #  2     ecut=    50.00 Ry     beta= 0.70
     CG style diagonalization
     ethr =  2.74E-03,  avg # of iterations =  4.3

     total cpu time spent up to now is      172.5 secs

     total energy              =    -367.10370617 Ry
     estimated scf accuracy    <       1.65824559 Ry

     iteration #  3     ecut=    50.00 Ry     beta= 0.70
     CG style diagonalization
     ethr =  2.59E-03,  avg # of iterations =  3.8

     total cpu time spent up to now is      245.2 secs

     total energy              =    -367.41856998 Ry
     estimated scf accuracy    <       0.01088179 Ry

     iteration #  4     ecut=    50.00 Ry     beta= 0.70
     CG style diagonalization
     ethr =  1.70E-05,  avg # of iterations =  4.4

     total cpu time spent up to now is      330.0 secs

     total energy              =    -367.42993165 Ry
     estimated scf accuracy    <       0.00265992 Ry

     iteration #  5     ecut=    50.00 Ry     beta= 0.70
     CG style diagonalization
     ethr =  4.16E-06,  avg # of iterations =  3.6

     total cpu time spent up to now is      399.0 secs

     total energy              =    -367.43032941 Ry
     estimated scf accuracy    <       0.00014370 Ry

     iteration #  6     ecut=    50.00 Ry     beta= 0.70
     CG style diagonalization
     ethr =  2.25E-07,  avg # of iterations =  4.1

     total cpu time spent up to now is      476.8 secs

     total energy              =    -367.43036569 Ry
     estimated scf accuracy    <       0.00002168 Ry

     iteration #  7     ecut=    50.00 Ry     beta= 0.70
     CG style diagonalization
     ethr =  3.39E-08,  avg # of iterations =  4.1

     total cpu time spent up to now is      554.8 secs

     total energy              =    -367.43037509 Ry
     estimated scf accuracy    <       0.00000472 Ry

     iteration #  8     ecut=    50.00 Ry     beta= 0.70
     CG style diagonalization
     ethr =  7.37E-09,  avg # of iterations =  3.7

     total cpu time spent up to now is      625.2 secs

     total energy              =    -367.43037598 Ry
     estimated scf accuracy    <       0.00000015 Ry

     iteration #  9     ecut=    50.00 Ry     beta= 0.70
     CG style diagonalization
     ethr =  2.29E-10,  avg # of iterations =  4.2

     total cpu time spent up to now is      704.8 secs

     total energy              =    -367.43037605 Ry
     estimated scf accuracy    <       0.00000002 Ry

     iteration # 10     ecut=    50.00 Ry     beta= 0.70
     CG style diagonalization
     ethr =  2.79E-11,  avg # of iterations =  3.9

     total cpu time spent up to now is      778.5 secs

     End of self-consistent calculation

          k = 0.0000 0.0000 0.0000 (  5125 PWs)   bands (ev):

   -33.6564 -33.6437 -17.0833 -17.0740 -15.0983 -15.0983 -14.7237 -14.7237
   -14.6291 -14.5224 -13.8954 -13.8954 -13.3535 -13.3535  -3.2911  -3.0141
    -1.6854  -1.5194  -1.5194  -1.2566  -1.2566  -0.3942   2.3746   2.3746
     2.8118   2.8118   2.9853   2.9853   3.5972   3.5972   3.8001   4.2289

          k =-0.2128-0.1228 0.0623 (  5099 PWs)   bands (ev):

   -33.6554 -33.6444 -17.0925 -17.0559 -15.0970 -15.0216 -14.8264 -14.7227
   -14.6565 -14.6208 -13.8370 -13.7038 -13.4581 -13.3741  -3.1851  -3.0252
    -1.5930  -1.4762  -1.4327  -1.2978  -1.2445  -0.5050   2.4238   2.4866
     2.7070   2.7458   2.8202   2.8763   3.4463   3.4721   4.0137   4.2384

          k =-0.4255-0.2457 0.1246 (  5087 PWs)   bands (ev):

   -33.6529 -33.6465 -17.1009 -17.0268 -15.0869 -14.9789 -14.9609 -14.8036
   -14.6329 -14.6151 -13.7163 -13.5983 -13.5363 -13.4400  -2.9981  -2.9950
    -1.5263  -1.3995  -1.2604  -1.2540  -1.1943  -0.7010   2.3072   2.3825
     2.5942   2.6170   2.7411   2.8472   3.2194   3.2536   4.2716   4.2867

          k = 0.6383 0.3685-0.1869 (  5086 PWs)   bands (ev):

   -33.6496 -33.6496 -17.0600 -17.0600 -14.9854 -14.9854 -14.9723 -14.9723
   -14.6109 -14.6109 -13.5715 -13.5715 -13.5559 -13.5559  -2.9348  -2.9348
    -1.4858  -1.4858  -1.2111  -1.2111  -0.9076  -0.9076   2.1791   2.1791
     2.5667   2.5667   2.8616   2.8616   3.1226   3.1226   4.3413   4.3413

          k =-0.2128 0.1228 0.1246 (  5095 PWs)   bands (ev):

   -33.6552 -33.6446 -17.0966 -17.0528 -15.0594 -15.0578 -14.7897 -14.7328
   -14.6754 -14.6445 -13.7712 -13.7437 -13.4290 -13.4136  -3.1759  -3.0428
    -1.5577  -1.4650  -1.4549  -1.2971  -1.2365  -0.5281   2.4249   2.4856
     2.6871   2.7105   2.8484   2.9257   3.3844   3.5085   4.0184   4.2239

          k =-0.4255 0.0000 0.1869 (  5095 PWs)   bands (ev):

   -33.6534 -33.6461 -17.1097 -17.0246 -15.0869 -15.0425 -14.8400 -14.7821
   -14.6511 -14.6426 -13.7180 -13.6890 -13.4625 -13.4404  -3.0319  -3.0260
    -1.4953  -1.3969  -1.3798  -1.2213  -1.2079  -0.6766   2.3538   2.4567
     2.6014   2.6127   2.7353   2.8784   3.1806   3.3689   4.2402   4.2522

          k = 0.6383 0.6142-0.1246 (  5087 PWs)   bands (ev):

   -33.6506 -33.6485 -17.0735 -17.0486 -15.0900 -14.9937 -14.9296 -14.8540
   -14.6274 -14.6166 -13.7246 -13.6011 -13.5230 -13.4299  -2.9379  -2.9308
    -1.4764  -1.4596  -1.2866  -1.1999  -0.9601  -0.8187   2.1865   2.2519
     2.5056   2.5370   2.7526   2.8342   3.1299   3.2309   4.3474   4.3628

          k = 0.4255 0.4914-0.0623 (  5081 PWs)   bands (ev):

   -33.6514 -33.6477 -17.1037 -17.0145 -15.1235 -14.9891 -14.9760 -14.7716
   -14.6510 -14.5856 -13.7748 -13.5964 -13.5228 -13.4030  -2.9794  -2.8857
    -1.5432  -1.3727  -1.2682  -1.1992  -1.0483  -0.7833   2.1343   2.3356
     2.4573   2.5602   2.7121   2.8586   3.1715   3.2261   4.2992   4.4135

          k = 0.2128 0.3685 0.0000 (  5085 PWs)   bands (ev):

   -33.6540 -33.6455 -17.1150 -17.0166 -15.0846 -15.0525 -14.8593 -14.7533
   -14.6689 -14.6296 -13.7118 -13.7053 -13.4492 -13.4433  -3.0267  -3.0199
    -1.5307  -1.3861  -1.3329  -1.2946  -1.2152  -0.6422   2.3608   2.5183
     2.5467   2.6609   2.6666   2.8492   3.2502   3.3682   4.2453   4.2567

          k =-0.4255 0.2457 0.2492 (  5079 PWs)   bands (ev):

   -33.6529 -33.6465 -17.1400 -16.9870 -15.1259 -15.1000 -14.7640 -14.7028
   -14.6854 -14.6518 -13.7824 -13.7242 -13.4369 -13.3963  -3.0876  -2.9129
    -1.5231  -1.3752  -1.3364  -1.1967  -1.1084  -0.7600   2.1680   2.4001
     2.5192   2.7303   2.7384   2.9830   3.0117   3.3710   4.1901   4.3570

          k = 0.6383 0.8599-0.0623 (  5098 PWs)   bands (ev):

   -33.6514 -33.6478 -17.1276 -16.9927 -15.1607 -15.0699 -14.8119 -14.7364
   -14.6628 -14.6062 -13.8565 -13.6709 -13.4575 -13.3586  -3.0326  -2.8349
    -1.5146  -1.4103  -1.3027  -1.1815  -0.9558  -0.8088   2.0438   2.2860
     2.5010   2.6543   2.7143   2.7621   3.1384   3.2919   4.2465   4.4590

          k = 0.4255 0.7370 0.0000 (  5071 PWs)   bands (ev):

   -33.6495 -33.6495 -17.0603 -17.0601 -15.0872 -15.0527 -14.8827 -14.7948
   -14.6778 -14.6203 -13.7162 -13.7090 -13.4309 -13.4275  -2.8985  -2.8979
    -1.5078  -1.3958  -1.3406  -1.1811  -0.8782  -0.8306   2.1543   2.1660
     2.4824   2.4999   2.6816   2.7181   3.2045   3.2479   4.3998   4.4034

          k = 0.6383-0.3685-0.3737 (  5100 PWs)   bands (ev):

   -33.6517 -33.6475 -17.1610 -16.9512 -15.1874 -15.1850 -14.7061 -14.6789
   -14.6561 -14.5317 -13.9349 -13.8257 -13.3670 -13.3264  -3.1065  -2.7563
    -1.5782  -1.3634  -1.2398  -1.1684  -0.9527  -0.8551   1.9359   2.2570
     2.5312   2.7106   2.7552   2.7684   3.1553   3.2774   4.1543   4.5174

          k = 0.0000 0.0000 0.1869 (  5119 PWs)   bands (ev):

   -33.6556 -33.6445 -17.0833 -17.0753 -15.0807 -15.0807 -14.7627 -14.7627
   -14.6210 -14.5287 -13.8453 -13.8453 -13.3825 -13.3825  -3.2846  -3.0520
    -1.5845  -1.5018  -1.5018  -1.2744  -1.2744  -0.4720   2.4045   2.4045
     2.7784   2.7784   3.0260   3.0260   3.5493   3.5493   3.8250   4.1924

          k =-0.2128-0.1228 0.2492 (  5101 PWs)   bands (ev):

   -33.6542 -33.6457 -17.0850 -17.0654 -15.0994 -14.9718 -14.9211 -14.7060
   -14.6619 -14.5863 -13.8269 -13.6401 -13.5197 -13.3824  -3.1908  -3.0528
    -1.5112  -1.4617  -1.3620  -1.2917  -1.2834  -0.6012   2.4372   2.5077
     2.6817   2.7145   2.8305   2.9849   3.3565   3.4240   4.0242   4.2064

          k = 0.8511 0.4914-0.0623 (  5097 PWs)   bands (ev):

   -33.6515 -33.6479 -17.0674 -17.0648 -15.0859 -15.0002 -14.9318 -14.7958
   -14.6492 -14.5995 -13.7329 -13.5852 -13.5644 -13.4198  -3.0555  -2.9510
    -1.4608  -1.4532  -1.3106  -1.2453  -1.0649  -0.7642   2.2907   2.3823
     2.5623   2.6284   2.7532   2.9428   3.1190   3.2238   4.2383   4.3081

          k = 0.6383 0.3685 0.0000 (  5094 PWs)   bands (ev):

   -33.6506 -33.6485 -17.1113 -17.0068 -15.0910 -15.0865 -14.8560 -14.8410
   -14.6499 -14.5717 -13.7265 -13.6743 -13.4557 -13.4413  -3.0213  -2.8466
    -1.5590  -1.3679  -1.2794  -1.1702  -0.9651  -0.8547   2.0609   2.2770
     2.4736   2.6695   2.7510   3.0050   3.0156   3.1885   4.2557   4.4254

          k = 0.4255 0.2457 0.0623 (  5079 PWs)   bands (ev):

   -33.6534 -33.6460 -17.1282 -16.9969 -15.1140 -15.0549 -14.8699 -14.7333
   -14.6722 -14.6176 -13.7728 -13.6208 -13.5114 -13.4050  -3.0449  -2.9451
    -1.5376  -1.3748  -1.3034  -1.2257  -1.1908  -0.7037   2.2189   2.4477
     2.5279   2.6649   2.6926   2.9429   3.1317   3.3450   4.2283   4.3300

          k =-0.2128 0.1228 0.3114 (  5084 PWs)   bands (ev):

   -33.6536 -33.6463 -17.0957 -17.0565 -15.0768 -14.9869 -14.8813 -14.7548
   -14.6505 -14.6218 -13.7464 -13.6646 -13.4941 -13.4368  -3.1638  -3.0954
    -1.4708  -1.4307  -1.3940  -1.2680  -1.2647  -0.6650   2.4485   2.5030
     2.6346   2.6826   2.9049   3.0455   3.2572   3.4521   4.0434   4.1702

          k = 0.8511 0.7370 0.0000 (  5082 PWs)   bands (ev):

   -33.6519 -33.6476 -17.0943 -17.0453 -15.0795 -15.0355 -14.8318 -14.7731
   -14.6869 -14.6324 -13.7100 -13.6772 -13.4740 -13.4492  -3.0417  -3.0384
    -1.4345  -1.4135  -1.3858  -1.2473  -1.0738  -0.7755   2.3455   2.3897
     2.6075   2.6566   2.7691   2.9439   3.0951   3.3137   4.2323   4.2418

          k = 0.6383 0.6142 0.0623 (  5086 PWs)   bands (ev):

   -33.6496 -33.6496 -17.0854 -17.0398 -15.0957 -15.0267 -14.9017 -14.7733
   -14.6621 -14.6375 -13.7489 -13.6374 -13.4963 -13.4072  -2.9884  -2.8832
    -1.5150  -1.3686  -1.3445  -1.2049  -0.8789  -0.8621   2.1351   2.2308
     2.5118   2.6149   2.7154   2.8178   3.1436   3.2116   4.3088   4.3987

          k = 0.4255 0.4914 0.1246 (  5086 PWs)   bands (ev):

   -33.6517 -33.6475 -17.1234 -16.9939 -15.1619 -15.0352 -14.9098 -14.7037
   -14.6733 -14.5783 -13.8542 -13.5957 -13.5228 -13.3594  -3.0165  -2.8479
    -1.5485  -1.3618  -1.2600  -1.2196  -1.0281  -0.7832   2.0734   2.3486
     2.4378   2.6153   2.6927   2.8520   3.1449   3.2726   4.2611   4.4494

          k = 0.8511-0.4914-0.3114 (  5090 PWs)   bands (ev):

   -33.6515 -33.6479 -17.1325 -16.9990 -15.1556 -15.0528 -14.7839 -14.7199
   -14.6937 -14.6049 -13.7960 -13.7361 -13.4284 -13.3940  -3.1081  -2.9059
    -1.5261  -1.3673  -1.2873  -1.2346  -1.0049  -0.8429   2.1663   2.3495
     2.5916   2.7356   2.7648   2.8726   3.0678   3.3120   4.1777   4.3593

          k = 0.6383-0.6142-0.2492 (  5094 PWs)   bands (ev):

   -33.6506 -33.6485 -17.1142 -17.0102 -15.1142 -15.0891 -14.8034 -14.7126
   -14.6788 -14.6702 -13.7808 -13.7148 -13.4277 -13.3959  -3.0228  -2.8483
    -1.5156  -1.4084  -1.2722  -1.2288  -0.9007  -0.8344   2.0654   2.2450
     2.5514   2.6549   2.6934   2.7493   3.1599   3.2432   4.2652   4.4400

          k = 0.4255-0.7370-0.1869 (  5096 PWs)   bands (ev):

   -33.6495 -33.6495 -17.0602 -17.0602 -15.0720 -15.0720 -14.8419 -14.8419
   -14.6437 -14.6437 -13.7126 -13.7126 -13.4292 -13.4292  -2.8982  -2.8982
    -1.4711  -1.4711  -1.2440  -1.2440  -0.8520  -0.8520   2.1600   2.1600
     2.4914   2.4914   2.6989   2.6989   3.2270   3.2270   4.4016   4.4016

          k = 0.6383-0.3685-0.1869 (  5075 PWs)   bands (ev):

   -33.6514 -33.6478 -17.1478 -16.9663 -15.1625 -15.1595 -14.7455 -14.7144
   -14.6769 -14.5427 -13.8699 -13.7802 -13.3899 -13.3560  -3.0838  -2.7807
    -1.5801  -1.3438  -1.2303  -1.2066  -0.9648  -0.8449   1.9699   2.2821
     2.4748   2.7227   2.7437   2.8455   3.1235   3.2448   4.1840   4.4917

          k = 0.0000 0.0000 0.3737 (  5094 PWs)   bands (ev):

   -33.6532 -33.6469 -17.0828 -17.0782 -15.0293 -15.0293 -14.8520 -14.8520
   -14.5996 -14.5464 -13.7257 -13.7257 -13.4648 -13.4648  -3.2604  -3.1331
    -1.4537  -1.4537  -1.3267  -1.3226  -1.3226  -0.6898   2.4853   2.4853
     2.6985   2.6985   3.1280   3.1280   3.4253   3.4253   3.8940   4.1016

          k = 1.0638 0.6142 0.0623 (  5082 PWs)   bands (ev):

   -33.6518 -33.6481 -17.0780 -17.0753 -15.0724 -14.9876 -14.9166 -14.7734
   -14.6332 -14.5790 -13.7529 -13.5928 -13.5721 -13.4326  -3.1824  -3.1004
    -1.4343  -1.4060  -1.3496  -1.3360  -1.1384  -0.8023   2.4681   2.5421
     2.6212   2.6448   2.9455   3.1411   3.1987   3.3297   4.0536   4.1484

          k = 0.8511 0.4914 0.1246 (  5095 PWs)   bands (ev):

   -33.6497 -33.6497 -17.1063 -17.0278 -15.1400 -14.9895 -14.9006 -14.7287
   -14.6816 -14.5864 -13.7961 -13.6534 -13.4973 -13.3890  -3.0968  -2.9201
    -1.5100  -1.3459  -1.3383  -1.2467  -0.9430  -0.8790   2.2106   2.3648
     2.6086   2.6880   2.7052   2.9676   3.0997   3.2063   4.1970   4.3393

          k = 1.0638-0.6142-0.2492 (  5076 PWs)   bands (ev):

   -33.6510 -33.6489 -17.0892 -17.0650 -15.0696 -14.9668 -14.9053 -14.8152
   -14.6215 -14.5948 -13.7167 -13.5904 -13.5651 -13.4664  -3.1496  -3.1406
    -1.4332  -1.3870  -1.3645  -1.3233  -1.0615  -0.8887   2.5043   2.5053
     2.6133   2.6306   3.0160   3.1137   3.1790   3.3237   4.0893   4.1054

          k = 0.8511-0.7370-0.1869 (  5098 PWs)   bands (ev):

   -33.6497 -33.6497 -17.0711 -17.0711 -15.0558 -15.0558 -14.8007 -14.8007
   -14.6618 -14.6618 -13.6891 -13.6891 -13.4661 -13.4661  -3.0456  -3.0456
    -1.4276  -1.4276  -1.3063  -1.3063  -0.9196  -0.9196   2.3530   2.3530
     2.6384   2.6384   2.8563   2.8563   3.1957   3.1957   4.2326   4.2326

          k = 0.0000 0.0000-0.5606 (  5076 PWs)   bands (ev):

   -33.6500 -33.6500 -17.0812 -17.0812 -14.9491 -14.9491 -14.9491 -14.9491
   -14.5721 -14.5721 -13.5869 -13.5869 -13.5869 -13.5869  -3.2098  -3.2098
    -1.3882  -1.3882  -1.3882  -1.3882  -0.9995  -0.9995   2.5930   2.5930
     2.5930   2.5930   3.2702   3.2702   3.2702   3.2702   3.9926   3.9926

     highest occupied level (ev):     4.5174

!    total energy              =    -367.43037604 Ry
     estimated scf accuracy    <          6.5E-09 Ry

     The total energy is the sum of the following terms:
     one-electron contribution =    -147.82763037 Ry
     hartree contribution      =     103.36336458 Ry
     xc contribution           =     -75.28677537 Ry
     ewald contribution        =    -247.67933488 Ry

     convergence has been achieved in  10 iterations

     Forces acting on atoms (cartesian axes, Ry/au):

     atom    1 type  1   force =     0.00000000    0.00000000    0.00000000
     atom    2 type  1   force =     0.00000000    0.00000000    0.00000000
     atom    3 type  2   force =    -0.00000000    0.00000000   -0.00000000
     atom    4 type  2   force =     0.00000000   -0.00000000   -0.00000000
     atom    5 type  3   force =     0.00165609   -0.00286843   -0.00000000
     atom    6 type  3   force =    -0.00331218    0.00000000    0.00000000
     atom    7 type  3   force =     0.00165609    0.00286843    0.00000000
     atom    8 type  3   force =     0.00331218   -0.00000000   -0.00000000
     atom    9 type  3   force =    -0.00165609   -0.00286843   -0.00000000
     atom   10 type  3   force =    -0.00165609    0.00286843    0.00000000

     Total force =     0.008113     Total SCF correction =     0.000013


     Computing stress (Cartesian axis) and pressure

          total   stress  (Ry/bohr**3)                   (kbar)     P=        3.53
   0.00003340  -0.00000000  -0.00000000            4.91       -0.00       -0.00
   0.00000000   0.00003340   0.00000000            0.00        4.91        0.00
  -0.00000000   0.00000000   0.00000519           -0.00        0.00        0.76


     Writing all to output data dir ./caco3.save/
 
     init_run     :     25.91s CPU     27.14s WALL (       1 calls)
     electrons    :    733.01s CPU    749.06s WALL (       1 calls)
     forces       :      5.62s CPU      5.91s WALL (       1 calls)
     stress       :     29.24s CPU     29.73s WALL (       1 calls)

     Called by init_run:
     wfcinit      :     20.47s CPU     20.98s WALL (       1 calls)
     potinit      :      1.26s CPU      1.41s WALL (       1 calls)
     hinit0       :      2.63s CPU      2.76s WALL (       1 calls)

     Called by electrons:
     c_bands      :    634.97s CPU    647.05s WALL (      10 calls)
     sum_band     :     74.30s CPU     76.43s WALL (      10 calls)
     v_of_rho     :     10.84s CPU     11.17s WALL (      11 calls)
     newd         :     14.40s CPU     15.98s WALL (      11 calls)
     mix_rho      :      0.47s CPU      0.49s WALL (      10 calls)

     Called by c_bands:
     init_us_2    :      7.52s CPU      7.58s WALL (     736 calls)
     init_us_2:cp :      7.50s CPU      7.56s WALL (     736 calls)
     ccgdiagg     :    528.70s CPU    539.25s WALL (     320 calls)
     wfcrot       :    121.29s CPU    122.63s WALL (     320 calls)

     Called by *cgdiagg:
     h_psi        :    501.26s CPU    508.51s WALL (   30747 calls)
     s_psi        :     80.37s CPU     83.37s WALL (   61174 calls)

     Called by h_psi:
     h_psi:calbec :     41.48s CPU     42.72s WALL (   30747 calls)
     vloc_psi     :    415.25s CPU    420.16s WALL (   30747 calls)
     add_vuspsi   :     41.77s CPU     43.23s WALL (   30747 calls)
     hs_1psi      :    427.96s CPU    434.89s WALL (   30427 calls)
     s_1psi       :     79.31s CPU     81.44s WALL (   30427 calls)

     General routines
     calbec       :     81.45s CPU     84.95s WALL (   61654 calls)
     fft          :      2.63s CPU      2.66s WALL (     166 calls)
     ffts         :      0.09s CPU      0.09s WALL (      21 calls)
     fftw         :    397.02s CPU    399.98s WALL (   92854 calls)
     interpolate  :      0.26s CPU      0.28s WALL (      11 calls)
 
     Parallel routines
 
     PWSCF        :  13m14.94s CPU  13m36.49s WALL

 
   This run was terminated on:  18:59:32  29Apr2022            

=------------------------------------------------------------------------------=
   JOB DONE.
=------------------------------------------------------------------------------=
