
     Program PHONON v.7.0 starts on 27Apr2022 at 17:22:23 

     This program is part of the open-source Quantum ESPRESSO suite
     for quantum simulation of materials; please cite
         "P. Giannozzi et al., J. Phys.:Condens. Matter 21 395502 (2009);
         "P. Giannozzi et al., J. Phys.:Condens. Matter 29 465901 (2017);
         "P. Giannozzi et al., J. Chem. Phys. 152 154105 (2020);
          URL http://www.quantum-espresso.org", 
     in publications or presentations arising from this work. More details at
     http://www.quantum-espresso.org/quote

     Parallel version (MPI), running on     1 processors

     MPI processes distributed on     1 nodes
     90095 MiB available memory on the printing compute node when the environment starts
 
     Waiting for input...
     Reading input from standard input

     Reading xml data from directory:

     ./cco.save/

     IMPORTANT: XC functional enforced from input :
     Exchange-correlation= PBE
                           (   1   4   3   4   0   0   0)
     Any further DFT definition will be discarded
     Please, verify this is what you really want

 
     G-vector sticks info
     --------------------
     sticks:   dense  smooth     PW     G-vecs:    dense   smooth      PW
     Sum        4243    1703    505               160901    40759    6699
 
     Using Slab Decomposition
 

     Check: negative core charge=   -0.000002
     Reading collected, re-writing distributed wavefunctions

     Calculation of q =    0.0000000   0.0000000   0.0000000

     Phonons of CaCO3                                                           

     bravais-lattice index     =            5
     lattice parameter (alat)  =      12.1600  a.u.
     unit-cell volume          =     852.1729 (a.u.)^3
     number of atoms/cell      =           10
     number of atomic types    =            3
     kinetic-energy cut-off    =      50.0000  Ry
     charge density cut-off    =     500.0000  Ry
     convergence threshold     =      1.0E-16
     beta                      =       0.7000
     number of iterations used =            4
     Exchange-correlation= PBE
                           (   1   4   3   4   0   0   0)


     celldm(1)=   12.16000  celldm(2)=    0.00000  celldm(3)=    0.00000
     celldm(4)=    0.69320  celldm(5)=    0.00000  celldm(6)=    0.00000

     crystal axes: (cart. coord. in units of alat)
               a(1) = (  0.3917 -0.2261  0.8919 )  
               a(2) = (  0.0000  0.4523  0.8919 )  
               a(3) = ( -0.3917 -0.2261  0.8919 )  

     reciprocal axes: (cart. coord. in units 2 pi/alat)
               b(1) = (  1.2766 -0.7370  0.3737 )  
               b(2) = (  0.0000  1.4741  0.3737 )  
               b(3) = ( -1.2766 -0.7370  0.3737 )  


     Atoms inside the unit cell: 

     Cartesian axes

     site n.  atom      mass           positions (alat units)
        1     Ca 100.0800   tau(    1) = (    0.00000   -0.00000    1.33783  )
        2     Ca 100.0800   tau(    2) = (    0.00000    0.00000    0.00000  )
        3     C   12.0107   tau(    3) = (    0.00000   -0.00000    0.66892  )
        4     C   12.0107   tau(    4) = (    0.00000   -0.00000    2.00675  )
        5     O   16.0000   tau(    5) = (    0.10066    0.27791    1.56081  )
        6     O   16.0000   tau(    6) = (    0.19035   -0.22613    1.56081  )
        7     O   16.0000   tau(    7) = (   -0.29100   -0.05178    1.56081  )
        8     O   16.0000   tau(    8) = (   -0.19035    0.22613    1.11486  )
        9     O   16.0000   tau(    9) = (    0.29100    0.05178    1.11486  )
       10     O   16.0000   tau(   10) = (   -0.10066   -0.27791    1.11486  )

     Computing dynamical matrix for 
                    q = (   0.0000000   0.0000000   0.0000000 )
 
     13 Sym.Ops. (with q -> -q+G )


     G cutoff = 1872.7397  ( 160901 G-vectors)     FFT grid: ( 90, 90, 90)
     G cutoff =  749.0959  (  40759 G-vectors)  smooth grid: ( 60, 60, 60)
     number of k points=    85
                       cart. coord. in units 2pi/alat
        k(    1) = (   0.0000000   0.0000000   0.0000000), wk =   0.0027435
        k(    2) = (  -0.1418453  -0.0818944   0.0415265), wk =   0.0164609
        k(    3) = (  -0.2836905  -0.1637888   0.0830530), wk =   0.0164609
        k(    4) = (  -0.4255358  -0.2456832   0.1245795), wk =   0.0164609
        k(    5) = (  -0.5673810  -0.3275776   0.1661060), wk =   0.0164609
        k(    6) = (  -0.1418453   0.0818944   0.0830530), wk =   0.0164609
        k(    7) = (  -0.2836905   0.0000000   0.1245795), wk =   0.0329218
        k(    8) = (  -0.4255358  -0.0818944   0.1661060), wk =   0.0329218
        k(    9) = (  -0.5673810  -0.1637888   0.2076325), wk =   0.0329218
        k(   10) = (   0.5673810   0.4913664  -0.1245795), wk =   0.0329218
        k(   11) = (   0.4255358   0.4094720  -0.0830530), wk =   0.0329218
        k(   12) = (   0.2836905   0.3275776  -0.0415265), wk =   0.0329218
        k(   13) = (   0.1418453   0.2456832   0.0000000), wk =   0.0164609
        k(   14) = (  -0.2836905   0.1637888   0.1661060), wk =   0.0164609
        k(   15) = (  -0.4255358   0.0818944   0.2076325), wk =   0.0329218
        k(   16) = (  -0.5673810   0.0000000   0.2491590), wk =   0.0329218
        k(   17) = (   0.5673810   0.6551552  -0.0830530), wk =   0.0329218
        k(   18) = (   0.4255358   0.5732608  -0.0415265), wk =   0.0329218
        k(   19) = (   0.2836905   0.4913664   0.0000000), wk =   0.0164609
        k(   20) = (  -0.4255358   0.2456832   0.2491590), wk =   0.0164609
        k(   21) = (  -0.5673810   0.1637888   0.2906854), wk =   0.0329218
        k(   22) = (   0.5673810   0.8189440  -0.0415265), wk =   0.0329218
        k(   23) = (   0.4255358   0.7370496   0.0000000), wk =   0.0164609
        k(   24) = (  -0.5673810   0.3275776   0.3322119), wk =   0.0164609
        k(   25) = (   0.5673810   0.9827328   0.0000000), wk =   0.0164609
        k(   26) = (   0.0000000   0.0000000   0.1245795), wk =   0.0054870
        k(   27) = (  -0.1418453  -0.0818944   0.1661060), wk =   0.0164609
        k(   28) = (  -0.2836905  -0.1637888   0.2076325), wk =   0.0164609
        k(   29) = (  -0.4255358  -0.2456832   0.2491590), wk =   0.0164609
        k(   30) = (   0.7092263   0.4094720  -0.0830530), wk =   0.0164609
        k(   31) = (   0.5673810   0.3275776  -0.0415265), wk =   0.0164609
        k(   32) = (   0.4255358   0.2456832   0.0000000), wk =   0.0164609
        k(   33) = (   0.2836905   0.1637888   0.0415265), wk =   0.0164609
        k(   34) = (  -0.1418453   0.0818944   0.2076325), wk =   0.0164609
        k(   35) = (  -0.2836905   0.0000000   0.2491590), wk =   0.0329218
        k(   36) = (  -0.4255358  -0.0818944   0.2906854), wk =   0.0329218
        k(   37) = (   0.7092263   0.5732608  -0.0415265), wk =   0.0329218
        k(   38) = (   0.5673810   0.4913664   0.0000000), wk =   0.0329218
        k(   39) = (   0.4255358   0.4094720   0.0415265), wk =   0.0329218
        k(   40) = (   0.2836905   0.3275776   0.0830530), wk =   0.0329218
        k(   41) = (  -0.2836905   0.1637888   0.2906854), wk =   0.0164609
        k(   42) = (  -0.4255358   0.0818944   0.3322119), wk =   0.0329218
        k(   43) = (   0.7092263   0.7370496   0.0000000), wk =   0.0329218
        k(   44) = (   0.5673810   0.6551552   0.0415265), wk =   0.0329218
        k(   45) = (   0.4255358   0.5732608   0.0830530), wk =   0.0329218
        k(   46) = (   0.2836905   0.4913664   0.1245795), wk =   0.0329218
        k(   47) = (  -0.4255358   0.2456832   0.3737384), wk =   0.0164609
        k(   48) = (   0.7092263   0.9008384   0.0415265), wk =   0.0329218
        k(   49) = (   0.5673810   0.8189440   0.0830530), wk =   0.0329218
        k(   50) = (   0.4255358   0.7370496   0.1245795), wk =   0.0329218
        k(   51) = (   0.2836905   0.6551552   0.1661060), wk =   0.0329218
        k(   52) = (   0.7092263  -0.4094720  -0.2906854), wk =   0.0164609
        k(   53) = (   0.5673810  -0.4913664  -0.2491590), wk =   0.0329218
        k(   54) = (   0.4255358  -0.5732608  -0.2076325), wk =   0.0329218
        k(   55) = (   0.5673810  -0.3275776  -0.2076325), wk =   0.0164609
        k(   56) = (   0.4255358  -0.4094720  -0.1661060), wk =   0.0329218
        k(   57) = (   0.4255358  -0.2456832  -0.1245795), wk =   0.0164609
        k(   58) = (   0.0000000   0.0000000   0.2491590), wk =   0.0054870
        k(   59) = (  -0.1418453  -0.0818944   0.2906854), wk =   0.0164609
        k(   60) = (  -0.2836905  -0.1637888   0.3322119), wk =   0.0164609
        k(   61) = (   0.8510715   0.4913664   0.0000000), wk =   0.0164609
        k(   62) = (   0.7092263   0.4094720   0.0415265), wk =   0.0164609
        k(   63) = (   0.5673810   0.3275776   0.0830530), wk =   0.0164609
        k(   64) = (  -0.1418453   0.0818944   0.3322119), wk =   0.0164609
        k(   65) = (  -0.2836905   0.0000000   0.3737384), wk =   0.0329218
        k(   66) = (   0.8510715   0.6551552   0.0415265), wk =   0.0329218
        k(   67) = (   0.7092263   0.5732608   0.0830530), wk =   0.0329218
        k(   68) = (   0.5673810   0.4913664   0.1245795), wk =   0.0329218
        k(   69) = (  -0.2836905   0.1637888   0.4152649), wk =   0.0164609
        k(   70) = (   0.8510715   0.8189440   0.0830530), wk =   0.0329218
        k(   71) = (   0.7092263   0.7370496   0.1245795), wk =   0.0329218
        k(   72) = (   0.5673810   0.6551552   0.1661060), wk =   0.0329218
        k(   73) = (   0.8510715  -0.4913664  -0.2491590), wk =   0.0164609
        k(   74) = (   0.7092263  -0.5732608  -0.2076325), wk =   0.0329218
        k(   75) = (   0.7092263  -0.4094720  -0.1661060), wk =   0.0164609
        k(   76) = (   0.0000000   0.0000000   0.3737384), wk =   0.0054870
        k(   77) = (  -0.1418453  -0.0818944   0.4152649), wk =   0.0164609
        k(   78) = (   0.9929168   0.5732608   0.0830530), wk =   0.0164609
        k(   79) = (   0.8510715   0.4913664   0.1245795), wk =   0.0164609
        k(   80) = (  -0.1418453   0.0818944   0.4567914), wk =   0.0164609
        k(   81) = (   0.9929168   0.7370496   0.1245795), wk =   0.0329218
        k(   82) = (   0.8510715   0.6551552   0.1661060), wk =   0.0329218
        k(   83) = (   0.9929168  -0.5732608  -0.2076325), wk =   0.0164609
        k(   84) = (   0.0000000   0.0000000   0.4983179), wk =   0.0054870
        k(   85) = (   1.1347620   0.6551552   0.1661060), wk =   0.0164609

     PseudoPot. # 1 for Ca read from file:
     ./Ca_PBE.UPF
     MD5 check sum: 403a4c14b9e4d4dfdc3024c9a3812218
     Pseudo is Ultrasoft + core correction, Zval = 10.0
     Generated by new atomic code, or converted to UPF format
     Using radial grid of  845 points,  6 beta functions with: 
                l(1) =   0
                l(2) =   0
                l(3) =   1
                l(4) =   1
                l(5) =   2
                l(6) =   2
     Q(r) pseudized with  8 coefficients,  rinner =    1.500   1.500   1.500
                                                       1.500   1.500

     PseudoPot. # 2 for C  read from file:
     ./C_PBE.UPF
     MD5 check sum: d1aef80898a10debaa0f26306b886e00
     Pseudo is Ultrasoft + core correction, Zval =  4.0
     Generated by new atomic code, or converted to UPF format
     Using radial grid of  721 points,  4 beta functions with: 
                l(1) =   0
                l(2) =   0
                l(3) =   1
                l(4) =   1
     Q(r) pseudized with  8 coefficients,  rinner =    1.100   1.100   1.100


     PseudoPot. # 3 for O  read from file:
     ./O_PBE.UPF
     MD5 check sum: 734c27235a0248c51dbae37a1fbe46ec
     Pseudo is Ultrasoft + core correction, Zval =  6.0
     Generated by new atomic code, or converted to UPF format
     Using radial grid of  737 points,  5 beta functions with: 
                l(1) =   0
                l(2) =   0
                l(3) =   1
                l(4) =   1
                l(5) =   2
     Q(r) pseudized with  8 coefficients,  rinner =    0.900   0.900   0.900
                                                       0.900   0.900

     Mode symmetry, D_3d (-3m)  point group:


     Atomic displacements:
     There are   20 irreducible representations

     Representation     1      1 modes -  To be done

     Representation     2      1 modes -  To be done

     Representation     3      1 modes -  To be done

     Representation     4      1 modes -  To be done

     Representation     5      2 modes -  To be done

     Representation     6      2 modes -  To be done

     Representation     7      2 modes -  To be done

     Representation     8      2 modes -  To be done

     Representation     9      1 modes -  To be done

     Representation    10      1 modes -  To be done

     Representation    11      1 modes -  To be done

     Representation    12      1 modes -  To be done

     Representation    13      1 modes -  To be done

     Representation    14      1 modes -  To be done

     Representation    15      2 modes -  To be done

     Representation    16      2 modes -  To be done

     Representation    17      2 modes -  To be done

     Representation    18      2 modes -  To be done

     Representation    19      2 modes -  To be done

     Representation    20      2 modes -  To be done



     Alpha used in Ewald sum =   2.8000
     PHONON       :  15m27.55s CPU  15m39.85s WALL



     Representation #   1 mode #   1

     Self-consistent Calculation

      iter #   1 total cpu time :  1244.2 secs   av.it.:   6.0
      thresh= 1.000E-02 alpha_mix =  0.700 |ddv_scf|^2 =  7.934E-07

      iter #   2 total cpu time :  1748.9 secs   av.it.:  11.9
      thresh= 8.907E-05 alpha_mix =  0.700 |ddv_scf|^2 =  4.345E-07

      iter #   3 total cpu time :  2230.2 secs   av.it.:  11.8
      thresh= 6.592E-05 alpha_mix =  0.700 |ddv_scf|^2 =  3.701E-09

      iter #   4 total cpu time :  2745.5 secs   av.it.:  12.8
      thresh= 6.083E-06 alpha_mix =  0.700 |ddv_scf|^2 =  3.184E-10

      iter #   5 total cpu time :  3261.0 secs   av.it.:  12.8
      thresh= 1.785E-06 alpha_mix =  0.700 |ddv_scf|^2 =  2.245E-12

      iter #   6 total cpu time :  3750.9 secs   av.it.:  11.9
      thresh= 1.498E-07 alpha_mix =  0.700 |ddv_scf|^2 =  1.364E-13

      iter #   7 total cpu time :  4248.3 secs   av.it.:  11.9
      thresh= 3.693E-08 alpha_mix =  0.700 |ddv_scf|^2 =  2.903E-15

      iter #   8 total cpu time :  4750.1 secs   av.it.:  11.9
      thresh= 5.388E-09 alpha_mix =  0.700 |ddv_scf|^2 =  1.390E-16

      iter #   9 total cpu time :  5248.9 secs   av.it.:  11.9
      thresh= 1.179E-09 alpha_mix =  0.700 |ddv_scf|^2 =  1.152E-18

     End of self-consistent calculation

     Convergence has been achieved 


     Representation #   2 mode #   2

     Self-consistent Calculation

      iter #   1 total cpu time :  5558.0 secs   av.it.:   5.8
      thresh= 1.000E-02 alpha_mix =  0.700 |ddv_scf|^2 =  3.354E-07

      iter #   2 total cpu time :  6049.7 secs   av.it.:  11.9
      thresh= 5.791E-05 alpha_mix =  0.700 |ddv_scf|^2 =  7.676E-08

      iter #   3 total cpu time :  6515.6 secs   av.it.:  10.9
      thresh= 2.771E-05 alpha_mix =  0.700 |ddv_scf|^2 =  9.177E-10

      iter #   4 total cpu time :  6983.3 secs   av.it.:  11.0
      thresh= 3.029E-06 alpha_mix =  0.700 |ddv_scf|^2 =  3.884E-12

      iter #   5 total cpu time :  7457.0 secs   av.it.:  11.1
      thresh= 1.971E-07 alpha_mix =  0.700 |ddv_scf|^2 =  1.474E-13

      iter #   6 total cpu time :  7943.3 secs   av.it.:  11.9
      thresh= 3.839E-08 alpha_mix =  0.700 |ddv_scf|^2 =  8.566E-15

      iter #   7 total cpu time :  8411.5 secs   av.it.:  11.0
      thresh= 9.255E-09 alpha_mix =  0.700 |ddv_scf|^2 =  3.626E-16

      iter #   8 total cpu time :  8883.8 secs   av.it.:  11.1
      thresh= 1.904E-09 alpha_mix =  0.700 |ddv_scf|^2 =  3.856E-18

     End of self-consistent calculation

     Convergence has been achieved 


     Representation #   3 mode #   3

     Self-consistent Calculation

      iter #   1 total cpu time :  9144.3 secs   av.it.:   4.9
      thresh= 1.000E-02 alpha_mix =  0.700 |ddv_scf|^2 =  1.751E-07

      iter #   2 total cpu time :  9625.1 secs   av.it.:  11.5
      thresh= 4.184E-05 alpha_mix =  0.700 |ddv_scf|^2 =  6.687E-08

      iter #   3 total cpu time : 10078.7 secs   av.it.:  10.9
      thresh= 2.586E-05 alpha_mix =  0.700 |ddv_scf|^2 =  3.135E-11

      iter #   4 total cpu time : 10577.2 secs   av.it.:  11.9
      thresh= 5.599E-07 alpha_mix =  0.700 |ddv_scf|^2 =  2.552E-12

      iter #   5 total cpu time : 11060.5 secs   av.it.:  11.8
      thresh= 1.597E-07 alpha_mix =  0.700 |ddv_scf|^2 =  6.053E-14

      iter #   6 total cpu time : 11530.0 secs   av.it.:  11.0
      thresh= 2.460E-08 alpha_mix =  0.700 |ddv_scf|^2 =  1.209E-15

      iter #   7 total cpu time : 11992.5 secs   av.it.:  10.9
      thresh= 3.477E-09 alpha_mix =  0.700 |ddv_scf|^2 =  3.062E-17

     End of self-consistent calculation

     Convergence has been achieved 


     Representation #   4 mode #   4

     Self-consistent Calculation

      iter #   1 total cpu time : 12304.6 secs   av.it.:   6.0
      thresh= 1.000E-02 alpha_mix =  0.700 |ddv_scf|^2 =  1.687E-06

      iter #   2 total cpu time : 12781.2 secs   av.it.:  11.4
      thresh= 1.299E-04 alpha_mix =  0.700 |ddv_scf|^2 =  6.511E-07

      iter #   3 total cpu time : 13232.9 secs   av.it.:  10.9
      thresh= 8.069E-05 alpha_mix =  0.700 |ddv_scf|^2 =  2.908E-10

      iter #   4 total cpu time : 13725.5 secs   av.it.:  11.9
      thresh= 1.705E-06 alpha_mix =  0.700 |ddv_scf|^2 =  1.388E-11

      iter #   5 total cpu time : 14204.1 secs   av.it.:  11.4
      thresh= 3.725E-07 alpha_mix =  0.700 |ddv_scf|^2 =  4.015E-13

      iter #   6 total cpu time : 14662.7 secs   av.it.:  10.9
      thresh= 6.337E-08 alpha_mix =  0.700 |ddv_scf|^2 =  7.669E-15

      iter #   7 total cpu time : 15125.1 secs   av.it.:  11.0
      thresh= 8.757E-09 alpha_mix =  0.700 |ddv_scf|^2 =  1.836E-16

      iter #   8 total cpu time : 15592.2 secs   av.it.:  11.0
      thresh= 1.355E-09 alpha_mix =  0.700 |ddv_scf|^2 =  5.564E-18

     End of self-consistent calculation

     Convergence has been achieved 


     Representation #   5 modes #   5   6

     Self-consistent Calculation

      iter #   1 total cpu time : 16220.2 secs   av.it.:   6.0
      thresh= 1.000E-02 alpha_mix =  0.700 |ddv_scf|^2 =  4.040E-08

      iter #   2 total cpu time : 17300.9 secs   av.it.:  13.4
      thresh= 2.010E-05 alpha_mix =  0.700 |ddv_scf|^2 =  7.953E-10

      iter #   3 total cpu time : 18420.5 secs   av.it.:  13.9
      thresh= 2.820E-06 alpha_mix =  0.700 |ddv_scf|^2 =  5.810E-10

      iter #   4 total cpu time : 19461.6 secs   av.it.:  12.9
      thresh= 2.410E-06 alpha_mix =  0.700 |ddv_scf|^2 =  2.623E-12

      iter #   5 total cpu time : 20530.5 secs   av.it.:  13.0
      thresh= 1.620E-07 alpha_mix =  0.700 |ddv_scf|^2 =  1.957E-13

      iter #   6 total cpu time : 21615.0 secs   av.it.:  13.0
      thresh= 4.423E-08 alpha_mix =  0.700 |ddv_scf|^2 =  2.974E-14

      iter #   7 total cpu time : 22644.5 secs   av.it.:  12.9
      thresh= 1.725E-08 alpha_mix =  0.700 |ddv_scf|^2 =  6.954E-16

      iter #   8 total cpu time : 23701.1 secs   av.it.:  13.0
      thresh= 2.637E-09 alpha_mix =  0.700 |ddv_scf|^2 =  5.487E-18

     End of self-consistent calculation

     Convergence has been achieved 


     Representation #   6 modes #   7   8

     Self-consistent Calculation

      iter #   1 total cpu time : 24336.9 secs   av.it.:   6.0
      thresh= 1.000E-02 alpha_mix =  0.700 |ddv_scf|^2 =  7.724E-08

      iter #   2 total cpu time : 25401.0 secs   av.it.:  13.0
      thresh= 2.779E-05 alpha_mix =  0.700 |ddv_scf|^2 =  2.784E-09

      iter #   3 total cpu time : 26484.6 secs   av.it.:  13.1
      thresh= 5.277E-06 alpha_mix =  0.700 |ddv_scf|^2 =  4.763E-10

      iter #   4 total cpu time : 27523.3 secs   av.it.:  12.9
      thresh= 2.182E-06 alpha_mix =  0.700 |ddv_scf|^2 =  4.185E-12

      iter #   5 total cpu time : 28596.5 secs   av.it.:  13.0
      thresh= 2.046E-07 alpha_mix =  0.700 |ddv_scf|^2 =  2.078E-13

      iter #   6 total cpu time : 29616.1 secs   av.it.:  12.4
      thresh= 4.559E-08 alpha_mix =  0.700 |ddv_scf|^2 =  1.960E-14

      iter #   7 total cpu time : 30652.4 secs   av.it.:  12.9
      thresh= 1.400E-08 alpha_mix =  0.700 |ddv_scf|^2 =  3.281E-16

      iter #   8 total cpu time : 31721.9 secs   av.it.:  13.0
      thresh= 1.811E-09 alpha_mix =  0.700 |ddv_scf|^2 =  1.148E-17

     End of self-consistent calculation

     Convergence has been achieved 


     Representation #   7 modes #   9  10

     Self-consistent Calculation

      iter #   1 total cpu time : 32284.3 secs   av.it.:   5.0
      thresh= 1.000E-02 alpha_mix =  0.700 |ddv_scf|^2 =  2.349E-08

      iter #   2 total cpu time : 33391.7 secs   av.it.:  13.9
      thresh= 1.533E-05 alpha_mix =  0.700 |ddv_scf|^2 =  3.326E-08

      iter #   3 total cpu time : 34440.9 secs   av.it.:  13.0
      thresh= 1.824E-05 alpha_mix =  0.700 |ddv_scf|^2 =  1.041E-09

      iter #   4 total cpu time : 35478.3 secs   av.it.:  12.9
      thresh= 3.227E-06 alpha_mix =  0.700 |ddv_scf|^2 =  1.009E-11

      iter #   5 total cpu time : 36521.8 secs   av.it.:  12.9
      thresh= 3.176E-07 alpha_mix =  0.700 |ddv_scf|^2 =  2.050E-14

      iter #   6 total cpu time : 37595.1 secs   av.it.:  13.0
      thresh= 1.432E-08 alpha_mix =  0.700 |ddv_scf|^2 =  4.569E-15

      iter #   7 total cpu time : 38637.9 secs   av.it.:  12.9
      thresh= 6.760E-09 alpha_mix =  0.700 |ddv_scf|^2 =  7.803E-18

     End of self-consistent calculation

     Convergence has been achieved 


     Representation #   8 modes #  11  12

     Self-consistent Calculation

      iter #   1 total cpu time : 39271.6 secs   av.it.:   6.0
      thresh= 1.000E-02 alpha_mix =  0.700 |ddv_scf|^2 =  3.800E-08

      iter #   2 total cpu time : 40369.1 secs   av.it.:  13.7
      thresh= 1.949E-05 alpha_mix =  0.700 |ddv_scf|^2 =  1.324E-08

      iter #   3 total cpu time : 41454.2 secs   av.it.:  13.4
      thresh= 1.151E-05 alpha_mix =  0.700 |ddv_scf|^2 =  5.683E-09

      iter #   4 total cpu time : 42502.4 secs   av.it.:  12.9
      thresh= 7.539E-06 alpha_mix =  0.700 |ddv_scf|^2 =  5.011E-12

      iter #   5 total cpu time : 43562.5 secs   av.it.:  13.0
      thresh= 2.239E-07 alpha_mix =  0.700 |ddv_scf|^2 =  1.689E-13

      iter #   6 total cpu time : 44615.8 secs   av.it.:  13.0
      thresh= 4.110E-08 alpha_mix =  0.700 |ddv_scf|^2 =  2.570E-15

      iter #   7 total cpu time : 45671.7 secs   av.it.:  13.0
      thresh= 5.069E-09 alpha_mix =  0.700 |ddv_scf|^2 =  5.379E-17

     End of self-consistent calculation

     Convergence has been achieved 


     Representation #   9 mode #  13

     Self-consistent Calculation

      iter #   1 total cpu time : 45990.2 secs   av.it.:   6.0
      thresh= 1.000E-02 alpha_mix =  0.700 |ddv_scf|^2 =  1.033E-06

      iter #   2 total cpu time : 46485.5 secs   av.it.:  11.9
      thresh= 1.016E-04 alpha_mix =  0.700 |ddv_scf|^2 =  2.917E-07

      iter #   3 total cpu time : 46980.6 secs   av.it.:  11.9
      thresh= 5.401E-05 alpha_mix =  0.700 |ddv_scf|^2 =  1.261E-08

      iter #   4 total cpu time : 47479.0 secs   av.it.:  11.9
      thresh= 1.123E-05 alpha_mix =  0.700 |ddv_scf|^2 =  9.690E-11

      iter #   5 total cpu time : 47975.1 secs   av.it.:  11.9
      thresh= 9.844E-07 alpha_mix =  0.700 |ddv_scf|^2 =  7.028E-12

      iter #   6 total cpu time : 48472.2 secs   av.it.:  11.9
      thresh= 2.651E-07 alpha_mix =  0.700 |ddv_scf|^2 =  3.081E-12

      iter #   7 total cpu time : 48948.9 secs   av.it.:  11.6
      thresh= 1.755E-07 alpha_mix =  0.700 |ddv_scf|^2 =  8.118E-14

      iter #   8 total cpu time : 49434.1 secs   av.it.:  11.8
      thresh= 2.849E-08 alpha_mix =  0.700 |ddv_scf|^2 =  5.247E-16

      iter #   9 total cpu time : 49950.2 secs   av.it.:  12.7
      thresh= 2.291E-09 alpha_mix =  0.700 |ddv_scf|^2 =  8.708E-17

     End of self-consistent calculation

     Convergence has been achieved 


     Representation #  10 mode #  14

     Self-consistent Calculation

      iter #   1 total cpu time : 50270.1 secs   av.it.:   6.0
      thresh= 1.000E-02 alpha_mix =  0.700 |ddv_scf|^2 =  1.065E-06

      iter #   2 total cpu time : 50768.5 secs   av.it.:  11.9
      thresh= 1.032E-04 alpha_mix =  0.700 |ddv_scf|^2 =  6.819E-07

      iter #   3 total cpu time : 51245.2 secs   av.it.:  11.8
      thresh= 8.258E-05 alpha_mix =  0.700 |ddv_scf|^2 =  9.464E-09

      iter #   4 total cpu time : 51731.3 secs   av.it.:  11.9
      thresh= 9.728E-06 alpha_mix =  0.700 |ddv_scf|^2 =  7.302E-11

      iter #   5 total cpu time : 52207.6 secs   av.it.:  11.8
      thresh= 8.545E-07 alpha_mix =  0.700 |ddv_scf|^2 =  2.110E-12

      iter #   6 total cpu time : 52708.7 secs   av.it.:  12.1
      thresh= 1.453E-07 alpha_mix =  0.700 |ddv_scf|^2 =  2.185E-13

      iter #   7 total cpu time : 53222.8 secs   av.it.:  12.7
      thresh= 4.675E-08 alpha_mix =  0.700 |ddv_scf|^2 =  6.684E-15

      iter #   8 total cpu time : 53727.6 secs   av.it.:  12.0
      thresh= 8.175E-09 alpha_mix =  0.700 |ddv_scf|^2 =  3.945E-16

      iter #   9 total cpu time : 54215.0 secs   av.it.:  11.9
      thresh= 1.986E-09 alpha_mix =  0.700 |ddv_scf|^2 =  2.114E-17

     End of self-consistent calculation

     Convergence has been achieved 


     Representation #  11 mode #  15

     Self-consistent Calculation

      iter #   1 total cpu time : 54517.8 secs   av.it.:   5.0
      thresh= 1.000E-02 alpha_mix =  0.700 |ddv_scf|^2 =  1.255E-07

      iter #   2 total cpu time : 55019.2 secs   av.it.:  11.9
      thresh= 3.543E-05 alpha_mix =  0.700 |ddv_scf|^2 =  1.319E-09

      iter #   3 total cpu time : 55522.7 secs   av.it.:  12.0
      thresh= 3.632E-06 alpha_mix =  0.700 |ddv_scf|^2 =  7.235E-11

      iter #   4 total cpu time : 56011.8 secs   av.it.:  11.9
      thresh= 8.506E-07 alpha_mix =  0.700 |ddv_scf|^2 =  2.379E-12

      iter #   5 total cpu time : 56490.7 secs   av.it.:  11.8
      thresh= 1.542E-07 alpha_mix =  0.700 |ddv_scf|^2 =  1.250E-13

      iter #   6 total cpu time : 56963.2 secs   av.it.:  11.0
      thresh= 3.535E-08 alpha_mix =  0.700 |ddv_scf|^2 =  9.560E-16

      iter #   7 total cpu time : 57441.4 secs   av.it.:  11.7
      thresh= 3.092E-09 alpha_mix =  0.700 |ddv_scf|^2 =  6.868E-17

     End of self-consistent calculation

     Convergence has been achieved 


     Representation #  12 mode #  16

     Self-consistent Calculation

      iter #   1 total cpu time : 57692.6 secs   av.it.:   4.1
      thresh= 1.000E-02 alpha_mix =  0.700 |ddv_scf|^2 =  2.279E-08

      iter #   2 total cpu time : 58184.9 secs   av.it.:  11.9
      thresh= 1.510E-05 alpha_mix =  0.700 |ddv_scf|^2 =  4.619E-10

      iter #   3 total cpu time : 58685.7 secs   av.it.:  12.0
      thresh= 2.149E-06 alpha_mix =  0.700 |ddv_scf|^2 =  1.325E-11

      iter #   4 total cpu time : 59170.7 secs   av.it.:  11.9
      thresh= 3.639E-07 alpha_mix =  0.700 |ddv_scf|^2 =  9.698E-13

      iter #   5 total cpu time : 59647.6 secs   av.it.:  11.6
      thresh= 9.848E-08 alpha_mix =  0.700 |ddv_scf|^2 =  2.861E-14

      iter #   6 total cpu time : 60115.4 secs   av.it.:  11.1
      thresh= 1.692E-08 alpha_mix =  0.700 |ddv_scf|^2 =  3.292E-16

      iter #   7 total cpu time : 60574.9 secs   av.it.:  10.9
      thresh= 1.814E-09 alpha_mix =  0.700 |ddv_scf|^2 =  2.050E-17

     End of self-consistent calculation

     Convergence has been achieved 


     Representation #  13 mode #  17

     Self-consistent Calculation

      iter #   1 total cpu time : 60885.2 secs   av.it.:   6.0
      thresh= 1.000E-02 alpha_mix =  0.700 |ddv_scf|^2 =  3.616E-07

      iter #   2 total cpu time : 61373.8 secs   av.it.:  11.9
      thresh= 6.013E-05 alpha_mix =  0.700 |ddv_scf|^2 =  4.531E-08

      iter #   3 total cpu time : 61860.9 secs   av.it.:  11.9
      thresh= 2.129E-05 alpha_mix =  0.700 |ddv_scf|^2 =  1.858E-10

      iter #   4 total cpu time : 62341.0 secs   av.it.:  11.5
      thresh= 1.363E-06 alpha_mix =  0.700 |ddv_scf|^2 =  1.258E-12

      iter #   5 total cpu time : 62835.5 secs   av.it.:  11.9
      thresh= 1.122E-07 alpha_mix =  0.700 |ddv_scf|^2 =  1.127E-13

      iter #   6 total cpu time : 63320.4 secs   av.it.:  11.9
      thresh= 3.358E-08 alpha_mix =  0.700 |ddv_scf|^2 =  1.032E-15

      iter #   7 total cpu time : 63798.8 secs   av.it.:  11.5
      thresh= 3.212E-09 alpha_mix =  0.700 |ddv_scf|^2 =  7.938E-17

     End of self-consistent calculation

     Convergence has been achieved 


     Representation #  14 mode #  18

     Self-consistent Calculation

      iter #   1 total cpu time : 64104.7 secs   av.it.:   6.0
      thresh= 1.000E-02 alpha_mix =  0.700 |ddv_scf|^2 =  1.965E-07

      iter #   2 total cpu time : 64607.9 secs   av.it.:  11.9
      thresh= 4.433E-05 alpha_mix =  0.700 |ddv_scf|^2 =  8.555E-09

      iter #   3 total cpu time : 65108.6 secs   av.it.:  11.9
      thresh= 9.250E-06 alpha_mix =  0.700 |ddv_scf|^2 =  1.129E-10

      iter #   4 total cpu time : 65599.7 secs   av.it.:  11.9
      thresh= 1.063E-06 alpha_mix =  0.700 |ddv_scf|^2 =  2.895E-12

      iter #   5 total cpu time : 66071.5 secs   av.it.:  11.2
      thresh= 1.702E-07 alpha_mix =  0.700 |ddv_scf|^2 =  1.373E-13

      iter #   6 total cpu time : 66537.0 secs   av.it.:  11.0
      thresh= 3.705E-08 alpha_mix =  0.700 |ddv_scf|^2 =  8.867E-16

      iter #   7 total cpu time : 67019.2 secs   av.it.:  11.8
      thresh= 2.978E-09 alpha_mix =  0.700 |ddv_scf|^2 =  4.307E-17

     End of self-consistent calculation

     Convergence has been achieved 


     Representation #  15 modes #  19  20

     Self-consistent Calculation

      iter #   1 total cpu time : 67574.7 secs   av.it.:   5.0
      thresh= 1.000E-02 alpha_mix =  0.700 |ddv_scf|^2 =  1.975E-08

      iter #   2 total cpu time : 68690.1 secs   av.it.:  14.0
      thresh= 1.405E-05 alpha_mix =  0.700 |ddv_scf|^2 =  3.016E-08

      iter #   3 total cpu time : 69753.6 secs   av.it.:  13.0
      thresh= 1.737E-05 alpha_mix =  0.700 |ddv_scf|^2 =  9.822E-10

      iter #   4 total cpu time : 70795.0 secs   av.it.:  12.9
      thresh= 3.134E-06 alpha_mix =  0.700 |ddv_scf|^2 =  2.410E-11

      iter #   5 total cpu time : 71866.0 secs   av.it.:  13.0
      thresh= 4.909E-07 alpha_mix =  0.700 |ddv_scf|^2 =  4.381E-13

      iter #   6 total cpu time : 72929.3 secs   av.it.:  13.0
      thresh= 6.619E-08 alpha_mix =  0.700 |ddv_scf|^2 =  8.979E-15

      iter #   7 total cpu time : 73946.4 secs   av.it.:  12.2
      thresh= 9.476E-09 alpha_mix =  0.700 |ddv_scf|^2 =  1.262E-15

      iter #   8 total cpu time : 74993.4 secs   av.it.:  12.9
      thresh= 3.552E-09 alpha_mix =  0.700 |ddv_scf|^2 =  1.744E-18

     End of self-consistent calculation

     Convergence has been achieved 


     Representation #  16 modes #  21  22

     Self-consistent Calculation

      iter #   1 total cpu time : 75613.7 secs   av.it.:   6.0
      thresh= 1.000E-02 alpha_mix =  0.700 |ddv_scf|^2 =  1.550E-07

      iter #   2 total cpu time : 76687.1 secs   av.it.:  13.3
      thresh= 3.937E-05 alpha_mix =  0.700 |ddv_scf|^2 =  5.435E-08

      iter #   3 total cpu time : 77781.8 secs   av.it.:  13.4
      thresh= 2.331E-05 alpha_mix =  0.700 |ddv_scf|^2 =  9.217E-09

      iter #   4 total cpu time : 78834.5 secs   av.it.:  13.0
      thresh= 9.601E-06 alpha_mix =  0.700 |ddv_scf|^2 =  2.739E-11

      iter #   5 total cpu time : 79897.9 secs   av.it.:  13.0
      thresh= 5.233E-07 alpha_mix =  0.700 |ddv_scf|^2 =  1.357E-12

      iter #   6 total cpu time : 80980.4 secs   av.it.:  13.5
      thresh= 1.165E-07 alpha_mix =  0.700 |ddv_scf|^2 =  5.697E-14

      iter #   7 total cpu time : 82003.3 secs   av.it.:  12.9
      thresh= 2.387E-08 alpha_mix =  0.700 |ddv_scf|^2 =  5.238E-15

      iter #   8 total cpu time : 83082.8 secs   av.it.:  13.2
      thresh= 7.237E-09 alpha_mix =  0.700 |ddv_scf|^2 =  1.324E-16

      iter #   9 total cpu time : 84139.7 secs   av.it.:  13.0
      thresh= 1.150E-09 alpha_mix =  0.700 |ddv_scf|^2 =  7.162E-18

     End of self-consistent calculation

     Convergence has been achieved 


     Representation #  17 modes #  23  24

     Self-consistent Calculation

      iter #   1 total cpu time : 84770.4 secs   av.it.:   6.0
      thresh= 1.000E-02 alpha_mix =  0.700 |ddv_scf|^2 =  7.610E-08

      iter #   2 total cpu time : 85931.3 secs   av.it.:  14.2
      thresh= 2.759E-05 alpha_mix =  0.700 |ddv_scf|^2 =  6.656E-09

      iter #   3 total cpu time : 87190.6 secs   av.it.:  16.0
      thresh= 8.158E-06 alpha_mix =  0.700 |ddv_scf|^2 =  8.235E-09

      iter #   4 total cpu time : 88318.6 secs   av.it.:  14.1
      thresh= 9.074E-06 alpha_mix =  0.700 |ddv_scf|^2 =  1.158E-08

      iter #   5 total cpu time : 89546.2 secs   av.it.:  15.8
      thresh= 1.076E-05 alpha_mix =  0.700 |ddv_scf|^2 =  1.323E-08

      iter #   6 total cpu time : 90798.8 secs   av.it.:  16.0
      thresh= 1.150E-05 alpha_mix =  0.700 |ddv_scf|^2 =  3.034E-08

      iter #   7 total cpu time : 91869.4 secs   av.it.:  13.0
      thresh= 1.742E-05 alpha_mix =  0.700 |ddv_scf|^2 =  2.393E-08

      iter #   8 total cpu time : 93082.9 secs   av.it.:  15.3
      thresh= 1.547E-05 alpha_mix =  0.700 |ddv_scf|^2 =  1.598E-08

      iter #   9 total cpu time : 94289.5 secs   av.it.:  15.4
      thresh= 1.264E-05 alpha_mix =  0.700 |ddv_scf|^2 =  3.154E-08

      iter #  10 total cpu time : 95333.5 secs   av.it.:  12.6
      thresh= 1.776E-05 alpha_mix =  0.700 |ddv_scf|^2 =  4.623E-08

      iter #  11 total cpu time : 96544.6 secs   av.it.:  15.0
      thresh= 2.150E-05 alpha_mix =  0.700 |ddv_scf|^2 =  4.427E-08

      iter #  12 total cpu time : 97641.9 secs   av.it.:  13.7
      thresh= 2.104E-05 alpha_mix =  0.700 |ddv_scf|^2 =  5.846E-08

      iter #  13 total cpu time : 98719.4 secs   av.it.:  13.4
      thresh= 2.418E-05 alpha_mix =  0.700 |ddv_scf|^2 =  6.035E-08

      iter #  14 total cpu time : 99877.9 secs   av.it.:  14.5
      thresh= 2.457E-05 alpha_mix =  0.700 |ddv_scf|^2 =  6.043E-08

      iter #  15 total cpu time :100890.7 secs   av.it.:  12.1
      thresh= 2.458E-05 alpha_mix =  0.700 |ddv_scf|^2 =  5.923E-08

      iter #  16 total cpu time :102082.7 secs   av.it.:  15.0
      thresh= 2.434E-05 alpha_mix =  0.700 |ddv_scf|^2 =  5.673E-08

      iter #  17 total cpu time :103218.0 secs   av.it.:  14.3
      thresh= 2.382E-05 alpha_mix =  0.700 |ddv_scf|^2 =  1.229E-07

      iter #  18 total cpu time :104331.5 secs   av.it.:  14.0
      thresh= 3.506E-05 alpha_mix =  0.700 |ddv_scf|^2 =  5.429E-08

      iter #  19 total cpu time :105517.8 secs   av.it.:  14.9
      thresh= 2.330E-05 alpha_mix =  0.700 |ddv_scf|^2 =  7.132E-08

      iter #  20 total cpu time :106473.2 secs   av.it.:  11.2
      thresh= 2.671E-05 alpha_mix =  0.700 |ddv_scf|^2 =  6.817E-08

      iter #  21 total cpu time :107649.7 secs   av.it.:  15.0
      thresh= 2.611E-05 alpha_mix =  0.700 |ddv_scf|^2 =  5.049E-08

      iter #  22 total cpu time :108739.7 secs   av.it.:  13.7
      thresh= 2.247E-05 alpha_mix =  0.700 |ddv_scf|^2 =  7.889E-08

      iter #  23 total cpu time :109780.9 secs   av.it.:  12.8
      thresh= 2.809E-05 alpha_mix =  0.700 |ddv_scf|^2 =  7.902E-08

      iter #  24 total cpu time :110916.8 secs   av.it.:  14.0
      thresh= 2.811E-05 alpha_mix =  0.700 |ddv_scf|^2 =  7.264E-08

      iter #  25 total cpu time :111878.2 secs   av.it.:  11.6
      thresh= 2.695E-05 alpha_mix =  0.700 |ddv_scf|^2 =  7.122E-08

      iter #  26 total cpu time :113057.2 secs   av.it.:  15.0
      thresh= 2.669E-05 alpha_mix =  0.700 |ddv_scf|^2 =  6.856E-08

      iter #  27 total cpu time :114012.9 secs   av.it.:  11.6
      thresh= 2.618E-05 alpha_mix =  0.700 |ddv_scf|^2 =  5.177E-08

      iter #  28 total cpu time :115182.8 secs   av.it.:  14.8
      thresh= 2.275E-05 alpha_mix =  0.700 |ddv_scf|^2 =  1.357E-08

      iter #  29 total cpu time :116406.1 secs   av.it.:  15.5
      thresh= 1.165E-05 alpha_mix =  0.700 |ddv_scf|^2 =  2.427E-08

      iter #  30 total cpu time :117528.2 secs   av.it.:  14.0
      thresh= 1.558E-05 alpha_mix =  0.700 |ddv_scf|^2 =  1.399E-08

      iter #  31 total cpu time :118838.5 secs   av.it.:  17.0
      thresh= 1.183E-05 alpha_mix =  0.700 |ddv_scf|^2 =  8.876E-09

      iter #  32 total cpu time :120081.8 secs   av.it.:  15.8
      thresh= 9.421E-06 alpha_mix =  0.700 |ddv_scf|^2 =  4.618E-09

      iter #  33 total cpu time :121209.1 secs   av.it.:  13.9
      thresh= 6.796E-06 alpha_mix =  0.700 |ddv_scf|^2 =  3.497E-09

      iter #  34 total cpu time :122563.1 secs   av.it.:  17.5
      thresh= 5.914E-06 alpha_mix =  0.700 |ddv_scf|^2 =  7.604E-10

      iter #  35 total cpu time :123927.8 secs   av.it.:  17.9
      thresh= 2.758E-06 alpha_mix =  0.700 |ddv_scf|^2 =  3.216E-09

      iter #  36 total cpu time :125099.0 secs   av.it.:  14.9
      thresh= 5.671E-06 alpha_mix =  0.700 |ddv_scf|^2 =  3.035E-09

      iter #  37 total cpu time :126314.2 secs   av.it.:  15.3
      thresh= 5.509E-06 alpha_mix =  0.700 |ddv_scf|^2 =  1.523E-09

      iter #  38 total cpu time :127673.6 secs   av.it.:  17.5
      thresh= 3.903E-06 alpha_mix =  0.700 |ddv_scf|^2 =  3.804E-09

      iter #  39 total cpu time :128894.0 secs   av.it.:  15.6
      thresh= 6.168E-06 alpha_mix =  0.700 |ddv_scf|^2 =  5.622E-09

      iter #  40 total cpu time :130028.5 secs   av.it.:  14.2
      thresh= 7.498E-06 alpha_mix =  0.700 |ddv_scf|^2 =  4.511E-10

      iter #  41 total cpu time :131402.6 secs   av.it.:  17.8
      thresh= 2.124E-06 alpha_mix =  0.700 |ddv_scf|^2 =  3.183E-10

      iter #  42 total cpu time :132791.1 secs   av.it.:  18.0
      thresh= 1.784E-06 alpha_mix =  0.700 |ddv_scf|^2 =  2.049E-09

      iter #  43 total cpu time :133887.2 secs   av.it.:  13.5
      thresh= 4.526E-06 alpha_mix =  0.700 |ddv_scf|^2 =  6.581E-09

      iter #  44 total cpu time :135113.2 secs   av.it.:  15.6
      thresh= 8.113E-06 alpha_mix =  0.700 |ddv_scf|^2 =  1.659E-09

      iter #  45 total cpu time :136462.7 secs   av.it.:  17.4
      thresh= 4.074E-06 alpha_mix =  0.700 |ddv_scf|^2 =  2.225E-09

      iter #  46 total cpu time :137639.7 secs   av.it.:  14.9
      thresh= 4.717E-06 alpha_mix =  0.700 |ddv_scf|^2 =  6.286E-09

      iter #  47 total cpu time :138804.2 secs   av.it.:  14.7
      thresh= 7.929E-06 alpha_mix =  0.700 |ddv_scf|^2 =  2.039E-09

      iter #  48 total cpu time :140115.9 secs   av.it.:  16.9
      thresh= 4.515E-06 alpha_mix =  0.700 |ddv_scf|^2 =  2.639E-08

      iter #  49 total cpu time :141277.1 secs   av.it.:  14.6
      thresh= 1.625E-05 alpha_mix =  0.700 |ddv_scf|^2 =  1.809E-08

      iter #  50 total cpu time :142417.2 secs   av.it.:  14.2
      thresh= 1.345E-05 alpha_mix =  0.700 |ddv_scf|^2 =  9.986E-09

      iter #  51 total cpu time :143657.7 secs   av.it.:  16.0
      thresh= 9.993E-06 alpha_mix =  0.700 |ddv_scf|^2 =  1.545E-09

      iter #  52 total cpu time :144868.7 secs   av.it.:  15.3
      thresh= 3.931E-06 alpha_mix =  0.700 |ddv_scf|^2 =  2.802E-09

      iter #  53 total cpu time :146028.6 secs   av.it.:  14.6
      thresh= 5.294E-06 alpha_mix =  0.700 |ddv_scf|^2 =  6.380E-09

      iter #  54 total cpu time :147302.4 secs   av.it.:  16.0
      thresh= 7.988E-06 alpha_mix =  0.700 |ddv_scf|^2 =  8.854E-09

      iter #  55 total cpu time :148502.5 secs   av.it.:  15.3
      thresh= 9.409E-06 alpha_mix =  0.700 |ddv_scf|^2 =  1.479E-08

      iter #  56 total cpu time :149541.6 secs   av.it.:  12.9
      thresh= 1.216E-05 alpha_mix =  0.700 |ddv_scf|^2 =  1.259E-08

      iter #  57 total cpu time :150783.1 secs   av.it.:  16.0
      thresh= 1.122E-05 alpha_mix =  0.700 |ddv_scf|^2 =  2.034E-08

      iter #  58 total cpu time :151916.0 secs   av.it.:  13.9
      thresh= 1.426E-05 alpha_mix =  0.700 |ddv_scf|^2 =  4.285E-08

      iter #  59 total cpu time :153042.3 secs   av.it.:  13.8
      thresh= 2.070E-05 alpha_mix =  0.700 |ddv_scf|^2 =  3.026E-08

      iter #  60 total cpu time :154291.4 secs   av.it.:  15.8
      thresh= 1.739E-05 alpha_mix =  0.700 |ddv_scf|^2 =  1.738E-07

      iter #  61 total cpu time :155408.9 secs   av.it.:  14.2
      thresh= 4.169E-05 alpha_mix =  0.700 |ddv_scf|^2 =  1.800E-07

      iter #  62 total cpu time :156538.9 secs   av.it.:  14.0
      thresh= 4.243E-05 alpha_mix =  0.700 |ddv_scf|^2 =  6.703E-08

      iter #  63 total cpu time :157732.2 secs   av.it.:  14.9
      thresh= 2.589E-05 alpha_mix =  0.700 |ddv_scf|^2 =  3.424E-08

      iter #  64 total cpu time :158766.2 secs   av.it.:  12.7
      thresh= 1.850E-05 alpha_mix =  0.700 |ddv_scf|^2 =  3.831E-08

      iter #  65 total cpu time :159971.1 secs   av.it.:  15.2
      thresh= 1.957E-05 alpha_mix =  0.700 |ddv_scf|^2 =  3.744E-08

      iter #  66 total cpu time :161183.2 secs   av.it.:  15.4
      thresh= 1.935E-05 alpha_mix =  0.700 |ddv_scf|^2 =  1.671E-07

      iter #  67 total cpu time :162282.8 secs   av.it.:  13.4
      thresh= 4.088E-05 alpha_mix =  0.700 |ddv_scf|^2 =  2.510E-08

      iter #  68 total cpu time :163514.4 secs   av.it.:  15.8
      thresh= 1.584E-05 alpha_mix =  0.700 |ddv_scf|^2 =  1.294E-08

      iter #  69 total cpu time :164689.7 secs   av.it.:  14.9
      thresh= 1.138E-05 alpha_mix =  0.700 |ddv_scf|^2 =  2.378E-08

      iter #  70 total cpu time :165819.1 secs   av.it.:  14.2
      thresh= 1.542E-05 alpha_mix =  0.700 |ddv_scf|^2 =  2.797E-08

      iter #  71 total cpu time :167046.3 secs   av.it.:  15.5
      thresh= 1.672E-05 alpha_mix =  0.700 |ddv_scf|^2 =  3.968E-08

      iter #  72 total cpu time :168169.1 secs   av.it.:  14.0
      thresh= 1.992E-05 alpha_mix =  0.700 |ddv_scf|^2 =  6.162E-08

      iter #  73 total cpu time :169304.9 secs   av.it.:  14.2
      thresh= 2.482E-05 alpha_mix =  0.700 |ddv_scf|^2 =  5.576E-08

      iter #  74 total cpu time :170495.2 secs   av.it.:  14.9
      thresh= 2.361E-05 alpha_mix =  0.700 |ddv_scf|^2 =  1.548E-07
