
     Program PWSCF v.7.0 starts on 25Apr2022 at 13:45:23 

     This program is part of the open-source Quantum ESPRESSO suite
     for quantum simulation of materials; please cite
         "P. Giannozzi et al., J. Phys.:Condens. Matter 21 395502 (2009);
         "P. Giannozzi et al., J. Phys.:Condens. Matter 29 465901 (2017);
         "P. Giannozzi et al., J. Chem. Phys. 152 154105 (2020);
          URL http://www.quantum-espresso.org", 
     in publications or presentations arising from this work. More details at
     http://www.quantum-espresso.org/quote

     Parallel version (MPI), running on     1 processors

     MPI processes distributed on     1 nodes
     90673 MiB available memory on the printing compute node when the environment starts
 
     Waiting for input...
     Reading input from standard input
Warning: card &CELL ignored
Warning: card  CELL_DYNAMICS = 'BFGS', ignored
Warning: card  PRESS=0.1D0, ignored
Warning: card / ignored

     Current dimensions of program PWSCF are:
     Max number of different atomic species (ntypx) = 10
     Max number of k-points (npk) =  40000
     Max angular momentum in pseudopotentials (lmaxx) =  4

     Subspace diagonalization in iterative solution of the eigenvalue problem:
     a serial algorithm will be used

 
     G-vector sticks info
     --------------------
     sticks:   dense  smooth     PW     G-vecs:    dense   smooth      PW
     Sum        4939    1981    583               230409    58383    9185
 
     Using Slab Decomposition
 


     bravais-lattice index     =            5
     lattice parameter (alat)  =      12.0000  a.u.
     unit-cell volume          =    1221.8805 (a.u.)^3
     number of atoms/cell      =           10
     number of atomic types    =            3
     number of electrons       =        64.00
     number of Kohn-Sham states=           32
     kinetic-energy cutoff     =      50.0000  Ry
     charge density cutoff     =     500.0000  Ry
     scf convergence threshold =      1.0E-08
     mixing beta               =       0.7000
     number of iterations used =            8  plain     mixing
     Exchange-correlation= SLA  PW   PBE  PBE
                           (   1   4   3   4   0   0   0)

     celldm(1)=  12.000000  celldm(2)=   0.000000  celldm(3)=   0.000000
     celldm(4)=   0.500000  celldm(5)=   0.000000  celldm(6)=   0.000000

     crystal axes: (cart. coord. in units of alat)
               a(1) = (   0.500000  -0.288675   0.816497 )  
               a(2) = (   0.000000   0.577350   0.816497 )  
               a(3) = (  -0.500000  -0.288675   0.816497 )  

     reciprocal axes: (cart. coord. in units 2 pi/alat)
               b(1) = (  1.000000 -0.577350  0.408248 )  
               b(2) = (  0.000000  1.154701  0.408248 )  
               b(3) = ( -1.000000 -0.577350  0.408248 )  


     PseudoPot. # 1 for Ca read from file:
     ./Ca_PBE.UPF
     MD5 check sum: 403a4c14b9e4d4dfdc3024c9a3812218
     Pseudo is Ultrasoft + core correction, Zval = 10.0
     Generated by new atomic code, or converted to UPF format
     Using radial grid of  845 points,  6 beta functions with: 
                l(1) =   0
                l(2) =   0
                l(3) =   1
                l(4) =   1
                l(5) =   2
                l(6) =   2
     Q(r) pseudized with  8 coefficients,  rinner =    1.500   1.500   1.500
                                                       1.500   1.500

     PseudoPot. # 2 for C  read from file:
     ./C_PBE.UPF
     MD5 check sum: d1aef80898a10debaa0f26306b886e00
     Pseudo is Ultrasoft + core correction, Zval =  4.0
     Generated by new atomic code, or converted to UPF format
     Using radial grid of  721 points,  4 beta functions with: 
                l(1) =   0
                l(2) =   0
                l(3) =   1
                l(4) =   1
     Q(r) pseudized with  8 coefficients,  rinner =    1.100   1.100   1.100


     PseudoPot. # 3 for O  read from file:
     ./O_PBE.UPF
     MD5 check sum: 734c27235a0248c51dbae37a1fbe46ec
     Pseudo is Ultrasoft + core correction, Zval =  6.0
     Generated by new atomic code, or converted to UPF format
     Using radial grid of  737 points,  5 beta functions with: 
                l(1) =   0
                l(2) =   0
                l(3) =   1
                l(4) =   1
                l(5) =   2
     Q(r) pseudized with  8 coefficients,  rinner =    0.900   0.900   0.900
                                                       0.900   0.900

     atomic species   valence    mass     pseudopotential
        Ca            10.00    40.07800     Ca( 1.00)
        C              4.00    12.01070     C ( 1.00)
        O              6.00    16.00000     O ( 1.00)

     12 Sym. Ops., with inversion, found ( 6 have fractional translation)



   Cartesian axes

     site n.     atom                  positions (alat units)
         1           Ca  tau(   1) = (   0.0000000  -0.0000000   1.2247449  )
         2           Ca  tau(   2) = (   0.0000000   0.0000000   0.0000000  )
         3           C   tau(   3) = (   0.0000000  -0.0000000   0.6123724  )
         4           C   tau(   4) = (  -0.0000000  -0.0000000   1.8371173  )
         5           O   tau(   5) = (   0.1293055   0.3533865   1.4288690  )
         6           O   tau(   6) = (   0.2413889  -0.2886751   1.4288690  )
         7           O   tau(   7) = (  -0.3706945  -0.0647114   1.4288690  )
         8           O   tau(   8) = (  -0.2413889   0.2886751   1.0206207  )
         9           O   tau(   9) = (   0.3706945   0.0647114   1.0206207  )
        10           O   tau(  10) = (  -0.1293055  -0.3533865   1.0206207  )

     number of k points=    85
                       cart. coord. in units 2pi/alat
        k(    1) = (   0.0000000   0.0000000   0.0000000), wk =   0.0027435
        k(    2) = (  -0.1111111  -0.0641500   0.0453609), wk =   0.0164609
        k(    3) = (  -0.2222222  -0.1283001   0.0907218), wk =   0.0164609
        k(    4) = (  -0.3333333  -0.1924501   0.1360828), wk =   0.0164609
        k(    5) = (  -0.4444444  -0.2566001   0.1814437), wk =   0.0164609
        k(    6) = (  -0.1111111   0.0641500   0.0907218), wk =   0.0164609
        k(    7) = (  -0.2222222  -0.0000000   0.1360828), wk =   0.0329218
        k(    8) = (  -0.3333333  -0.0641500   0.1814437), wk =   0.0329218
        k(    9) = (  -0.4444444  -0.1283001   0.2268046), wk =   0.0329218
        k(   10) = (   0.4444444   0.3849002  -0.1360828), wk =   0.0329218
        k(   11) = (   0.3333333   0.3207501  -0.0907218), wk =   0.0329218
        k(   12) = (   0.2222222   0.2566001  -0.0453609), wk =   0.0329218
        k(   13) = (   0.1111111   0.1924501   0.0000000), wk =   0.0164609
        k(   14) = (  -0.2222222   0.1283001   0.1814437), wk =   0.0164609
        k(   15) = (  -0.3333333   0.0641500   0.2268046), wk =   0.0329218
        k(   16) = (  -0.4444444  -0.0000000   0.2721655), wk =   0.0329218
        k(   17) = (   0.4444444   0.5132002  -0.0907218), wk =   0.0329218
        k(   18) = (   0.3333333   0.4490502  -0.0453609), wk =   0.0329218
        k(   19) = (   0.2222222   0.3849002   0.0000000), wk =   0.0164609
        k(   20) = (  -0.3333333   0.1924501   0.2721655), wk =   0.0164609
        k(   21) = (  -0.4444444   0.1283001   0.3175264), wk =   0.0329218
        k(   22) = (   0.4444444   0.6415003  -0.0453609), wk =   0.0329218
        k(   23) = (   0.3333333   0.5773503   0.0000000), wk =   0.0164609
        k(   24) = (  -0.4444444   0.2566001   0.3628874), wk =   0.0164609
        k(   25) = (   0.4444444   0.7698004   0.0000000), wk =   0.0164609
        k(   26) = (  -0.0000000  -0.0000000   0.1360828), wk =   0.0054870
        k(   27) = (  -0.1111111  -0.0641500   0.1814437), wk =   0.0164609
        k(   28) = (  -0.2222222  -0.1283001   0.2268046), wk =   0.0164609
        k(   29) = (  -0.3333333  -0.1924501   0.2721655), wk =   0.0164609
        k(   30) = (   0.5555556   0.3207501  -0.0907218), wk =   0.0164609
        k(   31) = (   0.4444444   0.2566001  -0.0453609), wk =   0.0164609
        k(   32) = (   0.3333333   0.1924501   0.0000000), wk =   0.0164609
        k(   33) = (   0.2222222   0.1283001   0.0453609), wk =   0.0164609
        k(   34) = (  -0.1111111   0.0641500   0.2268046), wk =   0.0164609
        k(   35) = (  -0.2222222  -0.0000000   0.2721655), wk =   0.0329218
        k(   36) = (  -0.3333333  -0.0641500   0.3175264), wk =   0.0329218
        k(   37) = (   0.5555556   0.4490502  -0.0453609), wk =   0.0329218
        k(   38) = (   0.4444444   0.3849002   0.0000000), wk =   0.0329218
        k(   39) = (   0.3333333   0.3207501   0.0453609), wk =   0.0329218
        k(   40) = (   0.2222222   0.2566001   0.0907218), wk =   0.0329218
        k(   41) = (  -0.2222222   0.1283001   0.3175264), wk =   0.0164609
        k(   42) = (  -0.3333333   0.0641500   0.3628874), wk =   0.0329218
        k(   43) = (   0.5555556   0.5773503   0.0000000), wk =   0.0329218
        k(   44) = (   0.4444444   0.5132002   0.0453609), wk =   0.0329218
        k(   45) = (   0.3333333   0.4490502   0.0907218), wk =   0.0329218
        k(   46) = (   0.2222222   0.3849002   0.1360828), wk =   0.0329218
        k(   47) = (  -0.3333333   0.1924501   0.4082483), wk =   0.0164609
        k(   48) = (   0.5555556   0.7056503   0.0453609), wk =   0.0329218
        k(   49) = (   0.4444444   0.6415003   0.0907218), wk =   0.0329218
        k(   50) = (   0.3333333   0.5773503   0.1360828), wk =   0.0329218
        k(   51) = (   0.2222222   0.5132002   0.1814437), wk =   0.0329218
        k(   52) = (   0.5555556  -0.3207501  -0.3175264), wk =   0.0164609
        k(   53) = (   0.4444444  -0.3849002  -0.2721655), wk =   0.0329218
        k(   54) = (   0.3333333  -0.4490502  -0.2268046), wk =   0.0329218
        k(   55) = (   0.4444444  -0.2566001  -0.2268046), wk =   0.0164609
        k(   56) = (   0.3333333  -0.3207501  -0.1814437), wk =   0.0329218
        k(   57) = (   0.3333333  -0.1924501  -0.1360828), wk =   0.0164609
        k(   58) = (  -0.0000000  -0.0000000   0.2721655), wk =   0.0054870
        k(   59) = (  -0.1111111  -0.0641500   0.3175264), wk =   0.0164609
        k(   60) = (  -0.2222222  -0.1283001   0.3628874), wk =   0.0164609
        k(   61) = (   0.6666667   0.3849002   0.0000000), wk =   0.0164609
        k(   62) = (   0.5555556   0.3207501   0.0453609), wk =   0.0164609
        k(   63) = (   0.4444444   0.2566001   0.0907218), wk =   0.0164609
        k(   64) = (  -0.1111111   0.0641500   0.3628874), wk =   0.0164609
        k(   65) = (  -0.2222222  -0.0000000   0.4082483), wk =   0.0329218
        k(   66) = (   0.6666667   0.5132002   0.0453609), wk =   0.0329218
        k(   67) = (   0.5555556   0.4490502   0.0907218), wk =   0.0329218
        k(   68) = (   0.4444444   0.3849002   0.1360828), wk =   0.0329218
        k(   69) = (  -0.2222222   0.1283001   0.4536092), wk =   0.0164609
        k(   70) = (   0.6666667   0.6415003   0.0907218), wk =   0.0329218
        k(   71) = (   0.5555556   0.5773503   0.1360828), wk =   0.0329218
        k(   72) = (   0.4444444   0.5132002   0.1814437), wk =   0.0329218
        k(   73) = (   0.6666667  -0.3849002  -0.2721655), wk =   0.0164609
        k(   74) = (   0.5555556  -0.4490502  -0.2268046), wk =   0.0329218
        k(   75) = (   0.5555556  -0.3207501  -0.1814437), wk =   0.0164609
        k(   76) = (   0.0000000   0.0000000   0.4082483), wk =   0.0054870
        k(   77) = (  -0.1111111  -0.0641500   0.4536092), wk =   0.0164609
        k(   78) = (   0.7777778   0.4490502   0.0907218), wk =   0.0164609
        k(   79) = (   0.6666667   0.3849002   0.1360828), wk =   0.0164609
        k(   80) = (  -0.1111111   0.0641500   0.4989701), wk =   0.0164609
        k(   81) = (   0.7777778   0.5773503   0.1360828), wk =   0.0329218
        k(   82) = (   0.6666667   0.5132002   0.1814437), wk =   0.0329218
        k(   83) = (   0.7777778  -0.4490502  -0.2268046), wk =   0.0164609
        k(   84) = (  -0.0000000  -0.0000000   0.5443311), wk =   0.0054870
        k(   85) = (   0.8888889   0.5132002   0.1814437), wk =   0.0164609

     Dense  grid:   230409 G-vectors     FFT dimensions: (  90,  90,  90)

     Smooth grid:    58383 G-vectors     FFT dimensions: (  60,  60,  60)

     Estimated max dynamical RAM per process >       1.17 GB

     Check: negative core charge=   -0.000002

     Initial potential from superposition of free atoms

     starting charge      63.9890, renormalised to      64.0000
     Starting wfcs are   52 randomized atomic wfcs

     total cpu time spent up to now is       66.9 secs

     Self-consistent Calculation

     iteration #  1     ecut=    50.00 Ry     beta= 0.70
     CG style diagonalization
     ethr =  1.00E-02,  avg # of iterations =  2.1

     total cpu time spent up to now is      215.5 secs

     total energy              =    -365.08382462 Ry
     estimated scf accuracy    <       2.42137959 Ry

     iteration #  2     ecut=    50.00 Ry     beta= 0.70
     CG style diagonalization
     ethr =  3.78E-03,  avg # of iterations =  4.8

     total cpu time spent up to now is      497.1 secs

     total energy              =    -364.88513877 Ry
     estimated scf accuracy    <      10.14112121 Ry

     iteration #  3     ecut=    50.00 Ry     beta= 0.70
     CG style diagonalization
     ethr =  3.78E-03,  avg # of iterations =  4.3

     total cpu time spent up to now is      743.6 secs

     total energy              =    -366.36693180 Ry
     estimated scf accuracy    <       0.05618490 Ry

     iteration #  4     ecut=    50.00 Ry     beta= 0.70
     CG style diagonalization
     ethr =  8.78E-05,  avg # of iterations =  4.3

     total cpu time spent up to now is      997.7 secs

     total energy              =    -366.40476579 Ry
     estimated scf accuracy    <       0.01052046 Ry

     iteration #  5     ecut=    50.00 Ry     beta= 0.70
     CG style diagonalization
     ethr =  1.64E-05,  avg # of iterations =  3.8

     total cpu time spent up to now is     1249.7 secs

     total energy              =    -366.40774649 Ry
     estimated scf accuracy    <       0.00014552 Ry

     iteration #  6     ecut=    50.00 Ry     beta= 0.70
     CG style diagonalization
     ethr =  2.27E-07,  avg # of iterations =  5.3

     total cpu time spent up to now is     1557.9 secs

     total energy              =    -366.40796464 Ry
     estimated scf accuracy    <       0.00011677 Ry

     iteration #  7     ecut=    50.00 Ry     beta= 0.70
     CG style diagonalization
     ethr =  1.82E-07,  avg # of iterations =  3.7

     total cpu time spent up to now is     1771.3 secs

     total energy              =    -366.40799522 Ry
     estimated scf accuracy    <       0.00001353 Ry

     iteration #  8     ecut=    50.00 Ry     beta= 0.70
     CG style diagonalization
     ethr =  2.11E-08,  avg # of iterations =  3.7

     total cpu time spent up to now is     1981.7 secs

     total energy              =    -366.40799759 Ry
     estimated scf accuracy    <       0.00000153 Ry

     iteration #  9     ecut=    50.00 Ry     beta= 0.70
     CG style diagonalization
     ethr =  2.40E-09,  avg # of iterations =  3.9

     total cpu time spent up to now is     2205.4 secs

     total energy              =    -366.40799802 Ry
     estimated scf accuracy    <       0.00000025 Ry

     iteration # 10     ecut=    50.00 Ry     beta= 0.70
     CG style diagonalization
     ethr =  3.91E-10,  avg # of iterations =  4.2

     total cpu time spent up to now is     2445.6 secs

     End of self-consistent calculation

          k = 0.0000 0.0000 0.0000 (  7391 PWs)   bands (ev):

   -38.5637 -38.5618 -19.5578 -19.5337 -19.4773 -19.4773 -19.4513 -19.4513
   -15.8677 -15.5781 -14.6254 -14.6254 -14.4755 -14.4755  -6.3270  -6.1708
    -2.5497  -2.5497  -2.4663  -2.4663  -1.6790  -0.5460   0.2868   0.2868
     0.4490   0.4490   0.5458   0.5458   0.8262   1.4031   1.4853   1.4853

          k =-0.1111-0.0642 0.0454 (  7315 PWs)   bands (ev):

   -38.5636 -38.5618 -19.5571 -19.5344 -19.4767 -19.4767 -19.4524 -19.4522
   -15.8553 -15.5889 -14.6209 -14.6171 -14.4845 -14.4811  -6.3239  -6.1693
    -2.5583  -2.5450  -2.4636  -2.4533  -1.6447  -0.5998   0.2899   0.2963
     0.3873   0.3943   0.5775   0.5921   0.8693   1.3827   1.4475   1.4753

          k =-0.2222-0.1283 0.0907 (  7309 PWs)   bands (ev):

   -38.5634 -38.5620 -19.5548 -19.5365 -19.4750 -19.4749 -19.4555 -19.4547
   -15.8219 -15.6166 -14.6085 -14.5982 -14.5070 -14.4967  -6.3119  -6.1697
    -2.5744  -2.5287  -2.4632  -2.4255  -1.5471  -0.7272   0.2458   0.2747
     0.3015   0.3440   0.6358   0.6875   0.9471   1.2976   1.3963   1.4519

          k =-0.3333-0.1925 0.1361 (  7297 PWs)   bands (ev):

   -38.5632 -38.5623 -19.5515 -19.5397 -19.4722 -19.4721 -19.4596 -19.4585
   -15.7775 -15.6521 -14.5910 -14.5802 -14.5316 -14.5182  -6.2866  -6.1816
    -2.5812  -2.5149  -2.4620  -2.4043  -1.4005  -0.8815   0.1217   0.1630
     0.3255   0.3743   0.7063   0.7655   0.9970   1.1693   1.3810   1.4287

          k =-0.4444-0.2566 0.1814 (  7294 PWs)   bands (ev):

   -38.5629 -38.5626 -19.5476 -19.5435 -19.4687 -19.4683 -19.4639 -19.4630
   -15.7319 -15.6904 -14.5736 -14.5700 -14.5463 -14.5392  -6.2493  -6.2101
    -2.5680  -2.5380  -2.4329  -2.4065  -1.2266  -1.0487   0.0599   0.0807
     0.3618   0.3859   0.7678   0.7922   1.0188   1.0665   1.3898   1.4090

          k =-0.1111 0.0642 0.0907 (  7327 PWs)   bands (ev):

   -38.5636 -38.5619 -19.5569 -19.5348 -19.4780 -19.4749 -19.4541 -19.4509
   -15.8524 -15.5915 -14.6232 -14.6120 -14.4901 -14.4786  -6.3233  -6.1709
    -2.5685  -2.5329  -2.4641  -2.4515  -1.6351  -0.6137   0.2870   0.2996
     0.3826   0.4172   0.5418   0.6253   0.8745   1.3753   1.4374   1.4630

          k =-0.2222-0.0000 0.1361 (  7319 PWs)   bands (ev):

   -38.5635 -38.5620 -19.5554 -19.5365 -19.4781 -19.4722 -19.4574 -19.4516
   -15.8273 -15.6122 -14.6163 -14.5955 -14.5096 -14.4877  -6.3153  -6.1713
    -2.5825  -2.5187  -2.4662  -2.4270  -1.5632  -0.7128   0.2766   0.2895
     0.3177   0.3742   0.5805   0.6966   0.9359   1.3126   1.3800   1.4465

          k =-0.3333-0.0642 0.1814 (  7315 PWs)   bands (ev):

   -38.5633 -38.5622 -19.5527 -19.5393 -19.4768 -19.4687 -19.4617 -19.4541
   -15.7882 -15.6427 -14.6040 -14.5768 -14.5337 -14.5045  -6.2945  -6.1793
    -2.5838  -2.5138  -2.4680  -2.4005  -1.4401  -0.8486   0.1645   0.2028
     0.3302   0.3834   0.6560   0.7671   0.9903   1.1931   1.3548   1.4288

          k =-0.4444-0.1283 0.2268 (  7302 PWs)   bands (ev):

   -38.5630 -38.5625 -19.5492 -19.5428 -19.4742 -19.4668 -19.4642 -19.4578
   -15.7456 -15.6763 -14.5928 -14.5675 -14.5477 -14.5214  -6.2598  -6.2020
    -2.5674  -2.5423  -2.4443  -2.3916  -1.2844  -0.9960   0.0773   0.1014
     0.3731   0.3956   0.7246   0.7931   1.0220   1.0932   1.3561   1.4135

          k = 0.4444 0.3849-0.1361 (  7300 PWs)   bands (ev):

   -38.5628 -38.5627 -19.5465 -19.5453 -19.4714 -19.4700 -19.4622 -19.4601
   -15.7127 -15.7059 -14.5854 -14.5761 -14.5396 -14.5320  -6.2376  -6.2189
    -2.5841  -2.5311  -2.4172  -2.4065  -1.1571  -1.1177   0.0420   0.0640
     0.3727   0.4119   0.7375   0.7983   1.0405   1.0726   1.3678   1.4006

          k = 0.3333 0.3208-0.0907 (  7296 PWs)   bands (ev):

   -38.5631 -38.5624 -19.5501 -19.5414 -19.4745 -19.4670 -19.4652 -19.4564
   -15.7538 -15.6698 -14.5943 -14.5711 -14.5434 -14.5188  -6.2752  -6.1849
    -2.6071  -2.4995  -2.4346  -2.4068  -1.3253  -0.9568   0.0560   0.1218
     0.3339   0.4081   0.6846   0.8123   1.0208   1.1609   1.3631   1.4051

          k = 0.2222 0.2566-0.0454 (  7313 PWs)   bands (ev):

   -38.5633 -38.5621 -19.5534 -19.5380 -19.4766 -19.4708 -19.4604 -19.4535
   -15.7974 -15.6356 -14.6077 -14.5789 -14.5298 -14.5007  -6.3034  -6.1676
    -2.6054  -2.5031  -2.4436  -2.4200  -1.4777  -0.8082   0.1482   0.2198
     0.3048   0.3720   0.6242   0.7716   0.9897   1.2781   1.3659   1.4203

          k = 0.1111 0.1925 0.0000 (  7325 PWs)   bands (ev):

   -38.5635 -38.5619 -19.5558 -19.5356 -19.4774 -19.4742 -19.4557 -19.4520
   -15.8348 -15.6060 -14.6177 -14.6003 -14.5035 -14.4865  -6.3186  -6.1655
    -2.5838  -2.5265  -2.4485  -2.4426  -1.5898  -0.6787   0.2814   0.2921
     0.3029   0.3508   0.5806   0.6807   0.9276   1.3583   1.4105   1.4453

          k =-0.2222 0.1283 0.1814 (  7323 PWs)   bands (ev):

   -38.5634 -38.5620 -19.5549 -19.5379 -19.4798 -19.4687 -19.4608 -19.4500
   -15.8120 -15.6241 -14.6180 -14.5796 -14.5286 -14.4867  -6.3135  -6.1702
    -2.6109  -2.4947  -2.4624  -2.4104  -1.5249  -0.7752   0.2678   0.2834
     0.3511   0.3728   0.5339   0.7593   0.9700   1.2982   1.3092   1.4228

          k =-0.3333 0.0642 0.2268 (  7288 PWs)   bands (ev):

   -38.5633 -38.5622 -19.5533 -19.5403 -19.4801 -19.4650 -19.4644 -19.4505
   -15.7822 -15.6460 -14.6129 -14.5626 -14.5509 -14.4952  -6.3010  -6.1729
    -2.6223  -2.4916  -2.4566  -2.3837  -1.4391  -0.8776   0.1942   0.2378
     0.3554   0.3978   0.5720   0.8204   1.0030   1.2005   1.2823   1.4091

          k =-0.4444-0.0000 0.2722 (  7288 PWs)   bands (ev):

   -38.5630 -38.5624 -19.5507 -19.5431 -19.4788 -19.4688 -19.4609 -19.4528
   -15.7477 -15.6707 -14.6076 -14.5759 -14.5429 -14.5063  -6.2737  -6.1886
    -2.6059  -2.5285  -2.4335  -2.3684  -1.3193  -0.9853   0.1012   0.1375
     0.4028   0.4248   0.6412   0.8143   1.0307   1.1217   1.2819   1.4045

          k = 0.4444 0.5132-0.0907 (  7300 PWs)   bands (ev):

   -38.5628 -38.5626 -19.5475 -19.5461 -19.4759 -19.4725 -19.4575 -19.4565
   -15.7161 -15.6966 -14.6029 -14.5895 -14.5310 -14.5159  -6.2354  -6.2188
    -2.5826  -2.5581  -2.4139  -2.3748  -1.1831  -1.0998   0.0480   0.0543
     0.4136   0.4568   0.6970   0.7586   1.0724   1.0929   1.2943   1.4013

          k = 0.3333 0.4491-0.0454 (  7300 PWs)   bands (ev):

   -38.5629 -38.5625 -19.5488 -19.5440 -19.4755 -19.4714 -19.4611 -19.4549
   -15.7267 -15.6882 -14.5996 -14.5902 -14.5274 -14.5199  -6.2549  -6.1984
    -2.6159  -2.5103  -2.4091  -2.3978  -1.2308  -1.0474   0.0137   0.0735
     0.3688   0.4659   0.6700   0.7918   1.0494   1.1735   1.2928   1.4003

          k = 0.2222 0.3849 0.0000 (  7293 PWs)   bands (ev):

   -38.5631 -38.5623 -19.5513 -19.5406 -19.4768 -19.4661 -19.4660 -19.4535
   -15.7622 -15.6614 -14.6037 -14.5751 -14.5388 -14.5100  -6.2852  -6.1747
    -2.6245  -2.4854  -2.4196  -2.4187  -1.3653  -0.9210   0.0512   0.1434
     0.3265   0.4233   0.6376   0.8166   1.0272   1.2750   1.2786   1.4041

          k =-0.3333 0.1925 0.2722 (  7275 PWs)   bands (ev):

   -38.5632 -38.5623 -19.5530 -19.5422 -19.4819 -19.4675 -19.4611 -19.4489
   -15.7630 -15.6588 -14.6140 -14.5736 -14.5443 -14.4966  -6.3011  -6.1674
    -2.6529  -2.4652  -2.4593  -2.3566  -1.4005  -0.9470   0.1976   0.2482
     0.3871   0.4125   0.5314   0.8884   0.9758   1.2004   1.2031   1.3903

          k =-0.4444 0.1283 0.3175 (  7275 PWs)   bands (ev):

   -38.5631 -38.5624 -19.5517 -19.5443 -19.4819 -19.4703 -19.4579 -19.4495
   -15.7397 -15.6740 -14.6144 -14.5899 -14.5304 -14.5028  -6.2876  -6.1728
    -2.6532  -2.4975  -2.4300  -2.3385  -1.3308  -1.0162   0.1425   0.1882
     0.4219   0.4686   0.5634   0.8400   0.9919   1.1473   1.2151   1.3867

          k = 0.4444 0.6415-0.0454 (  7278 PWs)   bands (ev):

   -38.5629 -38.5625 -19.5496 -19.5461 -19.4801 -19.4728 -19.4557 -19.4520
   -15.7197 -15.6883 -14.6132 -14.6001 -14.5216 -14.5091  -6.2595  -6.1939
    -2.6179  -2.5488  -2.4085  -2.3414  -1.2405  -1.0742   0.0743   0.0961
     0.4516   0.5211   0.6295   0.7233   1.0683   1.1095   1.2277   1.3941

          k = 0.3333 0.5774 0.0000 (  7290 PWs)   bands (ev):

   -38.5627 -38.5627 -19.5475 -19.5469 -19.4766 -19.4746 -19.4561 -19.4546
   -15.7044 -15.7040 -14.6066 -14.6022 -14.5196 -14.5155  -6.2256  -6.2252
    -2.5948  -2.5603  -2.4026  -2.3648  -1.1431  -1.1416   0.0277   0.0475
     0.4215   0.5234   0.6635   0.7209   1.0760   1.1416   1.2475   1.3983

          k =-0.4444 0.2566 0.3629 (  7259 PWs)   bands (ev):

   -38.5631 -38.5624 -19.5520 -19.5454 -19.4832 -19.4714 -19.4559 -19.4482
   -15.7289 -15.6803 -14.6214 -14.5953 -14.5194 -14.5062  -6.2924  -6.1646
    -2.6778  -2.4694  -2.4404  -2.3180  -1.3201  -1.0537   0.1622   0.2160
     0.4151   0.5282   0.5445   0.7966   0.9752   1.1214   1.2239   1.3727

          k = 0.4444 0.7698 0.0000 (  7266 PWs)   bands (ev):

   -38.5630 -38.5624 -19.5512 -19.5460 -19.4826 -19.4723 -19.4551 -19.4491
   -15.7221 -15.6847 -14.6217 -14.5989 -14.5138 -14.5107  -6.2820  -6.1723
    -2.6643  -2.5029  -2.4194  -2.3189  -1.2883  -1.0696   0.1266   0.1688
     0.4419   0.5561   0.5893   0.7127   1.0180   1.1163   1.2165   1.3800

          k =-0.0000-0.0000 0.1361 (  7315 PWs)   bands (ev):

   -38.5636 -38.5618 -19.5573 -19.5347 -19.4766 -19.4766 -19.4521 -19.4521
   -15.8587 -15.5866 -14.6209 -14.6209 -14.4800 -14.4800  -6.3241  -6.1773
    -2.5454  -2.5454  -2.4662  -2.4662  -1.6459  -0.5873   0.2892   0.2892
     0.4376   0.4376   0.5769   0.5769   0.8386   1.3778   1.4543   1.4543

          k =-0.1111-0.0642 0.1814 (  7325 PWs)   bands (ev):

   -38.5635 -38.5619 -19.5562 -19.5360 -19.4770 -19.4741 -19.4550 -19.4522
   -15.8413 -15.6016 -14.6147 -14.6102 -14.4921 -14.4874  -6.3184  -6.1801
    -2.5488  -2.5383  -2.4764  -2.4441  -1.5933  -0.6622   0.2899   0.2985
     0.3638   0.4361   0.5754   0.6478   0.8860   1.3302   1.3909   1.4501

          k =-0.2222-0.1283 0.2268 (  7313 PWs)   bands (ev):

   -38.5633 -38.5621 -19.5539 -19.5385 -19.4762 -19.4706 -19.4591 -19.4541
   -15.8063 -15.6296 -14.6017 -14.5932 -14.5123 -14.5055  -6.3012  -6.1855
    -2.5400  -2.5369  -2.4898  -2.4133  -1.4868  -0.7953   0.2473   0.2523
     0.3248   0.3944   0.6421   0.7272   0.9567   1.2112   1.3536   1.4308

          k =-0.3333-0.1925 0.2722 (  7296 PWs)   bands (ev):

   -38.5631 -38.5624 -19.5505 -19.5417 -19.4743 -19.4665 -19.4641 -19.4572
   -15.7638 -15.6624 -14.5918 -14.5734 -14.5355 -14.5234  -6.2692  -6.2022
    -2.5537  -2.5274  -2.4788  -2.3944  -1.3433  -0.9436   0.1441   0.1485
     0.3668   0.3870   0.7052   0.8041   0.9994   1.0953   1.3423   1.4103

          k = 0.5556 0.3208-0.0907 (  7300 PWs)   bands (ev):

   -38.5628 -38.5627 -19.5467 -19.5454 -19.4717 -19.4687 -19.4625 -19.4604
   -15.7221 -15.6977 -14.5875 -14.5559 -14.5554 -14.5327  -6.2324  -6.2278
    -2.5925  -2.5048  -2.4435  -2.3991  -1.1818  -1.1018   0.0670   0.0926
     0.3673   0.4100   0.7207   0.8440   1.0322   1.0462   1.3520   1.3915

          k = 0.4444 0.2566-0.0454 (  7302 PWs)   bands (ev):

   -38.5630 -38.5625 -19.5491 -19.5427 -19.4740 -19.4669 -19.4651 -19.4573
   -15.7377 -15.6839 -14.5906 -14.5622 -14.5529 -14.5243  -6.2683  -6.1899
    -2.6200  -2.4808  -2.4206  -2.4199  -1.2710  -1.0186   0.0532   0.1133
     0.3326   0.4151   0.6868   0.8460   1.0187   1.1363   1.3692   1.3724

          k = 0.3333 0.1925 0.0000 (  7315 PWs)   bands (ev):

   -38.5633 -38.5622 -19.5525 -19.5391 -19.4768 -19.4689 -19.4624 -19.4537
   -15.7820 -15.6477 -14.6045 -14.5675 -14.5439 -14.5049  -6.2983  -6.1679
    -2.6215  -2.4878  -2.4294  -2.4217  -1.4327  -0.8627   0.1225   0.1932
     0.3072   0.3772   0.6279   0.8113   1.0059   1.2527   1.3680   1.3851

          k = 0.2222 0.1283 0.0454 (  7319 PWs)   bands (ev):

   -38.5635 -38.5620 -19.5552 -19.5363 -19.4782 -19.4723 -19.4578 -19.4515
   -15.8239 -15.6147 -14.6171 -14.5906 -14.5151 -14.4878  -6.3161  -6.1643
    -2.5996  -2.5135  -2.4429  -2.4351  -1.5607  -0.7204   0.2550   0.2790
     0.3219   0.3317   0.5716   0.7233   0.9525   1.3422   1.4071   1.4087

          k =-0.1111 0.0642 0.2268 (  7319 PWs)   bands (ev):

   -38.5635 -38.5620 -19.5559 -19.5369 -19.4778 -19.4720 -19.4570 -19.4514
   -15.8330 -15.6092 -14.6168 -14.5999 -14.5034 -14.4849  -6.3165  -6.1846
    -2.5682  -2.5141  -2.4753  -2.4418  -1.5656  -0.6994   0.2945   0.2963
     0.3910   0.4261   0.5653   0.6854   0.9010   1.3177   1.3426   1.4278

          k =-0.2222-0.0000 0.2722 (  7315 PWs)   bands (ev):

   -38.5633 -38.5621 -19.5543 -19.5390 -19.4781 -19.4683 -19.4610 -19.4517
   -15.8059 -15.6305 -14.6106 -14.5827 -14.5244 -14.4938  -6.3053  -6.1878
    -2.5775  -2.5038  -2.4811  -2.4144  -1.4870  -0.8047   0.2713   0.2890
     0.3375   0.4347   0.5779   0.7591   0.9595   1.2176   1.2993   1.4115

          k =-0.3333-0.0642 0.3175 (  7296 PWs)   bands (ev):

   -38.5631 -38.5623 -19.5517 -19.5419 -19.4772 -19.4658 -19.4640 -19.4536
   -15.7692 -15.6573 -14.6034 -14.5644 -14.5476 -14.5076  -6.2795  -6.1987
    -2.5688  -2.5303  -2.4639  -2.3895  -1.3709  -0.9307   0.1856   0.1951
     0.3722   0.4277   0.6381   0.8252   1.0025   1.1089   1.2815   1.3965

          k = 0.5556 0.4491-0.0454 (  7300 PWs)   bands (ev):

   -38.5629 -38.5626 -19.5484 -19.5450 -19.4750 -19.4704 -19.4600 -19.4566
   -15.7320 -15.6857 -14.6002 -14.5674 -14.5473 -14.5184  -6.2410  -6.2226
    -2.5895  -2.5240  -2.4384  -2.3842  -1.2337  -1.0609   0.0928   0.1146
     0.4049   0.4273   0.6820   0.8354   1.0426   1.0619   1.2858   1.3856

          k = 0.4444 0.3849 0.0000 (  7300 PWs)   bands (ev):

   -38.5629 -38.5626 -19.5482 -19.5448 -19.4750 -19.4711 -19.4605 -19.4560
   -15.7176 -15.6984 -14.5985 -14.5789 -14.5362 -14.5222  -6.2551  -6.2009
    -2.6255  -2.4880  -2.4198  -2.3982  -1.2028  -1.0903   0.0429   0.0983
     0.3656   0.4494   0.6721   0.8376   1.0277   1.1454   1.2947   1.3768

          k = 0.3333 0.3208 0.0454 (  7296 PWs)   bands (ev):

   -38.5631 -38.5623 -19.5511 -19.5413 -19.4776 -19.4668 -19.4645 -19.4532
   -15.7554 -15.6669 -14.6034 -14.5723 -14.5432 -14.5103  -6.2855  -6.1734
    -2.6369  -2.4743  -2.4238  -2.4073  -1.3498  -0.9502   0.0654   0.1492
     0.3301   0.4189   0.6301   0.8421   1.0244   1.2480   1.2923   1.3764

          k = 0.2222 0.2566 0.0907 (  7315 PWs)   bands (ev):

   -38.5633 -38.5621 -19.5536 -19.5384 -19.4786 -19.4686 -19.4619 -19.4517
   -15.7953 -15.6367 -14.6122 -14.5725 -14.5375 -14.4959  -6.3057  -6.1653
    -2.6193  -2.4937  -2.4432  -2.4111  -1.4777  -0.8197   0.1618   0.2326
     0.3144   0.3747   0.5906   0.7922   0.9963   1.2915   1.3419   1.3994

          k =-0.2222 0.1283 0.3175 (  7288 PWs)   bands (ev):

   -38.5633 -38.5622 -19.5538 -19.5407 -19.4797 -19.4646 -19.4642 -19.4503
   -15.7880 -15.6441 -14.6112 -14.5660 -14.5455 -14.4935  -6.3036  -6.1862
    -2.6095  -2.4815  -2.4741  -2.3942  -1.4439  -0.8741   0.2657   0.2995
     0.3873   0.4074   0.5583   0.8181   0.9906   1.1760   1.2220   1.3931

          k =-0.3333 0.0642 0.3629 (  7297 PWs)   bands (ev):

   -38.5631 -38.5623 -19.5523 -19.5430 -19.4800 -19.4678 -19.4608 -19.4507
   -15.7603 -15.6630 -14.6085 -14.5677 -14.5492 -14.5006  -6.2894  -6.1890
    -2.6167  -2.5080  -2.4452  -2.3692  -1.3666  -0.9653   0.2115   0.2374
     0.4009   0.4561   0.5792   0.8602   0.9896   1.1217   1.1973   1.3804

          k = 0.5556 0.5774 0.0000 (  7293 PWs)   bands (ev):

   -38.5629 -38.5625 -19.5500 -19.5454 -19.4788 -19.4716 -19.4574 -19.4526
   -15.7321 -15.6820 -14.6078 -14.5854 -14.5353 -14.5082  -6.2601  -6.2043
    -2.5946  -2.5539  -2.4179  -2.3596  -1.2665  -1.0516   0.1268   0.1351
     0.4536   0.4747   0.6311   0.7926   1.0507   1.0867   1.2111   1.3773

          k = 0.4444 0.5132 0.0454 (  7296 PWs)   bands (ev):

   -38.5627 -38.5627 -19.5475 -19.5472 -19.4762 -19.4746 -19.4559 -19.4548
   -15.7079 -15.7019 -14.6074 -14.5947 -14.5261 -14.5139  -6.2312  -6.2233
    -2.6045  -2.5461  -2.4007  -2.3713  -1.1555  -1.1408   0.0503   0.0766
     0.4318   0.5026   0.6555   0.7579   1.0592   1.1361   1.2389   1.3758

          k = 0.3333 0.4491 0.0907 (  7286 PWs)   bands (ev):

   -38.5629 -38.5625 -19.5494 -19.5442 -19.4771 -19.4718 -19.4599 -19.4535
   -15.7272 -15.6861 -14.6051 -14.5919 -14.5270 -14.5147  -6.2604  -6.1926
    -2.6270  -2.5088  -2.4027  -2.3902  -1.2454  -1.0436   0.0225   0.0865
     0.3837   0.4747   0.6436   0.7976   1.0479   1.1929   1.2760   1.3761

          k = 0.2222 0.3849 0.1361 (  7296 PWs)   bands (ev):

   -38.5631 -38.5623 -19.5511 -19.5413 -19.4777 -19.4669 -19.4643 -19.4533
   -15.7584 -15.6638 -14.6052 -14.5738 -14.5419 -14.5081  -6.2823  -6.1783
    -2.6187  -2.5003  -2.4341  -2.3919  -1.3535  -0.9383   0.0667   0.1415
     0.3482   0.4206   0.6398   0.8162   1.0274   1.1901   1.3344   1.3924

          k =-0.3333 0.1925 0.4082 (  7275 PWs)   bands (ev):

   -38.5631 -38.5624 -19.5521 -19.5446 -19.4815 -19.4699 -19.4578 -19.4494
   -15.7431 -15.6743 -14.6106 -14.5844 -14.5351 -14.5026  -6.2912  -6.1807
    -2.6494  -2.4821  -2.4464  -2.3440  -1.3362  -1.0223   0.2046   0.2552
     0.4142   0.4817   0.5722   0.8703   0.9381   1.1348   1.1695   1.3632

          k = 0.5556 0.7057 0.0454 (  7273 PWs)   bands (ev):

   -38.5630 -38.5625 -19.5511 -19.5460 -19.4814 -19.4720 -19.4557 -19.4500
   -15.7260 -15.6846 -14.6145 -14.5945 -14.5241 -14.5074  -6.2785  -6.1837
    -2.6480  -2.5102  -2.4207  -2.3336  -1.2846  -1.0682   0.1493   0.1863
     0.4518   0.5322   0.6027   0.7475   1.0028   1.1222   1.1924   1.3596

          k = 0.4444 0.6415 0.0907 (  7292 PWs)   bands (ev):

   -38.5629 -38.5626 -19.5493 -19.5468 -19.4795 -19.4739 -19.4547 -19.4521
   -15.7138 -15.6930 -14.6129 -14.6026 -14.5177 -14.5120  -6.2530  -6.2010
    -2.6147  -2.5557  -2.3990  -2.3450  -1.2174  -1.0998   0.0773   0.0943
     0.4755   0.5510   0.6407   0.6749   1.0650   1.1141   1.2296   1.3666

          k = 0.3333 0.5774 0.1361 (  7296 PWs)   bands (ev):

   -38.5627 -38.5627 -19.5474 -19.5471 -19.4761 -19.4751 -19.4557 -19.4549
   -15.7043 -15.7041 -14.6056 -14.6034 -14.5185 -14.5165  -6.2255  -6.2253
    -2.5873  -2.5702  -2.3918  -2.3731  -1.1427  -1.1419   0.0322   0.0420
     0.4451   0.4953   0.6795   0.7072   1.0851   1.1131   1.2989   1.3693

          k = 0.2222 0.5132 0.1814 (  7300 PWs)   bands (ev):

   -38.5629 -38.5626 -19.5481 -19.5447 -19.4752 -19.4715 -19.4600 -19.4562
   -15.7228 -15.6919 -14.5987 -14.5891 -14.5301 -14.5194  -6.2463  -6.2074
    -2.5908  -2.5437  -2.4084  -2.3905  -1.2089  -1.0668   0.0268   0.0588
     0.4010   0.4364   0.6989   0.7688   1.0596   1.1097   1.3554   1.3797

          k = 0.5556-0.3208-0.3175 (  7266 PWs)   bands (ev):

   -38.5630 -38.5624 -19.5513 -19.5462 -19.4824 -19.4722 -19.4551 -19.4491
   -15.7211 -15.6871 -14.6216 -14.5937 -14.5166 -14.5113  -6.2861  -6.1720
    -2.6735  -2.4729  -2.4356  -2.3228  -1.2889  -1.0810   0.1509   0.2084
     0.4335   0.5367   0.5819   0.7646   0.9699   1.1321   1.2236   1.3420

          k = 0.4444-0.3849-0.2722 (  7273 PWs)   bands (ev):

   -38.5630 -38.5625 -19.5508 -19.5457 -19.4816 -19.4723 -19.4558 -19.4500
   -15.7217 -15.6865 -14.6187 -14.5961 -14.5177 -14.5111  -6.2787  -6.1758
    -2.6616  -2.4977  -2.4168  -2.3335  -1.2770  -1.0705   0.1065   0.1589
     0.4517   0.5065   0.5716   0.7916   0.9950   1.1621   1.2293   1.3498

          k = 0.3333-0.4491-0.2268 (  7293 PWs)   bands (ev):

   -38.5629 -38.5625 -19.5497 -19.5450 -19.4791 -19.4722 -19.4576 -19.4525
   -15.7246 -15.6860 -14.6103 -14.5958 -14.5250 -14.5103  -6.2620  -6.1910
    -2.6248  -2.5302  -2.4067  -2.3605  -1.2496  -1.0540   0.0491   0.0940
     0.4431   0.4624   0.6282   0.7774   1.0503   1.1401   1.2891   1.3665

          k = 0.4444-0.2566-0.2268 (  7275 PWs)   bands (ev):

   -38.5631 -38.5624 -19.5516 -19.5442 -19.4819 -19.4704 -19.4580 -19.4495
   -15.7352 -15.6778 -14.6154 -14.5897 -14.5267 -14.5068  -6.2912  -6.1654
    -2.6727  -2.4565  -2.4436  -2.3427  -1.3253  -1.0289   0.1274   0.1943
     0.4207   0.4209   0.5652   0.9241   0.9286   1.1987   1.2409   1.3384

          k = 0.3333-0.3208-0.1814 (  7297 PWs)   bands (ev):

   -38.5631 -38.5623 -19.5517 -19.5425 -19.4805 -19.4686 -19.4611 -19.4507
   -15.7502 -15.6681 -14.6109 -14.5806 -14.5377 -14.5039  -6.2899  -6.1692
    -2.6511  -2.4807  -2.4320  -2.3671  -1.3526  -0.9734   0.1030   0.1742
     0.3756   0.4202   0.5871   0.8628   1.0111   1.2072   1.2759   1.3597

          k = 0.3333-0.1925-0.1361 (  7288 PWs)   bands (ev):

   -38.5633 -38.5622 -19.5530 -19.5401 -19.4802 -19.4650 -19.4649 -19.4504
   -15.7769 -15.6499 -14.6123 -14.5588 -14.5553 -14.4974  -6.3034  -6.1629
    -2.6449  -2.4721  -2.4436  -2.3886  -1.4334  -0.8885   0.1570   0.2246
     0.3348   0.3791   0.5681   0.8483   1.0099   1.2741   1.2943   1.3624

          k =-0.0000-0.0000 0.2722 (  7309 PWs)   bands (ev):

   -38.5634 -38.5620 -19.5557 -19.5373 -19.4744 -19.4744 -19.4545 -19.4545
   -15.8329 -15.6112 -14.6079 -14.6079 -14.4931 -14.4931  -6.3152  -6.1954
    -2.5335  -2.5335  -2.4672  -2.4672  -1.5514  -0.7003   0.2968   0.2968
     0.4147   0.4147   0.6574   0.6574   0.8756   1.3098   1.3666   1.3666

          k =-0.1111-0.0642 0.3175 (  7313 PWs)   bands (ev):

   -38.5633 -38.5621 -19.5545 -19.5390 -19.4758 -19.4703 -19.4590 -19.4535
   -15.8125 -15.6283 -14.6050 -14.5924 -14.5102 -14.4982  -6.3064  -6.2011
    -2.5444  -2.5117  -2.4901  -2.4389  -1.4880  -0.7845   0.2925   0.3092
     0.3471   0.4557   0.6141   0.7528   0.9239   1.2351   1.2972   1.3667

          k =-0.2222-0.1283 0.3629 (  7293 PWs)   bands (ev):

   -38.5631 -38.5623 -19.5523 -19.5416 -19.4759 -19.4656 -19.4643 -19.4538
   -15.7794 -15.6525 -14.6003 -14.5730 -14.5324 -14.5104  -6.2842  -6.2090
    -2.5500  -2.5097  -2.4935  -2.4079  -1.3889  -0.9079   0.2392   0.2532
     0.3531   0.4793   0.5966   0.8477   0.9832   1.1109   1.2709   1.3510

          k = 0.6667 0.3849 0.0000 (  7300 PWs)   bands (ev):

   -38.5629 -38.5625 -19.5495 -19.5446 -19.4749 -19.4698 -19.4609 -19.4554
   -15.7432 -15.6779 -14.6007 -14.5545 -14.5537 -14.5198  -6.2477  -6.2268
    -2.5901  -2.4883  -2.4708  -2.3906  -1.2696  -1.0359   0.1415   0.1797
     0.4084   0.4432   0.6360   0.8991   1.0214   1.0407   1.2685   1.3367

          k = 0.5556 0.3208 0.0454 (  7300 PWs)   bands (ev):

   -38.5628 -38.5626 -19.5477 -19.5463 -19.4754 -19.4720 -19.4582 -19.4561
   -15.7099 -15.7054 -14.6034 -14.5722 -14.5378 -14.5227  -6.2542  -6.2061
    -2.6337  -2.4558  -2.4485  -2.3893  -1.1684  -1.1423   0.0782   0.1351
     0.3919   0.4466   0.6477   0.8904   0.9909   1.1338   1.2843   1.3225

          k = 0.4444 0.2566 0.0907 (  7288 PWs)   bands (ev):

   -38.5630 -38.5624 -19.5506 -19.5430 -19.4787 -19.4690 -19.4613 -19.4526
   -15.7386 -15.6793 -14.6049 -14.5777 -14.5381 -14.5130  -6.2827  -6.1743
    -2.6547  -2.4498  -2.4382  -2.3868  -1.3067  -1.0139   0.0796   0.1550
     0.3490   0.4279   0.6174   0.8856   1.0019   1.2287   1.2955   1.3130

          k =-0.1111 0.0642 0.3629 (  7315 PWs)   bands (ev):

   -38.5633 -38.5622 -19.5538 -19.5403 -19.4759 -19.4681 -19.4609 -19.4535
   -15.7999 -15.6401 -14.6026 -14.5821 -14.5225 -14.4992  -6.3030  -6.2075
    -2.5588  -2.4918  -2.4876  -2.4378  -1.4457  -0.8359   0.2961   0.3138
     0.3885   0.4021   0.6579   0.7879   0.9471   1.2057   1.2334   1.3380

          k =-0.2222-0.0000 0.4082 (  7296 PWs)   bands (ev):

   -38.5631 -38.5623 -19.5524 -19.5425 -19.4766 -19.4653 -19.4639 -19.4532
   -15.7737 -15.6592 -14.5998 -14.5650 -14.5435 -14.5061  -6.2886  -6.2118
    -2.5674  -2.5149  -2.4635  -2.4109  -1.3716  -0.9334   0.2701   0.2857
     0.3618   0.4641   0.6284   0.8685   0.9940   1.0962   1.2044   1.3230

          k = 0.6667 0.5132 0.0454 (  7286 PWs)   bands (ev):

   -38.5629 -38.5625 -19.5503 -19.5450 -19.4763 -19.4704 -19.4595 -19.4537
   -15.7433 -15.6787 -14.6014 -14.5654 -14.5467 -14.5138  -6.2593  -6.2228
    -2.5734  -2.5409  -2.4342  -2.3888  -1.2792  -1.0379   0.1862   0.2076
     0.4146   0.5084   0.6009   0.8840   1.0347   1.0472   1.2010   1.3139

          k = 0.5556 0.4491 0.0907 (  7296 PWs)   bands (ev):

   -38.5627 -38.5627 -19.5479 -19.5475 -19.4757 -19.4742 -19.4558 -19.4550
   -15.7156 -15.6976 -14.6076 -14.5805 -14.5328 -14.5169  -6.2439  -6.2204
    -2.6191  -2.5135  -2.4110  -2.3800  -1.1788  -1.1395   0.1033   0.1459
     0.4653   0.4686   0.6188   0.8422   1.0079   1.1374   1.2232   1.3120

          k = 0.4444 0.3849 0.1361 (  7293 PWs)   bands (ev):

   -38.5629 -38.5625 -19.5497 -19.5452 -19.4788 -19.4720 -19.4578 -19.4524
   -15.7205 -15.6914 -14.6104 -14.5885 -14.5263 -14.5148  -6.2694  -6.1859
    -2.6505  -2.4862  -2.4127  -2.3704  -1.2461  -1.0757   0.0686   0.1328
     0.4116   0.4630   0.6138   0.8471   1.0026   1.2132   1.2455   1.3182

          k =-0.2222 0.1283 0.4536 (  7288 PWs)   bands (ev):

   -38.5630 -38.5624 -19.5517 -19.5441 -19.4778 -19.4678 -19.4606 -19.4524
   -15.7555 -15.6730 -14.5979 -14.5629 -14.5510 -14.5074  -6.2867  -6.2094
    -2.5988  -2.4983  -2.4546  -2.3913  -1.3278  -0.9977   0.2547   0.3072
     0.4052   0.4164   0.6677   0.9155   0.9524   1.0910   1.1486   1.3056

          k = 0.6667 0.6415 0.0907 (  7293 PWs)   bands (ev):

   -38.5629 -38.5625 -19.5506 -19.5459 -19.4781 -19.4711 -19.4574 -19.4523
   -15.7333 -15.6866 -14.5995 -14.5812 -14.5366 -14.5119  -6.2712  -6.2110
    -2.6051  -2.5260  -2.4252  -2.3721  -1.2684  -1.0680   0.2054   0.2307
     0.4470   0.4815   0.6599   0.8188   1.0034   1.1022   1.1537   1.2962

          k = 0.5556 0.5774 0.1361 (  7287 PWs)   bands (ev):

   -38.5628 -38.5626 -19.5490 -19.5474 -19.4773 -19.4746 -19.4547 -19.4531
   -15.7143 -15.6970 -14.6042 -14.5962 -14.5245 -14.5147  -6.2426  -6.2232
    -2.5855  -2.5729  -2.3920  -2.3688  -1.2002  -1.1262   0.1329   0.1354
     0.5040   0.5276   0.6370   0.7195   1.0743   1.0774   1.2165   1.3010

          k = 0.4444 0.5132 0.1814 (  7287 PWs)   bands (ev):

   -38.5628 -38.5626 -19.5486 -19.5471 -19.4776 -19.4752 -19.4549 -19.4531
   -15.7077 -15.6998 -14.6104 -14.6009 -14.5185 -14.5146  -6.2431  -6.2113
    -2.6134  -2.5512  -2.3838  -2.3684  -1.1825  -1.1274   0.0630   0.0889
     0.4931   0.5128   0.6237   0.7235   1.0553   1.1288   1.2830   1.3126

          k = 0.6667-0.3849-0.2722 (  7278 PWs)   bands (ev):

   -38.5629 -38.5625 -19.5503 -19.5468 -19.4792 -19.4722 -19.4557 -19.4518
   -15.7202 -15.6951 -14.6071 -14.5847 -14.5289 -14.5138  -6.2743  -6.2005
    -2.6375  -2.4915  -2.4348  -2.3547  -1.2468  -1.1043   0.1821   0.2383
     0.4379   0.5145   0.6475   0.7968   0.9659   1.1405   1.1759   1.2759

          k = 0.5556-0.4491-0.2268 (  7292 PWs)   bands (ev):

   -38.5629 -38.5626 -19.5496 -19.5472 -19.4791 -19.4736 -19.4548 -19.4520
   -15.7114 -15.6990 -14.6123 -14.5910 -14.5213 -14.5160  -6.2634  -6.2004
    -2.6375  -2.5143  -2.4088  -2.3536  -1.2181  -1.1231   0.1272   0.1705
     0.4766   0.5575   0.5775   0.7704   0.9932   1.1579   1.2168   1.2826

          k = 0.5556-0.3208-0.1814 (  7278 PWs)   bands (ev):

   -38.5629 -38.5625 -19.5498 -19.5463 -19.4796 -19.4726 -19.4559 -19.4518
   -15.7132 -15.6975 -14.6153 -14.5854 -14.5230 -14.5169  -6.2728  -6.1866
    -2.6599  -2.4671  -2.4319  -2.3546  -1.2352  -1.1095   0.1118   0.1765
     0.4535   0.4685   0.5877   0.8933   0.9263   1.2155   1.2377   1.2589

          k = 0.0000 0.0000 0.4082 (  7297 PWs)   bands (ev):

   -38.5632 -38.5623 -19.5531 -19.5411 -19.4711 -19.4711 -19.4581 -19.4581
   -15.7937 -15.6491 -14.5881 -14.5881 -14.5131 -14.5131  -6.2996  -6.2214
    -2.5163  -2.5163  -2.4719  -2.4719  -1.4079  -0.8605   0.3111   0.3111
     0.3875   0.3875   0.7755   0.7755   0.9362   1.2163   1.2358   1.2358

          k =-0.1111-0.0642 0.4536 (  7296 PWs)   bands (ev):

   -38.5631 -38.5624 -19.5518 -19.5430 -19.4732 -19.4658 -19.4637 -19.4560
   -15.7725 -15.6661 -14.5889 -14.5695 -14.5331 -14.5155  -6.2879  -6.2283
    -2.5339  -2.5053  -2.4840  -2.4402  -1.3428  -0.9429   0.3068   0.3178
     0.3381   0.4280   0.7275   0.8891   0.9816   1.1048   1.1910   1.2392

          k = 0.7778 0.4491 0.0907 (  7300 PWs)   bands (ev):

   -38.5629 -38.5625 -19.5502 -19.5453 -19.4742 -19.4696 -19.4606 -19.4549
   -15.7450 -15.6833 -14.5937 -14.5546 -14.5506 -14.5204  -6.2618  -6.2364
    -2.5645  -2.5165  -2.4556  -2.4077  -1.2661  -1.0451   0.2367   0.2675
     0.3788   0.4973   0.6477   0.9685   0.9861   1.0446   1.1839   1.2316

          k = 0.6667 0.3849 0.1361 (  7290 PWs)   bands (ev):

   -38.5627 -38.5627 -19.5484 -19.5477 -19.4755 -19.4736 -19.4558 -19.4547
   -15.7192 -15.6977 -14.6055 -14.5724 -14.5352 -14.5198  -6.2519  -6.2239
    -2.6181  -2.4930  -2.4349  -2.3796  -1.1879  -1.1422   0.1560   0.2090
     0.4354   0.5427   0.5719   0.9122   0.9472   1.1509   1.2063   1.2320

          k =-0.1111 0.0642 0.4990 (  7302 PWs)   bands (ev):

   -38.5630 -38.5625 -19.5508 -19.5444 -19.4727 -19.4653 -19.4638 -19.4569
   -15.7573 -15.6808 -14.5823 -14.5604 -14.5450 -14.5198  -6.2828  -6.2354
    -2.5434  -2.5014  -2.4704  -2.4422  -1.2905  -1.0002   0.3013   0.3405
     0.3718   0.3726   0.7918   0.9260   1.0050   1.0521   1.1414   1.2061

          k = 0.7778 0.5774 0.1361 (  7300 PWs)   bands (ev):

   -38.5629 -38.5626 -19.5496 -19.5462 -19.4737 -19.4698 -19.4596 -19.4558
   -15.7352 -15.6954 -14.5841 -14.5651 -14.5436 -14.5235  -6.2660  -6.2393
    -2.5526  -2.5344  -2.4379  -2.4189  -1.2311  -1.0804   0.2729   0.2792
     0.3951   0.4346   0.7583   0.9044   1.0260   1.0599   1.1287   1.1964

          k = 0.6667 0.5132 0.1814 (  7296 PWs)   bands (ev):

   -38.5627 -38.5627 -19.5484 -19.5481 -19.4749 -19.4740 -19.4554 -19.4549
   -15.7145 -15.7049 -14.5962 -14.5813 -14.5296 -14.5226  -6.2481  -6.2356
    -2.5895  -2.5379  -2.4118  -2.3885  -1.1753  -1.1549   0.1932   0.2194
     0.4501   0.5060   0.6734   0.8081   1.0253   1.1123   1.1865   1.2099

          k = 0.7778-0.4491-0.2268 (  7300 PWs)   bands (ev):

   -38.5628 -38.5626 -19.5488 -19.5474 -19.4743 -19.4713 -19.4573 -19.4560
   -15.7190 -15.7080 -14.5854 -14.5726 -14.5370 -14.5254  -6.2635  -6.2359
    -2.5825  -2.5110  -2.4425  -2.4011  -1.1900  -1.1319   0.2431   0.2902
     0.3987   0.4501   0.7674   0.8583   1.0059   1.1199   1.1248   1.1757

          k =-0.0000-0.0000 0.5443 (  7294 PWs)   bands (ev):

   -38.5629 -38.5626 -19.5496 -19.5454 -19.4670 -19.4670 -19.4624 -19.4624
   -15.7460 -15.6959 -14.5637 -14.5637 -14.5376 -14.5376  -6.2775  -6.2503
    -2.4979  -2.4979  -2.4822  -2.4822  -1.2327  -1.0443   0.3323   0.3323
     0.3588   0.3588   0.9214   0.9214   1.0177   1.0807   1.0807   1.1143

          k = 0.8889 0.5132 0.1814 (  7300 PWs)   bands (ev):

   -38.5628 -38.5627 -19.5484 -19.5471 -19.4695 -19.4684 -19.4612 -19.4597
   -15.7268 -15.7109 -14.5684 -14.5578 -14.5446 -14.5369  -6.2634  -6.2570
    -2.5276  -2.5144  -2.4626  -2.4478  -1.1746  -1.1172   0.3109   0.3307
     0.3509   0.3888   0.8750   0.9507   1.0313   1.0618   1.0942   1.0959

     highest occupied level (ev):     1.4853

!    total energy              =    -366.40799813 Ry
     estimated scf accuracy    <          6.9E-09 Ry

     The total energy is the sum of the following terms:
     one-electron contribution =    -166.42457892 Ry
     hartree contribution      =     105.51384675 Ry
     xc contribution           =     -72.64383065 Ry
     ewald contribution        =    -232.85343531 Ry

     convergence has been achieved in  10 iterations

     Forces acting on atoms (cartesian axes, Ry/au):

     atom    1 type  1   force =     0.00000000   -0.00000000    0.00000000
     atom    2 type  1   force =     0.00000000    0.00000000    0.00000000
     atom    3 type  2   force =     0.00000000    0.00000000    0.00000000
     atom    4 type  2   force =    -0.00000000   -0.00000000    0.00000000
     atom    5 type  3   force =    -0.12157044    0.21056618    0.00000000
     atom    6 type  3   force =     0.24314088   -0.00000000    0.00000000
     atom    7 type  3   force =    -0.12157044   -0.21056618   -0.00000000
     atom    8 type  3   force =    -0.24314088    0.00000000   -0.00000000
     atom    9 type  3   force =     0.12157044    0.21056618    0.00000000
     atom   10 type  3   force =     0.12157044   -0.21056618   -0.00000000

     Total force =     0.595571     Total SCF correction =     0.000011


     Computing stress (Cartesian axis) and pressure

          total   stress  (Ry/bohr**3)                   (kbar)     P=     -287.58
  -0.00283269  -0.00000000  -0.00000000         -416.70       -0.00       -0.00
  -0.00000000  -0.00283269  -0.00000000           -0.00     -416.70       -0.00
   0.00000000  -0.00000000  -0.00019931            0.00       -0.00      -29.32


     Writing all to output data dir ./cco.save/
 
     init_run     :     63.13s CPU     64.69s WALL (       1 calls)
     electrons    :   2338.04s CPU   2378.92s WALL (       1 calls)
     forces       :     10.36s CPU     10.78s WALL (       1 calls)
     stress       :     66.17s CPU     66.88s WALL (       1 calls)

     Called by init_run:
     wfcinit      :     57.44s CPU     58.34s WALL (       1 calls)
     potinit      :      1.09s CPU      1.22s WALL (       1 calls)
     hinit0       :      2.15s CPU      2.29s WALL (       1 calls)

     Called by electrons:
     c_bands      :   2125.27s CPU   2159.51s WALL (      10 calls)
     sum_band     :    184.81s CPU    188.87s WALL (      10 calls)
     v_of_rho     :     11.19s CPU     11.57s WALL (      11 calls)
     newd         :     18.61s CPU     20.78s WALL (      11 calls)
     mix_rho      :      0.53s CPU      0.58s WALL (      10 calls)

     Called by c_bands:
     init_us_2    :     28.83s CPU     28.95s WALL (    1955 calls)
     init_us_2:cp :     28.75s CPU     28.91s WALL (    1955 calls)
     ccgdiagg     :   1819.82s CPU   1850.04s WALL (     850 calls)
     wfcrot       :    342.30s CPU    345.27s WALL (     850 calls)

     Called by *cgdiagg:
     h_psi        :   1536.35s CPU   1555.25s WALL (   85959 calls)
     s_psi        :    344.50s CPU    353.47s WALL (  171068 calls)

     Called by h_psi:
     h_psi:calbec :    175.46s CPU    178.69s WALL (   85959 calls)
     vloc_psi     :   1173.33s CPU   1185.96s WALL (   85959 calls)
     add_vuspsi   :    179.07s CPU    183.05s WALL (   85959 calls)
     hs_1psi      :   1392.77s CPU   1411.66s WALL (   85109 calls)
     s_1psi       :    337.62s CPU    343.80s WALL (   85109 calls)

     General routines
     calbec       :    347.40s CPU    357.17s WALL (  172343 calls)
     fft          :      2.66s CPU      2.69s WALL (     166 calls)
     ffts         :      0.09s CPU      0.09s WALL (      21 calls)
     fftw         :   1112.51s CPU   1120.18s WALL (  255218 calls)
     interpolate  :      0.27s CPU      0.30s WALL (      11 calls)
 
     Parallel routines
 
     PWSCF        :  41m19.38s CPU  42m 9.15s WALL

 
   This run was terminated on:  14:27:32  25Apr2022            

=------------------------------------------------------------------------------=
   JOB DONE.
=------------------------------------------------------------------------------=
