
     Program PWSCF v.7.0 starts on 28Apr2022 at 15:13:37 

     This program is part of the open-source Quantum ESPRESSO suite
     for quantum simulation of materials; please cite
         "P. Giannozzi et al., J. Phys.:Condens. Matter 21 395502 (2009);
         "P. Giannozzi et al., J. Phys.:Condens. Matter 29 465901 (2017);
         "P. Giannozzi et al., J. Chem. Phys. 152 154105 (2020);
          URL http://www.quantum-espresso.org", 
     in publications or presentations arising from this work. More details at
     http://www.quantum-espresso.org/quote

     Parallel version (MPI), running on     1 processors

     MPI processes distributed on     1 nodes
     90930 MiB available memory on the printing compute node when the environment starts
 
     Waiting for input...
     Reading input from standard input
Warning: card &CELL ignored
Warning: card  CELL_DYNAMICS = 'BFGS', ignored
Warning: card  PRESS=0.1D0, ignored
Warning: card / ignored

     Current dimensions of program PWSCF are:
     Max number of different atomic species (ntypx) = 10
     Max number of k-points (npk) =  40000
     Max angular momentum in pseudopotentials (lmaxx) =  4

     Subspace diagonalization in iterative solution of the eigenvalue problem:
     a serial algorithm will be used

 
     G-vector sticks info
     --------------------
     sticks:   dense  smooth     PW     G-vecs:    dense   smooth      PW
     Sum        4243    1703    505               160901    40759    6699
 
     Using Slab Decomposition
 


     bravais-lattice index     =            5
     lattice parameter (alat)  =      12.1600  a.u.
     unit-cell volume          =     852.1729 (a.u.)^3
     number of atoms/cell      =           10
     number of atomic types    =            3
     number of electrons       =        64.00
     number of Kohn-Sham states=           32
     kinetic-energy cutoff     =      50.0000  Ry
     charge density cutoff     =     500.0000  Ry
     scf convergence threshold =      1.0E-08
     mixing beta               =       0.7000
     number of iterations used =            8  plain     mixing
     Exchange-correlation= SLA  PW   PBE  PBE
                           (   1   4   3   4   0   0   0)

     celldm(1)=  12.160000  celldm(2)=   0.000000  celldm(3)=   0.000000
     celldm(4)=   0.693200  celldm(5)=   0.000000  celldm(6)=   0.000000

     crystal axes: (cart. coord. in units of alat)
               a(1) = (   0.391663  -0.226127   0.891889 )  
               a(2) = (   0.000000   0.452254   0.891889 )  
               a(3) = (  -0.391663  -0.226127   0.891889 )  

     reciprocal axes: (cart. coord. in units 2 pi/alat)
               b(1) = (  1.276607 -0.737050  0.373738 )  
               b(2) = (  0.000000  1.474099  0.373738 )  
               b(3) = ( -1.276607 -0.737050  0.373738 )  


     PseudoPot. # 1 for Ca read from file:
     ./Ca_PBE.UPF
     MD5 check sum: 403a4c14b9e4d4dfdc3024c9a3812218
     Pseudo is Ultrasoft + core correction, Zval = 10.0
     Generated by new atomic code, or converted to UPF format
     Using radial grid of  845 points,  6 beta functions with: 
                l(1) =   0
                l(2) =   0
                l(3) =   1
                l(4) =   1
                l(5) =   2
                l(6) =   2
     Q(r) pseudized with  8 coefficients,  rinner =    1.500   1.500   1.500
                                                       1.500   1.500

     PseudoPot. # 2 for C  read from file:
     ./C_PBE.UPF
     MD5 check sum: d1aef80898a10debaa0f26306b886e00
     Pseudo is Ultrasoft + core correction, Zval =  4.0
     Generated by new atomic code, or converted to UPF format
     Using radial grid of  721 points,  4 beta functions with: 
                l(1) =   0
                l(2) =   0
                l(3) =   1
                l(4) =   1
     Q(r) pseudized with  8 coefficients,  rinner =    1.100   1.100   1.100


     PseudoPot. # 3 for O  read from file:
     ./O_PBE.UPF
     MD5 check sum: 734c27235a0248c51dbae37a1fbe46ec
     Pseudo is Ultrasoft + core correction, Zval =  6.0
     Generated by new atomic code, or converted to UPF format
     Using radial grid of  737 points,  5 beta functions with: 
                l(1) =   0
                l(2) =   0
                l(3) =   1
                l(4) =   1
                l(5) =   2
     Q(r) pseudized with  8 coefficients,  rinner =    0.900   0.900   0.900
                                                       0.900   0.900

     atomic species   valence    mass     pseudopotential
        Ca            10.00    40.07800     Ca( 1.00)
        C              4.00    12.01070     C ( 1.00)
        O              6.00    16.00000     O ( 1.00)

     12 Sym. Ops., with inversion, found ( 6 have fractional translation)



   Cartesian axes

     site n.     atom                  positions (alat units)
         1           Ca  tau(   1) = (   0.0000000  -0.0000000   1.3378341  )
         2           Ca  tau(   2) = (   0.0000000   0.0000000   0.0000000  )
         3           C   tau(   3) = (   0.0000000  -0.0000000   0.6689170  )
         4           C   tau(   4) = (   0.0000000  -0.0000000   2.0067511  )
         5           O   tau(   5) = (   0.1006582   0.2779086   1.5608064  )
         6           O   tau(   6) = (   0.1903468  -0.2261268   1.5608064  )
         7           O   tau(   7) = (  -0.2910050  -0.0517817   1.5608064  )
         8           O   tau(   8) = (  -0.1903468   0.2261268   1.1148617  )
         9           O   tau(   9) = (   0.2910050   0.0517817   1.1148617  )
        10           O   tau(  10) = (  -0.1006582  -0.2779086   1.1148617  )

     number of k points=    85
                       cart. coord. in units 2pi/alat
        k(    1) = (   0.0000000   0.0000000   0.0000000), wk =   0.0027435
        k(    2) = (  -0.1418453  -0.0818944   0.0415265), wk =   0.0164609
        k(    3) = (  -0.2836905  -0.1637888   0.0830530), wk =   0.0164609
        k(    4) = (  -0.4255358  -0.2456832   0.1245795), wk =   0.0164609
        k(    5) = (  -0.5673810  -0.3275776   0.1661060), wk =   0.0164609
        k(    6) = (  -0.1418453   0.0818944   0.0830530), wk =   0.0164609
        k(    7) = (  -0.2836905   0.0000000   0.1245795), wk =   0.0329218
        k(    8) = (  -0.4255358  -0.0818944   0.1661060), wk =   0.0329218
        k(    9) = (  -0.5673810  -0.1637888   0.2076325), wk =   0.0329218
        k(   10) = (   0.5673810   0.4913664  -0.1245795), wk =   0.0329218
        k(   11) = (   0.4255358   0.4094720  -0.0830530), wk =   0.0329218
        k(   12) = (   0.2836905   0.3275776  -0.0415265), wk =   0.0329218
        k(   13) = (   0.1418453   0.2456832   0.0000000), wk =   0.0164609
        k(   14) = (  -0.2836905   0.1637888   0.1661060), wk =   0.0164609
        k(   15) = (  -0.4255358   0.0818944   0.2076325), wk =   0.0329218
        k(   16) = (  -0.5673810   0.0000000   0.2491590), wk =   0.0329218
        k(   17) = (   0.5673810   0.6551552  -0.0830530), wk =   0.0329218
        k(   18) = (   0.4255358   0.5732608  -0.0415265), wk =   0.0329218
        k(   19) = (   0.2836905   0.4913664   0.0000000), wk =   0.0164609
        k(   20) = (  -0.4255358   0.2456832   0.2491590), wk =   0.0164609
        k(   21) = (  -0.5673810   0.1637888   0.2906854), wk =   0.0329218
        k(   22) = (   0.5673810   0.8189440  -0.0415265), wk =   0.0329218
        k(   23) = (   0.4255358   0.7370496   0.0000000), wk =   0.0164609
        k(   24) = (  -0.5673810   0.3275776   0.3322119), wk =   0.0164609
        k(   25) = (   0.5673810   0.9827328   0.0000000), wk =   0.0164609
        k(   26) = (   0.0000000   0.0000000   0.1245795), wk =   0.0054870
        k(   27) = (  -0.1418453  -0.0818944   0.1661060), wk =   0.0164609
        k(   28) = (  -0.2836905  -0.1637888   0.2076325), wk =   0.0164609
        k(   29) = (  -0.4255358  -0.2456832   0.2491590), wk =   0.0164609
        k(   30) = (   0.7092263   0.4094720  -0.0830530), wk =   0.0164609
        k(   31) = (   0.5673810   0.3275776  -0.0415265), wk =   0.0164609
        k(   32) = (   0.4255358   0.2456832   0.0000000), wk =   0.0164609
        k(   33) = (   0.2836905   0.1637888   0.0415265), wk =   0.0164609
        k(   34) = (  -0.1418453   0.0818944   0.2076325), wk =   0.0164609
        k(   35) = (  -0.2836905   0.0000000   0.2491590), wk =   0.0329218
        k(   36) = (  -0.4255358  -0.0818944   0.2906854), wk =   0.0329218
        k(   37) = (   0.7092263   0.5732608  -0.0415265), wk =   0.0329218
        k(   38) = (   0.5673810   0.4913664   0.0000000), wk =   0.0329218
        k(   39) = (   0.4255358   0.4094720   0.0415265), wk =   0.0329218
        k(   40) = (   0.2836905   0.3275776   0.0830530), wk =   0.0329218
        k(   41) = (  -0.2836905   0.1637888   0.2906854), wk =   0.0164609
        k(   42) = (  -0.4255358   0.0818944   0.3322119), wk =   0.0329218
        k(   43) = (   0.7092263   0.7370496   0.0000000), wk =   0.0329218
        k(   44) = (   0.5673810   0.6551552   0.0415265), wk =   0.0329218
        k(   45) = (   0.4255358   0.5732608   0.0830530), wk =   0.0329218
        k(   46) = (   0.2836905   0.4913664   0.1245795), wk =   0.0329218
        k(   47) = (  -0.4255358   0.2456832   0.3737384), wk =   0.0164609
        k(   48) = (   0.7092263   0.9008384   0.0415265), wk =   0.0329218
        k(   49) = (   0.5673810   0.8189440   0.0830530), wk =   0.0329218
        k(   50) = (   0.4255358   0.7370496   0.1245795), wk =   0.0329218
        k(   51) = (   0.2836905   0.6551552   0.1661060), wk =   0.0329218
        k(   52) = (   0.7092263  -0.4094720  -0.2906854), wk =   0.0164609
        k(   53) = (   0.5673810  -0.4913664  -0.2491590), wk =   0.0329218
        k(   54) = (   0.4255358  -0.5732608  -0.2076325), wk =   0.0329218
        k(   55) = (   0.5673810  -0.3275776  -0.2076325), wk =   0.0164609
        k(   56) = (   0.4255358  -0.4094720  -0.1661060), wk =   0.0329218
        k(   57) = (   0.4255358  -0.2456832  -0.1245795), wk =   0.0164609
        k(   58) = (   0.0000000   0.0000000   0.2491590), wk =   0.0054870
        k(   59) = (  -0.1418453  -0.0818944   0.2906854), wk =   0.0164609
        k(   60) = (  -0.2836905  -0.1637888   0.3322119), wk =   0.0164609
        k(   61) = (   0.8510715   0.4913664   0.0000000), wk =   0.0164609
        k(   62) = (   0.7092263   0.4094720   0.0415265), wk =   0.0164609
        k(   63) = (   0.5673810   0.3275776   0.0830530), wk =   0.0164609
        k(   64) = (  -0.1418453   0.0818944   0.3322119), wk =   0.0164609
        k(   65) = (  -0.2836905   0.0000000   0.3737384), wk =   0.0329218
        k(   66) = (   0.8510715   0.6551552   0.0415265), wk =   0.0329218
        k(   67) = (   0.7092263   0.5732608   0.0830530), wk =   0.0329218
        k(   68) = (   0.5673810   0.4913664   0.1245795), wk =   0.0329218
        k(   69) = (  -0.2836905   0.1637888   0.4152649), wk =   0.0164609
        k(   70) = (   0.8510715   0.8189440   0.0830530), wk =   0.0329218
        k(   71) = (   0.7092263   0.7370496   0.1245795), wk =   0.0329218
        k(   72) = (   0.5673810   0.6551552   0.1661060), wk =   0.0329218
        k(   73) = (   0.8510715  -0.4913664  -0.2491590), wk =   0.0164609
        k(   74) = (   0.7092263  -0.5732608  -0.2076325), wk =   0.0329218
        k(   75) = (   0.7092263  -0.4094720  -0.1661060), wk =   0.0164609
        k(   76) = (   0.0000000   0.0000000   0.3737384), wk =   0.0054870
        k(   77) = (  -0.1418453  -0.0818944   0.4152649), wk =   0.0164609
        k(   78) = (   0.9929168   0.5732608   0.0830530), wk =   0.0164609
        k(   79) = (   0.8510715   0.4913664   0.1245795), wk =   0.0164609
        k(   80) = (  -0.1418453   0.0818944   0.4567914), wk =   0.0164609
        k(   81) = (   0.9929168   0.7370496   0.1245795), wk =   0.0329218
        k(   82) = (   0.8510715   0.6551552   0.1661060), wk =   0.0329218
        k(   83) = (   0.9929168  -0.5732608  -0.2076325), wk =   0.0164609
        k(   84) = (   0.0000000   0.0000000   0.4983179), wk =   0.0054870
        k(   85) = (   1.1347620   0.6551552   0.1661060), wk =   0.0164609

     Dense  grid:   160901 G-vectors     FFT dimensions: (  90,  90,  90)

     Smooth grid:    40759 G-vectors     FFT dimensions: (  60,  60,  60)

     Estimated max dynamical RAM per process >     852.19 MB

     Check: negative core charge=   -0.000002

     Initial potential from superposition of free atoms

     starting charge      63.9890, renormalised to      64.0000
     Starting wfcs are   52 randomized atomic wfcs

     total cpu time spent up to now is       62.5 secs

     Self-consistent Calculation

     iteration #  1     ecut=    50.00 Ry     beta= 0.70
     CG style diagonalization
     ethr =  1.00E-02,  avg # of iterations =  2.7

     total cpu time spent up to now is      213.8 secs

     total energy              =    -366.67075921 Ry
     estimated scf accuracy    <       1.75357193 Ry

     iteration #  2     ecut=    50.00 Ry     beta= 0.70
     CG style diagonalization
     ethr =  2.74E-03,  avg # of iterations =  4.3

     total cpu time spent up to now is      427.2 secs

     total energy              =    -367.10259236 Ry
     estimated scf accuracy    <       1.66111637 Ry

     iteration #  3     ecut=    50.00 Ry     beta= 0.70
     CG style diagonalization
     ethr =  2.60E-03,  avg # of iterations =  3.8

     total cpu time spent up to now is      611.1 secs

     total energy              =    -367.41849581 Ry
     estimated scf accuracy    <       0.01092729 Ry

     iteration #  4     ecut=    50.00 Ry     beta= 0.70
     CG style diagonalization
     ethr =  1.71E-05,  avg # of iterations =  4.4

     total cpu time spent up to now is      825.8 secs

     total energy              =    -367.42992091 Ry
     estimated scf accuracy    <       0.00268092 Ry

     iteration #  5     ecut=    50.00 Ry     beta= 0.70
     CG style diagonalization
     ethr =  4.19E-06,  avg # of iterations =  3.6

     total cpu time spent up to now is     1000.9 secs

     total energy              =    -367.43032820 Ry
     estimated scf accuracy    <       0.00014242 Ry

     iteration #  6     ecut=    50.00 Ry     beta= 0.70
     CG style diagonalization
     ethr =  2.23E-07,  avg # of iterations =  4.1

     total cpu time spent up to now is     1200.5 secs

     total energy              =    -367.43036493 Ry
     estimated scf accuracy    <       0.00002071 Ry

     iteration #  7     ecut=    50.00 Ry     beta= 0.70
     CG style diagonalization
     ethr =  3.24E-08,  avg # of iterations =  4.1

     total cpu time spent up to now is     1400.0 secs

     total energy              =    -367.43037396 Ry
     estimated scf accuracy    <       0.00000469 Ry

     iteration #  8     ecut=    50.00 Ry     beta= 0.70
     CG style diagonalization
     ethr =  7.33E-09,  avg # of iterations =  3.7

     total cpu time spent up to now is     1579.3 secs

     total energy              =    -367.43037481 Ry
     estimated scf accuracy    <       0.00000016 Ry

     iteration #  9     ecut=    50.00 Ry     beta= 0.70
     CG style diagonalization
     ethr =  2.42E-10,  avg # of iterations =  4.2

     total cpu time spent up to now is     1787.5 secs

     total energy              =    -367.43037488 Ry
     estimated scf accuracy    <       0.00000002 Ry

     iteration # 10     ecut=    50.00 Ry     beta= 0.70
     CG style diagonalization
     ethr =  2.97E-11,  avg # of iterations =  3.9

     total cpu time spent up to now is     1982.1 secs

     End of self-consistent calculation

          k = 0.0000 0.0000 0.0000 (  5125 PWs)   bands (ev):

   -33.6564 -33.6437 -17.0833 -17.0740 -15.0983 -15.0983 -14.7237 -14.7237
   -14.6291 -14.5225 -13.8954 -13.8954 -13.3536 -13.3536  -3.2911  -3.0141
    -1.6855  -1.5195  -1.5195  -1.2566  -1.2566  -0.3942   2.3746   2.3746
     2.8118   2.8118   2.9853   2.9853   3.5972   3.5972   3.8000   4.2289

          k =-0.1418-0.0819 0.0415 (  5121 PWs)   bands (ev):

   -33.6560 -33.6440 -17.0837 -17.0698 -15.0977 -15.0591 -14.7655 -14.7221
   -14.6448 -14.5911 -13.8679 -13.7900 -13.4038 -13.3627  -3.2406  -3.0213
    -1.6395  -1.4999  -1.4798  -1.2794  -1.2493  -0.4475   2.3996   2.4313
     2.7558   2.7969   2.8908   2.9370   3.5169   3.5354   3.9133   4.2333

          k =-0.2837-0.1638 0.0831 (  5098 PWs)   bands (ev):

   -33.6547 -33.6450 -17.1001 -17.0416 -15.0963 -14.9877 -14.8946 -14.7346
   -14.6546 -14.6326 -13.7994 -13.6266 -13.5182 -13.3905  -3.1198  -3.0236
    -1.5507  -1.4459  -1.3694  -1.3049  -1.2442  -0.5713   2.4409   2.5202
     2.6371   2.6665   2.8004   2.8074   3.3682   3.3999   4.1183   4.2456

          k =-0.4255-0.2457 0.1246 (  5087 PWs)   bands (ev):

   -33.6529 -33.6465 -17.1010 -17.0268 -15.0869 -14.9789 -14.9610 -14.8036
   -14.6329 -14.6151 -13.7163 -13.5983 -13.5363 -13.4401  -2.9981  -2.9950
    -1.5264  -1.3995  -1.2604  -1.2540  -1.1944  -0.7010   2.3072   2.3824
     2.5942   2.6170   2.7411   2.8472   3.2194   3.2536   4.2716   4.2867

          k =-0.5674-0.3276 0.1661 (  5079 PWs)   bands (ev):

   -33.6507 -33.6485 -17.0774 -17.0433 -15.0283 -14.9897 -14.9741 -14.9133
   -14.6197 -14.6040 -13.6244 -13.5804 -13.5357 -13.5200  -2.9486  -2.9365
    -1.5120  -1.4494  -1.2234  -1.2133  -0.9969  -0.8300   2.1714   2.2300
     2.5564   2.5853   2.8260   2.8779   3.1296   3.1443   4.3195   4.3487

          k =-0.1418 0.0819 0.0831 (  5113 PWs)   bands (ev):

   -33.6559 -33.6441 -17.0847 -17.0692 -15.0775 -15.0753 -14.7625 -14.7247
   -14.6393 -14.6093 -13.8297 -13.8121 -13.3904 -13.3836  -3.2382  -3.0283
    -1.6240  -1.4937  -1.4840  -1.2838  -1.2471  -0.4585   2.4002   2.4369
     2.7606   2.7640   2.9173   2.9432   3.4889   3.5521   3.9144   4.2272

          k =-0.2837 0.0000 0.1246 (  5089 PWs)   bands (ev):

   -33.6549 -33.6449 -17.0982 -17.0480 -15.0817 -15.0281 -14.8307 -14.7311
   -14.6708 -14.6356 -13.7900 -13.6899 -13.4691 -13.3978  -3.1506  -3.0364
    -1.5488  -1.4615  -1.4070  -1.3063  -1.2368  -0.5530   2.4315   2.5101
     2.6427   2.7324   2.7875   2.8866   3.3623   3.4645   4.0669   4.2327

          k =-0.4255-0.0819 0.1661 (  5081 PWs)   bands (ev):

   -33.6534 -33.6461 -17.1025 -17.0308 -15.0803 -15.0379 -14.8735 -14.7852
   -14.6387 -14.6344 -13.7157 -13.6774 -13.4783 -13.4357  -3.0360  -3.0124
    -1.5096  -1.4028  -1.3421  -1.2329  -1.2194  -0.6708   2.3675   2.4719
     2.5555   2.6336   2.7443   2.8415   3.2158   3.3346   4.2404   4.2614

          k =-0.5674-0.1638 0.2076 (  5082 PWs)   bands (ev):

   -33.6514 -33.6479 -17.0824 -17.0413 -15.0695 -15.0240 -14.9037 -14.8711
   -14.6238 -14.6130 -13.6884 -13.6293 -13.5021 -13.4587  -2.9601  -2.9520
    -1.4976  -1.4367  -1.2765  -1.2152  -1.0385  -0.7808   2.2179   2.2984
     2.5312   2.5697   2.7753   2.8598   3.1298   3.2229   4.3177   4.3377

          k = 0.5674 0.4914-0.1246 (  5101 PWs)   bands (ev):

   -33.6499 -33.6492 -17.0752 -17.0443 -15.0620 -14.9995 -14.9609 -14.8765
   -14.6258 -14.6021 -13.6805 -13.5992 -13.5269 -13.4610  -2.9521  -2.9010
    -1.5116  -1.4472  -1.2421  -1.1956  -0.9206  -0.8775   2.1510   2.2197
     2.5026   2.5643   2.7908   2.8556   3.1370   3.1723   4.3314   4.3814

          k = 0.4255 0.4095-0.0831 (  5085 PWs)   bands (ev):

   -33.6520 -33.6473 -17.1058 -17.0147 -15.1090 -15.0044 -14.9506 -14.7971
   -14.6446 -14.5903 -13.7411 -13.6054 -13.5152 -13.4290  -2.9895  -2.9187
    -1.5400  -1.3788  -1.2618  -1.2093  -1.1080  -0.7588   2.1722   2.3573
     2.5024   2.5972   2.7188   2.8896   3.1543   3.2356   4.2828   4.3755

          k = 0.2837 0.3276-0.0415 (  5081 PWs)   bands (ev):

   -33.6539 -33.6456 -17.1133 -17.0178 -15.0913 -15.0360 -14.8784 -14.7594
   -14.6596 -14.6274 -13.7339 -13.6671 -13.4773 -13.4289  -3.0229  -3.0175
    -1.5309  -1.3911  -1.3143  -1.2868  -1.2216  -0.6492   2.3554   2.4870
     2.5677   2.6602   2.6702   2.8500   3.2465   3.3529   4.2490   4.2590

          k = 0.1418 0.2457 0.0000 (  5095 PWs)   bands (ev):

   -33.6553 -33.6445 -17.0994 -17.0460 -15.0788 -15.0390 -14.7859 -14.7718
   -14.6586 -14.6430 -13.7958 -13.7008 -13.4577 -13.3944  -3.1502  -3.0274
    -1.5737  -1.4630  -1.4195  -1.3104  -1.2302  -0.5286   2.4307   2.5119
     2.6392   2.7673   2.7735   2.8439   3.3959   3.4679   4.0646   4.2420

          k =-0.2837 0.1638 0.1661 (  5080 PWs)   bands (ev):

   -33.6545 -33.6453 -17.1110 -17.0321 -15.0623 -15.0460 -14.7889 -14.7657
   -14.7019 -14.6481 -13.7273 -13.6935 -13.4635 -13.4363  -3.0956  -3.0589
    -1.4854  -1.4505  -1.4314  -1.2687  -1.2239  -0.6088   2.4447   2.4493
     2.6432   2.6609   2.7808   2.9300   3.2593   3.4616   4.1340   4.2171

          k =-0.4255 0.0819 0.2076 (  5089 PWs)   bands (ev):

   -33.6534 -33.6461 -17.1202 -17.0133 -15.1023 -15.0426 -14.8213 -14.7631
   -14.6661 -14.6483 -13.7461 -13.6689 -13.4739 -13.4243  -3.0545  -2.9985
    -1.4875  -1.4062  -1.3785  -1.2116  -1.1834  -0.6967   2.3075   2.4393
     2.5735   2.6614   2.7336   2.9223   3.1287   3.3865   4.2248   4.2711

          k =-0.5674 0.0000 0.2492 (  5091 PWs)   bands (ev):

   -33.6518 -33.6474 -17.1060 -17.0192 -15.1283 -14.9994 -14.8988 -14.7865
   -14.6456 -14.6173 -13.7887 -13.5891 -13.5302 -13.3968  -2.9977  -2.9260
    -1.4863  -1.4116  -1.3376  -1.2019  -1.0358  -0.7678   2.1829   2.3480
     2.5255   2.5789   2.7189   2.8602   3.1058   3.2981   4.2820   4.3734

          k = 0.5674 0.6552-0.0831 (  5089 PWs)   bands (ev):

   -33.6500 -33.6491 -17.0664 -17.0547 -15.0991 -14.9999 -14.9247 -14.8292
   -14.6421 -14.6190 -13.7424 -13.6282 -13.4959 -13.4144  -2.9178  -2.9134
    -1.4885  -1.4409  -1.3039  -1.1893  -0.8950  -0.8481   2.1677   2.2083
     2.4822   2.5205   2.7243   2.7787   3.1605   3.2412   4.3750   4.3833

          k = 0.4255 0.5733-0.0415 (  5088 PWs)   bands (ev):

   -33.6508 -33.6483 -17.0955 -17.0221 -15.1192 -15.0168 -14.9555 -14.7546
   -14.6599 -14.5954 -13.7822 -13.6214 -13.5008 -13.3926  -2.9601  -2.8688
    -1.5402  -1.3683  -1.2922  -1.1918  -0.9850  -0.8006   2.1231   2.2895
     2.4395   2.5251   2.7031   2.8060   3.2020   3.2194   4.3263   4.4337

          k = 0.2837 0.4914 0.0000 (  5087 PWs)   bands (ev):

   -33.6525 -33.6468 -17.1169 -17.0033 -15.1403 -15.0123 -14.9403 -14.7180
   -14.6741 -14.5867 -13.7993 -13.6202 -13.5027 -13.3917  -3.0054  -2.9106
    -1.5437  -1.3481  -1.2783  -1.2113  -1.1558  -0.7336   2.1846   2.4588
     2.4668   2.5530   2.6672   2.8780   3.1786   3.2809   4.2727   4.3898

          k =-0.4255 0.2457 0.2492 (  5079 PWs)   bands (ev):

   -33.6529 -33.6465 -17.1400 -16.9870 -15.1259 -15.1000 -14.7640 -14.7028
   -14.6854 -14.6518 -13.7824 -13.7242 -13.4370 -13.3963  -3.0876  -2.9129
    -1.5232  -1.3752  -1.3364  -1.1967  -1.1084  -0.7600   2.1680   2.4001
     2.5192   2.7303   2.7384   2.9830   3.0117   3.3709   4.1901   4.3570

          k =-0.5674 0.1638 0.2907 (  5089 PWs)   bands (ev):

   -33.6520 -33.6473 -17.1394 -16.9815 -15.1647 -15.0940 -14.7826 -14.7186
   -14.6574 -14.6076 -13.8604 -13.7015 -13.4405 -13.3584  -3.0672  -2.8450
    -1.5316  -1.3858  -1.2980  -1.1849  -1.0103  -0.8018   2.0612   2.3258
     2.5021   2.7027   2.7307   2.8275   3.0969   3.3174   4.2085   4.4402

          k = 0.5674 0.8189-0.0415 (  5097 PWs)   bands (ev):

   -33.6508 -33.6483 -17.1088 -17.0121 -15.1427 -15.0391 -14.8407 -14.7727
   -14.6697 -14.6154 -13.8209 -13.6512 -13.4690 -13.3735  -2.9871  -2.8432
    -1.4842  -1.4433  -1.3158  -1.1795  -0.9056  -0.8175   2.0558   2.2453
     2.5031   2.5926   2.6965   2.7174   3.1719   3.2722   4.2985   4.4572

          k = 0.4255 0.7370 0.0000 (  5071 PWs)   bands (ev):

   -33.6495 -33.6495 -17.0603 -17.0601 -15.0872 -15.0527 -14.8827 -14.7948
   -14.6778 -14.6203 -13.7162 -13.7090 -13.4309 -13.4275  -2.8985  -2.8980
    -1.5078  -1.3958  -1.3406  -1.1811  -0.8782  -0.8306   2.1543   2.1660
     2.4824   2.4999   2.6816   2.7181   3.2045   3.2479   4.3998   4.4034

          k =-0.5674 0.3276 0.3322 (  5086 PWs)   bands (ev):

   -33.6518 -33.6474 -17.1585 -16.9557 -15.1799 -15.1741 -14.7094 -14.6882
   -14.6559 -14.5549 -13.9111 -13.8110 -13.3761 -13.3352  -3.1043  -2.7765
    -1.5717  -1.3625  -1.2513  -1.1725  -0.9727  -0.8447   1.9641   2.2771
     2.5187   2.7495   2.7552   2.7659   3.1302   3.2946   4.1595   4.4981

          k = 0.5674 0.9827 0.0000 (  5094 PWs)   bands (ev):

   -33.6514 -33.6477 -17.1470 -16.9685 -15.1735 -15.1468 -14.7347 -14.6830
   -14.6788 -14.5810 -13.9010 -13.7645 -13.3958 -13.3388  -3.0716  -2.7772
    -1.5525  -1.3901  -1.2646  -1.1710  -0.9358  -0.8345   1.9626   2.2539
     2.5265   2.6879   2.7239   2.7320   3.1680   3.2739   4.1980   4.5064

          k = 0.0000 0.0000 0.1246 (  5110 PWs)   bands (ev):

   -33.6560 -33.6441 -17.0833 -17.0746 -15.0905 -15.0905 -14.7418 -14.7418
   -14.6254 -14.5252 -13.8723 -13.8723 -13.3665 -13.3665  -3.2883  -3.0319
    -1.6394  -1.5115  -1.5115  -1.2646  -1.2646  -0.4291   2.3881   2.3881
     2.7962   2.7962   3.0042   3.0042   3.5755   3.5755   3.8113   4.2122

          k =-0.1418-0.0819 0.1661 (  5116 PWs)   bands (ev):

   -33.6554 -33.6446 -17.0825 -17.0719 -15.1015 -15.0317 -14.8273 -14.7148
   -14.6422 -14.5732 -13.8650 -13.7434 -13.4385 -13.3661  -3.2397  -3.0424
    -1.5822  -1.4917  -1.4528  -1.2849  -1.2672  -0.4983   2.4165   2.4453
     2.7327   2.7825   2.8965   2.9872   3.4789   3.5071   3.9238   4.2117

          k =-0.2837-0.1638 0.2076 (  5092 PWs)   bands (ev):

   -33.6540 -33.6457 -17.0901 -17.0533 -15.0983 -14.9527 -14.9518 -14.7142
   -14.6687 -14.6062 -13.8013 -13.5967 -13.5536 -13.3895  -3.1340  -3.0259
    -1.5169  -1.4433  -1.3328  -1.2802  -1.2704  -0.6183   2.4281   2.5483
     2.6282   2.6572   2.7683   2.8922   3.3200   3.3668   4.1140   4.2385

          k =-0.4255-0.2457 0.2492 (  5091 PWs)   bands (ev):

   -33.6521 -33.6473 -17.0774 -17.0535 -15.0689 -15.0179 -14.9250 -14.8145
   -14.6359 -14.6091 -13.7107 -13.6089 -13.5415 -13.4339  -3.0372  -2.9645
    -1.4841  -1.4396  -1.2956  -1.2496  -1.1086  -0.7361   2.3219   2.3653
     2.5713   2.6126   2.7816   2.8743   3.1676   3.2303   4.2543   4.2966

          k = 0.7092 0.4095-0.0831 (  5098 PWs)   bands (ev):

   -33.6499 -33.6493 -17.0790 -17.0429 -15.0635 -14.9973 -14.9457 -14.8848
   -14.6316 -14.5945 -13.6587 -13.6152 -13.5301 -13.4671  -2.9941  -2.8925
    -1.5111  -1.4441  -1.2613  -1.1909  -0.9386  -0.8670   2.1501   2.2413
     2.5212   2.6205   2.7964   2.9402   3.0661   3.1629   4.2938   4.3724

          k = 0.5674 0.3276-0.0415 (  5095 PWs)   bands (ev):

   -33.6513 -33.6479 -17.1092 -17.0090 -15.0948 -15.0485 -14.9082 -14.8316
   -14.6453 -14.5781 -13.7242 -13.6103 -13.5082 -13.4431  -3.0037  -2.8791
    -1.5553  -1.3750  -1.2608  -1.1799  -1.0454  -0.8075   2.0958   2.2997
     2.4936   2.6526   2.7429   2.9699   3.0655   3.2038   4.2664   4.4020

          k = 0.4255 0.2457 0.0000 (  5074 PWs)   bands (ev):

   -33.6533 -33.6461 -17.1206 -17.0050 -15.1094 -15.0244 -14.9076 -14.7585
   -14.6593 -14.6110 -13.7571 -13.5875 -13.5408 -13.4158  -3.0283  -2.9611
    -1.5399  -1.3777  -1.2737  -1.2395  -1.2144  -0.6958   2.2455   2.4300
     2.5676   2.6596   2.6695   2.9134   3.1700   3.3205   4.2432   4.3168

          k = 0.2837 0.1638 0.0415 (  5085 PWs)   bands (ev):

   -33.6549 -33.6448 -17.1074 -17.0342 -15.0789 -15.0266 -14.8294 -14.7542
   -14.6661 -14.6538 -13.7730 -13.6601 -13.4867 -13.4063  -3.1063  -3.0350
    -1.5403  -1.4426  -1.4186  -1.2920  -1.2267  -0.5686   2.4477   2.4804
     2.6525   2.6607   2.7623   2.8650   3.3308   3.4497   4.1249   4.2382

          k =-0.1418 0.0819 0.2076 (  5102 PWs)   bands (ev):

   -33.6550 -33.6449 -17.0852 -17.0700 -15.0791 -15.0422 -14.8221 -14.7325
   -14.6283 -14.6055 -13.8047 -13.7621 -13.4276 -13.3988  -3.2323  -3.0608
    -1.5435  -1.4740  -1.4614  -1.2971  -1.2608  -0.5303   2.4198   2.4610
     2.7143   2.7475   2.9366   3.0126   3.4261   3.5260   3.9293   4.1951

          k =-0.2837 0.0000 0.2492 (  5086 PWs)   bands (ev):

   -33.6540 -33.6458 -17.0945 -17.0536 -15.0820 -15.0074 -14.8755 -14.7067
   -14.6887 -14.6201 -13.7718 -13.6634 -13.4964 -13.4108  -3.1505  -3.0597
    -1.4889  -1.4531  -1.3827  -1.2798  -1.2543  -0.6247   2.4360   2.5088
     2.6406   2.6892   2.8226   2.9661   3.2855   3.4365   4.0746   4.2079

          k =-0.4255-0.0819 0.2907 (  5084 PWs)   bands (ev):

   -33.6524 -33.6471 -17.0880 -17.0487 -15.0606 -15.0538 -14.8666 -14.7799
   -14.6621 -14.6214 -13.7183 -13.6639 -13.4954 -13.4316  -3.0555  -3.0068
    -1.4618  -1.4186  -1.3694  -1.2444  -1.1293  -0.7240   2.3581   2.4292
     2.5949   2.6230   2.7481   2.9160   3.1434   3.3085   4.2266   4.2635

          k = 0.7092 0.5733-0.0415 (  5086 PWs)   bands (ev):

   -33.6506 -33.6487 -17.0701 -17.0564 -15.0854 -14.9981 -14.9258 -14.8316
   -14.6405 -14.6143 -13.7228 -13.5890 -13.5470 -13.4263  -3.0009  -2.9155
    -1.4885  -1.4273  -1.3184  -1.2050  -0.9661  -0.8186   2.2033   2.2762
     2.5233   2.6054   2.7541   2.9014   3.0904   3.2133   4.2974   4.3539

          k = 0.5674 0.4914 0.0000 (  5096 PWs)   bands (ev):

   -33.6505 -33.6486 -17.1038 -17.0147 -15.1119 -15.0378 -14.9235 -14.7893
   -14.6514 -14.5860 -13.7641 -13.6126 -13.5131 -13.4055  -2.9997  -2.8524
    -1.5506  -1.3660  -1.2937  -1.1779  -0.9516  -0.8444   2.0796   2.2691
     2.4581   2.6261   2.7400   2.8872   3.1175   3.1998   4.2829   4.4291

          k = 0.4255 0.4095 0.0415 (  5085 PWs)   bands (ev):

   -33.6523 -33.6469 -17.1244 -16.9942 -15.1452 -15.0356 -14.9139 -14.7283
   -14.6690 -14.5791 -13.8117 -13.5937 -13.5275 -13.3846  -3.0237  -2.8830
    -1.5547  -1.3462  -1.2644  -1.2134  -1.1168  -0.7574   2.1210   2.4041
     2.4534   2.6372   2.6891   2.9229   3.1216   3.2766   4.2496   4.4081

          k = 0.2837 0.3276 0.0831 (  5090 PWs)   bands (ev):

   -33.6539 -33.6456 -17.1195 -17.0117 -15.0952 -15.0457 -14.8571 -14.7440
   -14.6706 -14.6371 -13.7457 -13.6621 -13.4799 -13.4218  -3.0375  -3.0048
    -1.5202  -1.3848  -1.3653  -1.2477  -1.2118  -0.6587   2.3302   2.4734
     2.5975   2.6166   2.6977   2.8837   3.2059   3.3802   4.2396   4.2658

          k =-0.2837 0.1638 0.2907 (  5085 PWs)   bands (ev):

   -33.6535 -33.6462 -17.1103 -17.0352 -15.0886 -15.0007 -14.8410 -14.7448
   -14.7028 -14.6312 -13.7222 -13.6724 -13.4779 -13.4493  -3.0891  -3.0872
    -1.4655  -1.4134  -1.4089  -1.2389  -1.2212  -0.6880   2.4298   2.4400
     2.6368   2.6594   2.8247   3.0021   3.1657   3.4325   4.1464   4.1879

          k =-0.4255 0.0819 0.3322 (  5086 PWs)   bands (ev):

   -33.6524 -33.6471 -17.1150 -17.0220 -15.1097 -15.0251 -14.8122 -14.7655
   -14.6898 -14.6341 -13.7405 -13.6766 -13.4649 -13.4349  -3.0699  -2.9975
    -1.4700  -1.4049  -1.3670  -1.2267  -1.1044  -0.7590   2.2959   2.4008
     2.5849   2.6875   2.7687   2.9453   3.0669   3.3570   4.2117   4.2724

          k = 0.7092 0.7370 0.0000 (  5097 PWs)   bands (ev):

   -33.6510 -33.6482 -17.0930 -17.0365 -15.1081 -15.0091 -14.8553 -14.8023
   -14.6586 -14.6475 -13.7618 -13.6157 -13.5076 -13.4104  -2.9882  -2.9419
    -1.4448  -1.4396  -1.3551  -1.2096  -0.9635  -0.8040   2.1884   2.2869
     2.5574   2.6133   2.7292   2.8242   3.1033   3.2740   4.2951   4.3556

          k = 0.5674 0.6552 0.0415 (  5081 PWs)   bands (ev):

   -33.6495 -33.6495 -17.0730 -17.0499 -15.0942 -15.0171 -14.9166 -14.7802
   -14.6699 -14.6324 -13.7483 -13.6379 -13.4898 -13.4068  -2.9431  -2.8890
    -1.5111  -1.3824  -1.3429  -1.1945  -0.8692  -0.8520   2.1423   2.1908
     2.4903   2.5678   2.7043   2.7633   3.1671   3.2333   4.3557   4.4022

          k = 0.4255 0.5733 0.0831 (  5082 PWs)   bands (ev):

   -33.6510 -33.6481 -17.1052 -17.0125 -15.1388 -15.0133 -14.9487 -14.7158
   -14.6756 -14.5963 -13.8191 -13.6015 -13.5169 -13.3723  -2.9767  -2.8518
    -1.5432  -1.3627  -1.2839  -1.2080  -0.9782  -0.7953   2.0914   2.2942
     2.4367   2.5550   2.6899   2.8001   3.1873   3.2430   4.3086   4.4507

          k = 0.2837 0.4914 0.1246 (  5084 PWs)   bands (ev):

   -33.6523 -33.6470 -17.1141 -17.0075 -15.1379 -15.0068 -14.9295 -14.7478
   -14.6558 -14.5949 -13.7984 -13.6077 -13.5134 -13.3921  -3.0035  -2.9147
    -1.5281  -1.3724  -1.2953  -1.2147  -1.1093  -0.7427   2.1835   2.4111
     2.4989   2.5563   2.6875   2.8738   3.1499   3.2929   4.2749   4.3855

          k =-0.4255 0.2457 0.3737 (  5090 PWs)   bands (ev):

   -33.6520 -33.6473 -17.1372 -16.9928 -15.1507 -15.0713 -14.7466 -14.7219
   -14.7049 -14.6185 -13.7786 -13.7569 -13.4132 -13.4043  -3.1045  -2.9056
    -1.5252  -1.3714  -1.3071  -1.2130  -1.0424  -0.8135   2.1614   2.3582
     2.5683   2.7425   2.7673   2.8899   3.0488   3.3410   4.1782   4.3614

          k = 0.7092 0.9008 0.0415 (  5088 PWs)   bands (ev):

   -33.6513 -33.6479 -17.1337 -16.9904 -15.1509 -15.0974 -14.7589 -14.7084
   -14.6759 -14.6367 -13.8208 -13.7424 -13.4122 -13.3792  -3.0705  -2.8460
    -1.5287  -1.3885  -1.2853  -1.2043  -0.9578  -0.8302   2.0655   2.2911
     2.5534   2.7146   2.7291   2.7762   3.1116   3.2895   4.2110   4.4350

          k = 0.5674 0.8189 0.0831 (  5090 PWs)   bands (ev):

   -33.6505 -33.6486 -17.1018 -17.0210 -15.1192 -15.0549 -14.8135 -14.7826
   -14.6784 -14.6412 -13.7847 -13.6774 -13.4493 -13.3921  -2.9797  -2.8518
    -1.4861  -1.4437  -1.3005  -1.2014  -0.8826  -0.8250   2.0660   2.2194
     2.5313   2.5985   2.6832   2.7082   3.1818   3.2524   4.3097   4.4462

          k = 0.4255 0.7370 0.1246 (  5088 PWs)   bands (ev):

   -33.6495 -33.6495 -17.0602 -17.0601 -15.0800 -15.0631 -14.8624 -14.8202
   -14.6586 -14.6313 -13.7144 -13.7108 -13.4300 -13.4284  -2.8984  -2.8981
    -1.4912  -1.4448  -1.2814  -1.2116  -0.8643  -0.8408   2.1571   2.1630
     2.4869   2.4957   2.6900   2.7082   3.2160   3.2377   4.4007   4.4025

          k = 0.2837 0.6552 0.1661 (  5093 PWs)   bands (ev):

   -33.6505 -33.6486 -17.0822 -17.0369 -15.1030 -15.0215 -14.9235 -14.8189
   -14.6364 -14.6077 -13.7479 -13.6384 -13.4856 -13.4140  -2.9381  -2.8918
    -1.5051  -1.4372  -1.2463  -1.2209  -0.9444  -0.8219   2.1513   2.2560
     2.4724   2.4969   2.7239   2.7882   3.1846   3.2291   4.3489   4.4102

          k = 0.7092-0.4095-0.2907 (  5080 PWs)   bands (ev):

   -33.6514 -33.6477 -17.1534 -16.9627 -15.1821 -15.1566 -14.7094 -14.6888
   -14.6791 -14.5557 -13.8807 -13.8230 -13.3693 -13.3491  -3.1031  -2.7797
    -1.5725  -1.3599  -1.2333  -1.1984  -0.9488  -0.8566   1.9743   2.2674
     2.5430   2.6981   2.7623   2.7930   3.1329   3.2695   4.1665   4.4913

          k = 0.5674-0.4914-0.2492 (  5084 PWs)   bands (ev):

   -33.6513 -33.6478 -17.1418 -16.9741 -15.1672 -15.1336 -14.7719 -14.6879
   -14.6710 -14.5832 -13.8844 -13.7421 -13.4111 -13.3450  -3.0630  -2.7863
    -1.5582  -1.3782  -1.2464  -1.1992  -0.9409  -0.8312   1.9771   2.2630
     2.4964   2.6941   2.7176   2.7676   3.1608   3.2591   4.2094   4.4968

          k = 0.4255-0.5733-0.2076 (  5089 PWs)   bands (ev):

   -33.6510 -33.6481 -17.1099 -17.0091 -15.1486 -15.0257 -14.8994 -14.7425
   -14.6577 -14.6055 -13.8349 -13.6178 -13.4995 -13.3653  -2.9860  -2.8430
    -1.5179  -1.4131  -1.2727  -1.2098  -0.9403  -0.8048   2.0660   2.2738
     2.4635   2.5783   2.6894   2.7647   3.1761   3.2653   4.2984   4.4588

          k = 0.5674-0.3276-0.2076 (  5079 PWs)   bands (ev):

   -33.6519 -33.6473 -17.1521 -16.9618 -15.1697 -15.1558 -14.7525 -14.6843
   -14.6839 -14.5515 -13.8870 -13.7618 -13.4027 -13.3469  -3.0864  -2.7937
    -1.5747  -1.3497  -1.2361  -1.2019  -1.0061  -0.8235   1.9834   2.3122
     2.4645   2.7257   2.7478   2.8580   3.1048   3.2854   4.1780   4.4831

          k = 0.4255-0.4095-0.1661 (  5094 PWs)   bands (ev):

   -33.6523 -33.6469 -17.1361 -16.9826 -15.1640 -15.0722 -14.8489 -14.7018
   -14.6700 -14.5850 -13.8568 -13.6471 -13.4821 -13.3603  -3.0508  -2.8575
    -1.5463  -1.3650  -1.2771  -1.2062  -1.0663  -0.7746   2.0810   2.3813
     2.4541   2.6708   2.7069   2.9023   3.0948   3.3100   4.2227   4.4308

          k = 0.4255-0.2457-0.1246 (  5088 PWs)   bands (ev):

   -33.6533 -33.6461 -17.1341 -16.9911 -15.1138 -15.0825 -14.8324 -14.7084
   -14.6841 -14.6305 -13.7826 -13.6559 -13.4838 -13.3978  -3.0608  -2.9316
    -1.5319  -1.3746  -1.3255  -1.2117  -1.1652  -0.7178   2.1967   2.4557
     2.4941   2.6838   2.7123   2.9689   3.0861   3.3623   4.2138   4.3414

          k = 0.0000 0.0000 0.2492 (  5115 PWs)   bands (ev):

   -33.6549 -33.6452 -17.0832 -17.0762 -15.0672 -15.0672 -14.7893 -14.7893
   -14.6150 -14.5334 -13.8105 -13.8105 -13.4045 -13.4045  -3.2789  -3.0770
    -1.5119  -1.4887  -1.4887  -1.2876  -1.2876  -0.5308   2.4267   2.4267
     2.7557   2.7557   3.0544   3.0544   3.5145   3.5145   3.8437   4.1664

          k =-0.1418-0.0819 0.2907 (  5099 PWs)   bands (ev):

   -33.6541 -33.6459 -17.0810 -17.0750 -15.0888 -14.9943 -14.8924 -14.7456
   -14.6285 -14.5652 -13.8216 -13.6807 -13.4916 -13.3933  -3.2332  -3.0824
    -1.4903  -1.4706  -1.3851  -1.2981  -1.2957  -0.6071   2.4486   2.4781
     2.6997   2.7237   2.9552   3.0616   3.3917   3.4603   3.9468   4.1685

          k =-0.2837-0.1638 0.3322 (  5085 PWs)   bands (ev):

   -33.6527 -33.6470 -17.0782 -17.0676 -15.0916 -14.9898 -14.9255 -14.7034
   -14.6868 -14.5903 -13.7841 -13.5835 -13.5744 -13.4011  -3.1446  -3.0380
    -1.4549  -1.4408  -1.3396  -1.2973  -1.1874  -0.7081   2.4165   2.5386
     2.6261   2.6493   2.7803   3.0076   3.2200   3.3300   4.1132   4.2215

          k = 0.8511 0.4914 0.0000 (  5094 PWs)   bands (ev):

   -33.6510 -33.6484 -17.0812 -17.0521 -15.1069 -14.9712 -14.9481 -14.7703
   -14.6624 -14.5922 -13.7577 -13.5924 -13.5561 -13.4064  -3.0720  -2.9391
    -1.4803  -1.4174  -1.3240  -1.2425  -1.0222  -0.7983   2.2610   2.3852
     2.5690   2.6471   2.7296   3.0082   3.0682   3.2125   4.2230   4.3191

          k = 0.7092 0.4095 0.0415 (  5093 PWs)   bands (ev):

   -33.6501 -33.6491 -17.1115 -17.0097 -15.1220 -15.0648 -14.8550 -14.8041
   -14.6561 -14.5734 -13.7340 -13.7142 -13.4495 -13.4159  -3.0448  -2.8418
    -1.5513  -1.3600  -1.3046  -1.1806  -0.9044  -0.8933   2.0739   2.2823
     2.4866   2.6834   2.7414   2.9692   3.0501   3.1814   4.2412   4.4223

          k = 0.5674 0.3276 0.0831 (  5081 PWs)   bands (ev):

   -33.6518 -33.6474 -17.1350 -16.9805 -15.1429 -15.1111 -14.8251 -14.7500
   -14.6679 -14.5588 -13.8177 -13.6899 -13.4476 -13.3836  -3.0515  -2.8294
    -1.5737  -1.3324  -1.2594  -1.1976  -1.0416  -0.8064   2.0296   2.3381
     2.4450   2.7093   2.7142   2.9704   3.0504   3.2512   4.2168   4.4490

          k =-0.1418 0.0819 0.3322 (  5081 PWs)   bands (ev):

   -33.6536 -33.6464 -17.0851 -17.0719 -15.0696 -14.9938 -14.8890 -14.7772
   -14.6127 -14.5914 -13.7683 -13.6795 -13.4914 -13.4281  -3.2206  -3.1067
    -1.4734  -1.4438  -1.3738  -1.2998  -1.2887  -0.6570   2.4582   2.5001
     2.6631   2.7073   2.9920   3.0943   3.3372   3.4617   3.9595   4.1452

          k =-0.2837 0.0000 0.3737 (  5084 PWs)   bands (ev):

   -33.6526 -33.6472 -17.0885 -17.0619 -15.0730 -15.0026 -14.8891 -14.7538
   -14.6550 -14.6091 -13.7405 -13.6425 -13.5188 -13.4359  -3.1467  -3.0890
    -1.4409  -1.4242  -1.3747  -1.2860  -1.1860  -0.7388   2.4486   2.5085
     2.6222   2.6581   2.8849   3.0548   3.1954   3.3754   4.0891   4.1747

          k = 0.8511 0.6552 0.0415 (  5094 PWs)   bands (ev):

   -33.6512 -33.6483 -17.0710 -17.0688 -15.0768 -15.0341 -14.8665 -14.7524
   -14.6848 -14.6227 -13.7314 -13.6456 -13.5088 -13.4273  -3.0716  -3.0040
    -1.4473  -1.3875  -1.3843  -1.2613  -1.0322  -0.8050   2.3344   2.3957
     2.6295   2.6347   2.7477   2.9679   3.1125   3.2566   4.2140   4.2649

          k = 0.7092 0.5733 0.0831 (  5088 PWs)   bands (ev):

   -33.6496 -33.6496 -17.0972 -17.0306 -15.1113 -15.0319 -14.8814 -14.7614
   -14.6651 -14.6222 -13.7536 -13.6664 -13.4813 -13.4048  -3.0357  -2.8836
    -1.5185  -1.3545  -1.3448  -1.2152  -0.9058  -0.8636   2.1434   2.2800
     2.5399   2.6544   2.7167   2.8799   3.1259   3.1924   4.2602   4.3877

          k = 0.5674 0.4914 0.1246 (  5088 PWs)   bands (ev):

   -33.6510 -33.6482 -17.1269 -16.9903 -15.1470 -15.0961 -14.8448 -14.7134
   -14.6736 -14.5813 -13.8362 -13.6850 -13.4527 -13.3665  -3.0381  -2.8125
    -1.5634  -1.3471  -1.2726  -1.2026  -0.9526  -0.8301   2.0183   2.2793
     2.4569   2.6744   2.7166   2.8429   3.1387   3.2273   4.2401   4.4695

          k =-0.2837 0.1638 0.4153 (  5084 PWs)   bands (ev):

   -33.6520 -33.6477 -17.1050 -17.0427 -15.1017 -14.9507 -14.8996 -14.7704
   -14.6672 -14.6107 -13.7418 -13.6196 -13.5254 -13.4415  -3.1177  -3.0789
    -1.4652  -1.3920  -1.3562  -1.2721  -1.1210  -0.7993   2.4189   2.4471
     2.6326   2.6523   2.8856   3.0684   3.0807   3.3661   4.1581   4.1619

          k = 0.8511 0.8189 0.0831 (  5089 PWs)   bands (ev):

   -33.6512 -33.6483 -17.1040 -17.0359 -15.1081 -15.0111 -14.8347 -14.7581
   -14.6845 -14.6353 -13.7386 -13.6693 -13.4746 -13.4359  -3.0795  -2.9994
    -1.4708  -1.3941  -1.3298  -1.2634  -1.0090  -0.8404   2.2972   2.3790
     2.6080   2.6811   2.8154   2.8950   3.1016   3.2923   4.2049   4.2705

          k = 0.7092 0.7370 0.1246 (  5086 PWs)   bands (ev):

   -33.6501 -33.6491 -17.0759 -17.0563 -15.0771 -15.0401 -14.8142 -14.7987
   -14.6800 -14.6749 -13.7186 -13.6664 -13.4690 -13.4349  -2.9750  -2.9591
    -1.4506  -1.4448  -1.3089  -1.2485  -0.9002  -0.8478   2.2056   2.2381
     2.5999   2.6297   2.7322   2.7688   3.1539   3.2209   4.3135   4.3347

          k = 0.5674 0.6552 0.1661 (  5088 PWs)   bands (ev):

   -33.6500 -33.6491 -17.0894 -17.0341 -15.0897 -15.0605 -14.8631 -14.7543
   -14.6761 -14.6578 -13.7553 -13.6728 -13.4598 -13.4032  -2.9645  -2.8677
    -1.5067  -1.4196  -1.2681  -1.2416  -0.8718  -0.8340   2.0967   2.2010
     2.5167   2.5968   2.6860   2.7289   3.1977   3.2184   4.3300   4.4271

          k = 0.8511-0.4914-0.2492 (  5082 PWs)   bands (ev):

   -33.6509 -33.6485 -17.1257 -17.0072 -15.1553 -15.0325 -14.8228 -14.7194
   -14.6869 -14.5949 -13.8050 -13.7113 -13.4478 -13.3880  -3.1081  -2.9085
    -1.5244  -1.3616  -1.2694  -1.2641  -0.9645  -0.8740   2.1764   2.3485
     2.6096   2.7235   2.7406   2.8885   3.0867   3.2755   4.1809   4.3546

          k = 0.7092-0.5733-0.2076 (  5084 PWs)   bands (ev):

   -33.6505 -33.6487 -17.1192 -17.0076 -15.1318 -15.0762 -14.8100 -14.7043
   -14.6795 -14.6457 -13.7612 -13.7505 -13.4212 -13.3999  -3.0598  -2.8596
    -1.5298  -1.3773  -1.2645  -1.2477  -0.9099  -0.8616   2.0941   2.2791
     2.5716   2.6793   2.7116   2.8174   3.1354   3.2298   4.2297   4.4163

          k = 0.7092-0.4095-0.1661 (  5085 PWs)   bands (ev):

   -33.6508 -33.6484 -17.1373 -16.9817 -15.1624 -15.1192 -14.7642 -14.7397
   -14.6730 -14.5598 -13.8082 -13.7939 -13.3880 -13.3827  -3.0825  -2.8025
    -1.5696  -1.3414  -1.2683  -1.2001  -0.9301  -0.8675   2.0126   2.2796
     2.5064   2.7106   2.7341   2.8684   3.1151   3.2184   4.1961   4.4642

          k = 0.0000 0.0000 0.3737 (  5094 PWs)   bands (ev):

   -33.6532 -33.6469 -17.0828 -17.0783 -15.0293 -15.0293 -14.8520 -14.8520
   -14.5996 -14.5464 -13.7257 -13.7257 -13.4648 -13.4648  -3.2604  -3.1331
    -1.4537  -1.4537  -1.3267  -1.3226  -1.3226  -0.6898   2.4853   2.4853
     2.6985   2.6985   3.1280   3.1280   3.4253   3.4253   3.8940   4.1016

          k =-0.1418-0.0819 0.4153 (  5088 PWs)   bands (ev):

   -33.6524 -33.6476 -17.0792 -17.0785 -15.0605 -14.9519 -14.9485 -14.8002
   -14.6107 -14.5679 -13.7500 -13.6111 -13.5576 -13.4417  -3.2181  -3.1280
    -1.4405  -1.4250  -1.3416  -1.3377  -1.2106  -0.7646   2.4928   2.5267
     2.6547   2.6576   3.0345   3.1553   3.2870   3.3837   3.9832   4.1136

          k = 0.9929 0.5733 0.0831 (  5087 PWs)   bands (ev):

   -33.6511 -33.6486 -17.0823 -17.0656 -15.0925 -14.9900 -14.9087 -14.7466
   -14.6629 -14.5863 -13.7637 -13.5922 -13.5662 -13.4191  -3.1470  -3.0536
    -1.4448  -1.3853  -1.3530  -1.3178  -1.0662  -0.8335   2.4113   2.5062
     2.6206   2.6456   2.8444   3.1132   3.1237   3.2723   4.1191   4.2007

          k = 0.8511 0.4914 0.1246 (  5095 PWs)   bands (ev):

   -33.6497 -33.6497 -17.1063 -17.0278 -15.1400 -14.9895 -14.9006 -14.7287
   -14.6816 -14.5864 -13.7961 -13.6534 -13.4973 -13.3890  -3.0969  -2.9201
    -1.5100  -1.3459  -1.3383  -1.2467  -0.9430  -0.8790   2.2105   2.3648
     2.6086   2.6880   2.7052   2.9676   3.0996   3.2063   4.1970   4.3393

          k =-0.1418 0.0819 0.4568 (  5073 PWs)   bands (ev):

   -33.6517 -33.6482 -17.0839 -17.0744 -15.0470 -14.9529 -14.9359 -14.8325
   -14.5951 -14.5874 -13.7106 -13.5949 -13.5690 -13.4743  -3.2002  -3.1531
    -1.4314  -1.4079  -1.3670  -1.3274  -1.1532  -0.8268   2.5129   2.5467
     2.6103   2.6523   3.0735   3.1867   3.2357   3.3702   4.0031   4.0876

          k = 0.9929 0.7370 0.1246 (  5090 PWs)   bands (ev):

   -33.6508 -33.6490 -17.0806 -17.0713 -15.0536 -15.0261 -14.8582 -14.8077
   -14.6274 -14.6111 -13.6994 -13.6586 -13.5061 -13.4706  -3.1358  -3.1161
    -1.4188  -1.4019  -1.3602  -1.3215  -1.0429  -0.8844   2.4711   2.4963
     2.6154   2.6326   2.9678   3.0572   3.1944   3.2886   4.1114   4.1408

          k = 0.8511 0.6552 0.1661 (  5086 PWs)   bands (ev):

   -33.6497 -33.6497 -17.0881 -17.0530 -15.0962 -15.0144 -14.8554 -14.7529
   -14.6773 -14.6360 -13.7383 -13.6512 -13.4983 -13.4292  -3.0802  -3.0018
    -1.4633  -1.3906  -1.3200  -1.2894  -0.9339  -0.9046   2.3109   2.3782
     2.6306   2.6554   2.7938   2.9116   3.1648   3.2133   4.2059   4.2674

          k = 0.9929-0.5733-0.2076 (  5085 PWs)   bands (ev):

   -33.6503 -33.6494 -17.0953 -17.0533 -15.1011 -14.9535 -14.9136 -14.7760
   -14.6535 -14.5940 -13.7524 -13.5808 -13.5691 -13.4337  -3.1381  -3.0679
    -1.4555  -1.3712  -1.3330  -1.3217  -0.9796  -0.9309   2.4128   2.4709
     2.6247   2.6466   2.9139   3.0289   3.1541   3.2786   4.1340   4.1803

          k = 0.0000 0.0000 0.4983 (  5058 PWs)   bands (ev):

   -33.6512 -33.6489 -17.0819 -17.0803 -14.9785 -14.9785 -14.9178 -14.9178
   -14.5814 -14.5629 -13.6328 -13.6328 -13.5430 -13.5430  -3.2299  -3.1867
    -1.4109  -1.4109  -1.3654  -1.3654  -1.1107  -0.8902   2.5560   2.5560
     2.6298   2.6298   3.2197   3.2197   3.3224   3.3224   3.9575   4.0290

          k = 1.1348 0.6552 0.1661 (  5086 PWs)   bands (ev):

   -33.6503 -33.6497 -17.0816 -17.0770 -15.0269 -14.9918 -14.9013 -14.8591
   -14.5953 -14.5789 -13.6740 -13.6212 -13.5491 -13.5015  -3.1915  -3.1690
    -1.4101  -1.3773  -1.3773  -1.3675  -1.0208  -0.9545   2.5431   2.5701
     2.5995   2.6103   3.1242   3.1826   3.2542   3.2957   4.0315   4.0562

     highest occupied level (ev):     4.5064

!    total energy              =    -367.43037488 Ry
     estimated scf accuracy    <          5.9E-09 Ry

     The total energy is the sum of the following terms:
     one-electron contribution =    -147.82765383 Ry
     hartree contribution      =     103.36339692 Ry
     xc contribution           =     -75.28678308 Ry
     ewald contribution        =    -247.67933488 Ry

     convergence has been achieved in  10 iterations

     Forces acting on atoms (cartesian axes, Ry/au):

     atom    1 type  1   force =    -0.00000000   -0.00000000   -0.00000000
     atom    2 type  1   force =     0.00000000   -0.00000000   -0.00000000
     atom    3 type  2   force =     0.00000000    0.00000000    0.00000000
     atom    4 type  2   force =     0.00000000    0.00000000    0.00000000
     atom    5 type  3   force =     0.00165630   -0.00286880   -0.00000000
     atom    6 type  3   force =    -0.00331260    0.00000000   -0.00000000
     atom    7 type  3   force =     0.00165630    0.00286880    0.00000000
     atom    8 type  3   force =     0.00331260   -0.00000000    0.00000000
     atom    9 type  3   force =    -0.00165630   -0.00286880   -0.00000000
     atom   10 type  3   force =    -0.00165630    0.00286880    0.00000000

     Total force =     0.008114     Total SCF correction =     0.000016


     Computing stress (Cartesian axis) and pressure

          total   stress  (Ry/bohr**3)                   (kbar)     P=        3.54
   0.00003344   0.00000000  -0.00000000            4.92        0.00       -0.00
  -0.00000000   0.00003344   0.00000000           -0.00        4.92        0.00
   0.00000000   0.00000000   0.00000524            0.00        0.00        0.77


     Writing all to output data dir ./cco.save/
 
     init_run     :     58.81s CPU     60.38s WALL (       1 calls)
     electrons    :   1883.64s CPU   1919.74s WALL (       1 calls)
     forces       :      8.48s CPU      8.83s WALL (       1 calls)
     stress       :     50.39s CPU     50.88s WALL (       1 calls)

     Called by init_run:
     wfcinit      :     53.31s CPU     54.21s WALL (       1 calls)
     potinit      :      1.22s CPU      1.39s WALL (       1 calls)
     hinit0       :      2.62s CPU      2.78s WALL (       1 calls)

     Called by electrons:
     c_bands      :   1685.84s CPU   1716.72s WALL (      10 calls)
     sum_band     :    173.71s CPU    177.06s WALL (      10 calls)
     v_of_rho     :     10.94s CPU     11.30s WALL (      11 calls)
     newd         :     14.65s CPU     16.23s WALL (      11 calls)
     mix_rho      :      0.47s CPU      0.49s WALL (      10 calls)

     Called by c_bands:
     init_us_2    :     20.12s CPU     20.26s WALL (    1955 calls)
     init_us_2:cp :     20.05s CPU     20.22s WALL (    1955 calls)
     ccgdiagg     :   1403.51s CPU   1430.37s WALL (     850 calls)
     wfcrot       :    321.30s CPU    324.42s WALL (     850 calls)

     Called by *cgdiagg:
     h_psi        :   1330.35s CPU   1348.76s WALL (   81791 calls)
     s_psi        :    213.91s CPU    221.78s WALL (  162732 calls)

     Called by h_psi:
     h_psi:calbec :    109.82s CPU    112.98s WALL (   81791 calls)
     vloc_psi     :   1102.27s CPU   1114.65s WALL (   81791 calls)
     add_vuspsi   :    110.93s CPU    114.76s WALL (   81791 calls)
     hs_1psi      :   1136.60s CPU   1154.37s WALL (   80941 calls)
     s_1psi       :    210.78s CPU    216.20s WALL (   80941 calls)

     General routines
     calbec       :    215.88s CPU    224.76s WALL (  164007 calls)
     fft          :      2.67s CPU      2.70s WALL (     166 calls)
     ffts         :      0.09s CPU      0.09s WALL (      21 calls)
     fftw         :   1055.20s CPU   1063.02s WALL (  246882 calls)
     interpolate  :      0.27s CPU      0.29s WALL (      11 calls)
 
     Parallel routines
 
     PWSCF        :  33m22.78s CPU  34m 6.96s WALL

 
   This run was terminated on:  15:47:44  28Apr2022            

=------------------------------------------------------------------------------=
   JOB DONE.
=------------------------------------------------------------------------------=
