
     Program PWSCF v.7.0 starts on 28Apr2022 at 15:11:12 

     This program is part of the open-source Quantum ESPRESSO suite
     for quantum simulation of materials; please cite
         "P. Giannozzi et al., J. Phys.:Condens. Matter 21 395502 (2009);
         "P. Giannozzi et al., J. Phys.:Condens. Matter 29 465901 (2017);
         "P. Giannozzi et al., J. Chem. Phys. 152 154105 (2020);
          URL http://www.quantum-espresso.org", 
     in publications or presentations arising from this work. More details at
     http://www.quantum-espresso.org/quote

     Parallel version (MPI), running on     1 processors

     MPI processes distributed on     1 nodes
     90342 MiB available memory on the printing compute node when the environment starts
 
     Waiting for input...
     Reading input from standard input
Warning: card &CELL ignored
Warning: card  CELL_DYNAMICS = 'BFGS', ignored
Warning: card  PRESS=0.1D0, ignored
Warning: card / ignored

     Current dimensions of program PWSCF are:
     Max number of different atomic species (ntypx) = 10
     Max number of k-points (npk) =  40000
     Max angular momentum in pseudopotentials (lmaxx) =  4

     Subspace diagonalization in iterative solution of the eigenvalue problem:
     a serial algorithm will be used

 
     G-vector sticks info
     --------------------
     sticks:   dense  smooth     PW     G-vecs:    dense   smooth      PW
     Sum        4243    1703    505               160901    40759    6699
 
     Using Slab Decomposition
 


     bravais-lattice index     =            5
     lattice parameter (alat)  =      12.1600  a.u.
     unit-cell volume          =     852.1729 (a.u.)^3
     number of atoms/cell      =           10
     number of atomic types    =            3
     number of electrons       =        64.00
     number of Kohn-Sham states=           32
     kinetic-energy cutoff     =      50.0000  Ry
     charge density cutoff     =     500.0000  Ry
     scf convergence threshold =      1.0E-08
     mixing beta               =       0.7000
     number of iterations used =            8  plain     mixing
     Exchange-correlation= SLA  PW   PBE  PBE
                           (   1   4   3   4   0   0   0)

     celldm(1)=  12.160000  celldm(2)=   0.000000  celldm(3)=   0.000000
     celldm(4)=   0.693200  celldm(5)=   0.000000  celldm(6)=   0.000000

     crystal axes: (cart. coord. in units of alat)
               a(1) = (   0.391663  -0.226127   0.891889 )  
               a(2) = (   0.000000   0.452254   0.891889 )  
               a(3) = (  -0.391663  -0.226127   0.891889 )  

     reciprocal axes: (cart. coord. in units 2 pi/alat)
               b(1) = (  1.276607 -0.737050  0.373738 )  
               b(2) = (  0.000000  1.474099  0.373738 )  
               b(3) = ( -1.276607 -0.737050  0.373738 )  


     PseudoPot. # 1 for Ca read from file:
     ./Ca_PBE.UPF
     MD5 check sum: 403a4c14b9e4d4dfdc3024c9a3812218
     Pseudo is Ultrasoft + core correction, Zval = 10.0
     Generated by new atomic code, or converted to UPF format
     Using radial grid of  845 points,  6 beta functions with: 
                l(1) =   0
                l(2) =   0
                l(3) =   1
                l(4) =   1
                l(5) =   2
                l(6) =   2
     Q(r) pseudized with  8 coefficients,  rinner =    1.500   1.500   1.500
                                                       1.500   1.500

     PseudoPot. # 2 for C  read from file:
     ./C_PBE.UPF
     MD5 check sum: d1aef80898a10debaa0f26306b886e00
     Pseudo is Ultrasoft + core correction, Zval =  4.0
     Generated by new atomic code, or converted to UPF format
     Using radial grid of  721 points,  4 beta functions with: 
                l(1) =   0
                l(2) =   0
                l(3) =   1
                l(4) =   1
     Q(r) pseudized with  8 coefficients,  rinner =    1.100   1.100   1.100


     PseudoPot. # 3 for O  read from file:
     ./O_PBE.UPF
     MD5 check sum: 734c27235a0248c51dbae37a1fbe46ec
     Pseudo is Ultrasoft + core correction, Zval =  6.0
     Generated by new atomic code, or converted to UPF format
     Using radial grid of  737 points,  5 beta functions with: 
                l(1) =   0
                l(2) =   0
                l(3) =   1
                l(4) =   1
                l(5) =   2
     Q(r) pseudized with  8 coefficients,  rinner =    0.900   0.900   0.900
                                                       0.900   0.900

     atomic species   valence    mass     pseudopotential
        Ca            10.00    40.07800     Ca( 1.00)
        C              4.00    12.01070     C ( 1.00)
        O              6.00    16.00000     O ( 1.00)

     12 Sym. Ops., with inversion, found ( 6 have fractional translation)



   Cartesian axes

     site n.     atom                  positions (alat units)
         1           Ca  tau(   1) = (   0.0000000  -0.0000000   1.3378341  )
         2           Ca  tau(   2) = (   0.0000000   0.0000000   0.0000000  )
         3           C   tau(   3) = (   0.0000000  -0.0000000   0.6689170  )
         4           C   tau(   4) = (   0.0000000  -0.0000000   2.0067511  )
         5           O   tau(   5) = (   0.1006582   0.2779086   1.5608064  )
         6           O   tau(   6) = (   0.1903468  -0.2261268   1.5608064  )
         7           O   tau(   7) = (  -0.2910050  -0.0517817   1.5608064  )
         8           O   tau(   8) = (  -0.1903468   0.2261268   1.1148617  )
         9           O   tau(   9) = (   0.2910050   0.0517817   1.1148617  )
        10           O   tau(  10) = (  -0.1006582  -0.2779086   1.1148617  )

     number of k points=    85
                       cart. coord. in units 2pi/alat
        k(    1) = (   0.0000000   0.0000000   0.0000000), wk =   0.0027435
        k(    2) = (  -0.1418453  -0.0818944   0.0415265), wk =   0.0164609
        k(    3) = (  -0.2836905  -0.1637888   0.0830530), wk =   0.0164609
        k(    4) = (  -0.4255358  -0.2456832   0.1245795), wk =   0.0164609
        k(    5) = (  -0.5673810  -0.3275776   0.1661060), wk =   0.0164609
        k(    6) = (  -0.1418453   0.0818944   0.0830530), wk =   0.0164609
        k(    7) = (  -0.2836905   0.0000000   0.1245795), wk =   0.0329218
        k(    8) = (  -0.4255358  -0.0818944   0.1661060), wk =   0.0329218
        k(    9) = (  -0.5673810  -0.1637888   0.2076325), wk =   0.0329218
        k(   10) = (   0.5673810   0.4913664  -0.1245795), wk =   0.0329218
        k(   11) = (   0.4255358   0.4094720  -0.0830530), wk =   0.0329218
        k(   12) = (   0.2836905   0.3275776  -0.0415265), wk =   0.0329218
        k(   13) = (   0.1418453   0.2456832   0.0000000), wk =   0.0164609
        k(   14) = (  -0.2836905   0.1637888   0.1661060), wk =   0.0164609
        k(   15) = (  -0.4255358   0.0818944   0.2076325), wk =   0.0329218
        k(   16) = (  -0.5673810   0.0000000   0.2491590), wk =   0.0329218
        k(   17) = (   0.5673810   0.6551552  -0.0830530), wk =   0.0329218
        k(   18) = (   0.4255358   0.5732608  -0.0415265), wk =   0.0329218
        k(   19) = (   0.2836905   0.4913664   0.0000000), wk =   0.0164609
        k(   20) = (  -0.4255358   0.2456832   0.2491590), wk =   0.0164609
        k(   21) = (  -0.5673810   0.1637888   0.2906854), wk =   0.0329218
        k(   22) = (   0.5673810   0.8189440  -0.0415265), wk =   0.0329218
        k(   23) = (   0.4255358   0.7370496   0.0000000), wk =   0.0164609
        k(   24) = (  -0.5673810   0.3275776   0.3322119), wk =   0.0164609
        k(   25) = (   0.5673810   0.9827328   0.0000000), wk =   0.0164609
        k(   26) = (   0.0000000   0.0000000   0.1245795), wk =   0.0054870
        k(   27) = (  -0.1418453  -0.0818944   0.1661060), wk =   0.0164609
        k(   28) = (  -0.2836905  -0.1637888   0.2076325), wk =   0.0164609
        k(   29) = (  -0.4255358  -0.2456832   0.2491590), wk =   0.0164609
        k(   30) = (   0.7092263   0.4094720  -0.0830530), wk =   0.0164609
        k(   31) = (   0.5673810   0.3275776  -0.0415265), wk =   0.0164609
        k(   32) = (   0.4255358   0.2456832   0.0000000), wk =   0.0164609
        k(   33) = (   0.2836905   0.1637888   0.0415265), wk =   0.0164609
        k(   34) = (  -0.1418453   0.0818944   0.2076325), wk =   0.0164609
        k(   35) = (  -0.2836905   0.0000000   0.2491590), wk =   0.0329218
        k(   36) = (  -0.4255358  -0.0818944   0.2906854), wk =   0.0329218
        k(   37) = (   0.7092263   0.5732608  -0.0415265), wk =   0.0329218
        k(   38) = (   0.5673810   0.4913664   0.0000000), wk =   0.0329218
        k(   39) = (   0.4255358   0.4094720   0.0415265), wk =   0.0329218
        k(   40) = (   0.2836905   0.3275776   0.0830530), wk =   0.0329218
        k(   41) = (  -0.2836905   0.1637888   0.2906854), wk =   0.0164609
        k(   42) = (  -0.4255358   0.0818944   0.3322119), wk =   0.0329218
        k(   43) = (   0.7092263   0.7370496   0.0000000), wk =   0.0329218
        k(   44) = (   0.5673810   0.6551552   0.0415265), wk =   0.0329218
        k(   45) = (   0.4255358   0.5732608   0.0830530), wk =   0.0329218
        k(   46) = (   0.2836905   0.4913664   0.1245795), wk =   0.0329218
        k(   47) = (  -0.4255358   0.2456832   0.3737384), wk =   0.0164609
        k(   48) = (   0.7092263   0.9008384   0.0415265), wk =   0.0329218
        k(   49) = (   0.5673810   0.8189440   0.0830530), wk =   0.0329218
        k(   50) = (   0.4255358   0.7370496   0.1245795), wk =   0.0329218
        k(   51) = (   0.2836905   0.6551552   0.1661060), wk =   0.0329218
        k(   52) = (   0.7092263  -0.4094720  -0.2906854), wk =   0.0164609
        k(   53) = (   0.5673810  -0.4913664  -0.2491590), wk =   0.0329218
        k(   54) = (   0.4255358  -0.5732608  -0.2076325), wk =   0.0329218
        k(   55) = (   0.5673810  -0.3275776  -0.2076325), wk =   0.0164609
        k(   56) = (   0.4255358  -0.4094720  -0.1661060), wk =   0.0329218
        k(   57) = (   0.4255358  -0.2456832  -0.1245795), wk =   0.0164609
        k(   58) = (   0.0000000   0.0000000   0.2491590), wk =   0.0054870
        k(   59) = (  -0.1418453  -0.0818944   0.2906854), wk =   0.0164609
        k(   60) = (  -0.2836905  -0.1637888   0.3322119), wk =   0.0164609
        k(   61) = (   0.8510715   0.4913664   0.0000000), wk =   0.0164609
        k(   62) = (   0.7092263   0.4094720   0.0415265), wk =   0.0164609
        k(   63) = (   0.5673810   0.3275776   0.0830530), wk =   0.0164609
        k(   64) = (  -0.1418453   0.0818944   0.3322119), wk =   0.0164609
        k(   65) = (  -0.2836905   0.0000000   0.3737384), wk =   0.0329218
        k(   66) = (   0.8510715   0.6551552   0.0415265), wk =   0.0329218
        k(   67) = (   0.7092263   0.5732608   0.0830530), wk =   0.0329218
        k(   68) = (   0.5673810   0.4913664   0.1245795), wk =   0.0329218
        k(   69) = (  -0.2836905   0.1637888   0.4152649), wk =   0.0164609
        k(   70) = (   0.8510715   0.8189440   0.0830530), wk =   0.0329218
        k(   71) = (   0.7092263   0.7370496   0.1245795), wk =   0.0329218
        k(   72) = (   0.5673810   0.6551552   0.1661060), wk =   0.0329218
        k(   73) = (   0.8510715  -0.4913664  -0.2491590), wk =   0.0164609
        k(   74) = (   0.7092263  -0.5732608  -0.2076325), wk =   0.0329218
        k(   75) = (   0.7092263  -0.4094720  -0.1661060), wk =   0.0164609
        k(   76) = (   0.0000000   0.0000000   0.3737384), wk =   0.0054870
        k(   77) = (  -0.1418453  -0.0818944   0.4152649), wk =   0.0164609
        k(   78) = (   0.9929168   0.5732608   0.0830530), wk =   0.0164609
        k(   79) = (   0.8510715   0.4913664   0.1245795), wk =   0.0164609
        k(   80) = (  -0.1418453   0.0818944   0.4567914), wk =   0.0164609
        k(   81) = (   0.9929168   0.7370496   0.1245795), wk =   0.0329218
        k(   82) = (   0.8510715   0.6551552   0.1661060), wk =   0.0329218
        k(   83) = (   0.9929168  -0.5732608  -0.2076325), wk =   0.0164609
        k(   84) = (   0.0000000   0.0000000   0.4983179), wk =   0.0054870
        k(   85) = (   1.1347620   0.6551552   0.1661060), wk =   0.0164609

     Dense  grid:   160901 G-vectors     FFT dimensions: (  90,  90,  90)

     Smooth grid:    40759 G-vectors     FFT dimensions: (  60,  60,  60)

     Estimated max dynamical RAM per process >     852.19 MB
