[Molden Format]
[FREQ]
    0.00
    0.00
    0.00
  105.98
  108.58
  122.08
  149.56
  149.56
  174.13
  205.75
  216.64
  263.01
  263.01
  269.07
  276.25
  277.47
  301.07
  365.44
  685.08
  685.24
  685.24
  686.52
  830.53
  835.25
 1066.15
 1066.85
 1379.56
 1409.90
 1409.90
 1523.13
[FR-COORD]
   Ca          0.00000        0.00000       16.26806
   Ca          0.00000        0.00000        0.00000
   C           0.00000        0.00000        8.13403
   C           0.00000        0.00000       24.40209
   O           1.22400        3.37937       18.97941
   O           2.31462       -2.74970       18.97941
   O          -3.53862       -0.62967       18.97941
   O          -2.31462        2.74970       13.55672
   O           3.53862        0.62967       13.55672
   O          -1.22400       -3.37937       13.55672
[FR-NORM-COORD]
 vibration     1
   0.00000  -0.00002  -0.31597
  -0.00000  -0.00002  -0.31597
   0.00000  -0.00002  -0.31621
   0.00000  -0.00002  -0.31621
   0.00018   0.00009  -0.31632
   0.00000  -0.00023  -0.31632
  -0.00018   0.00009  -0.31632
   0.00000  -0.00023  -0.31632
  -0.00018   0.00009  -0.31632
   0.00018   0.00009  -0.31632
 vibration     2
   0.00017  -0.31691   0.00002
  -0.00017  -0.31691   0.00002
  -0.00000  -0.31611   0.00002
  -0.00000  -0.31611   0.00002
   0.00011  -0.31610  -0.00082
  -0.00000  -0.31591   0.00169
  -0.00011  -0.31610  -0.00082
  -0.00000  -0.31591   0.00169
  -0.00011  -0.31610  -0.00082
   0.00011  -0.31610  -0.00082
 vibration     3
   0.31676   0.00015  -0.00000
   0.31676  -0.00015   0.00000
   0.31612  -0.00000   0.00000
   0.31612  -0.00000   0.00000
   0.31602  -0.00010   0.00133
   0.31620  -0.00000   0.00000
   0.31602   0.00010  -0.00133
   0.31620  -0.00000   0.00000
   0.31602   0.00010  -0.00133
   0.31602  -0.00010   0.00133
 vibration     4
   0.00000  -0.00000  -0.20991
  -0.00000  -0.00000  -0.20991
  -0.00000   0.00000   0.11712
   0.00000   0.00000   0.11712
  -0.30768  -0.17764   0.14554
  -0.00000   0.35528   0.14554
   0.30768  -0.17764   0.14554
   0.00000   0.35528   0.14554
   0.30768  -0.17764   0.14554
  -0.30768  -0.17764   0.14554
 vibration     5
   0.18439  -0.16943   0.00000
  -0.18439  -0.16943   0.00000
   0.00000   0.09360  -0.00000
   0.00000   0.09360  -0.00000
   0.01902   0.10889  -0.25298
   0.00000   0.14183   0.50595
  -0.01902   0.10889  -0.25298
  -0.00000   0.14183   0.50595
  -0.01902   0.10889  -0.25298
   0.01902   0.10889  -0.25298
 vibration     6
   0.10412   0.23327  -0.00000
   0.10412  -0.23327   0.00000
  -0.06565   0.00000  -0.00000
  -0.06565   0.00000  -0.00000
  -0.08256  -0.01816   0.45471
  -0.05110   0.00000   0.00000
  -0.08256   0.01816  -0.45471
  -0.05110  -0.00000   0.00000
  -0.08256   0.01816  -0.45471
  -0.08256  -0.01816   0.45471
 vibration     7
   0.00000  -0.00000   0.00000
   0.00000  -0.00000   0.00000
  -0.31220  -0.00000   0.00000
   0.31220   0.00000  -0.00000
  -0.33831  -0.00694   0.18310
  -0.32630  -0.00000  -0.00000
  -0.33831   0.00694  -0.18310
   0.32630   0.00000   0.00000
   0.33831  -0.00694   0.18310
   0.33831   0.00694  -0.18310
 vibration     8
  -0.00000  -0.00000  -0.00000
   0.00000   0.00000  -0.00000
  -0.00000   0.31220  -0.00000
   0.00000  -0.31220   0.00000
   0.00694   0.33030  -0.10571
  -0.00000   0.34232   0.21143
  -0.00694   0.33030  -0.10571
   0.00000  -0.34232  -0.21143
   0.00694  -0.33030   0.10571
  -0.00694  -0.33030   0.10571
 vibration     9
  -0.00000  -0.00000  -0.00000
   0.00000   0.00000  -0.00000
   0.00000   0.00000   0.21248
  -0.00000  -0.00000  -0.21248
  -0.27880  -0.16097   0.21904
   0.00000   0.32193   0.21904
   0.27880  -0.16097   0.21904
  -0.00000  -0.32193  -0.21904
  -0.27880   0.16097  -0.21904
   0.27880   0.16097  -0.21904
 vibration    10
   0.59381   0.18146  -0.00000
  -0.59381   0.18146  -0.00000
  -0.00000  -0.07201   0.00000
   0.00000  -0.07201   0.00000
  -0.02654  -0.11884   0.09351
  -0.00000  -0.16481  -0.18702
   0.02654  -0.11884   0.09351
   0.00000  -0.16481  -0.18702
   0.02654  -0.11884   0.09351
  -0.02654  -0.11884   0.09351
 vibration    11
  -0.04870   0.53542   0.00000
  -0.04870  -0.53542  -0.00000
   0.00287  -0.00000  -0.00000
   0.00287  -0.00000   0.00000
   0.05931   0.03218  -0.31767
   0.00358  -0.00000  -0.00000
   0.05931  -0.03218   0.31767
   0.00358  -0.00000  -0.00000
   0.05931  -0.03218   0.31767
   0.05931   0.03218  -0.31767
 vibration    12
  -0.00000   0.00000  -0.00000
   0.00000   0.00000  -0.00000
   0.00000   0.14375   0.00000
  -0.00000  -0.14375  -0.00000
  -0.01523   0.14370   0.26577
   0.00000   0.11732  -0.53154
   0.01523   0.14370   0.26577
  -0.00000  -0.11732   0.53154
  -0.01523  -0.14370  -0.26577
   0.01523  -0.14370  -0.26577
 vibration    13
  -0.00000   0.00000  -0.00000
   0.00000   0.00000   0.00000
   0.14375  -0.00000  -0.00000
  -0.14375   0.00000   0.00000
   0.12612  -0.01523   0.46033
   0.15250  -0.00000   0.00000
   0.12612   0.01523  -0.46033
  -0.15250   0.00000  -0.00000
  -0.12612  -0.01523   0.46033
  -0.12612   0.01523  -0.46033
 vibration    14
  -0.09667   0.32498   0.00000
   0.09667   0.32498   0.00000
  -0.00000  -0.20897  -0.00000
   0.00000  -0.20897  -0.00000
   0.01681  -0.22858  -0.18098
  -0.00000  -0.19947   0.36196
  -0.01681  -0.22858  -0.18098
   0.00000  -0.19947   0.36196
  -0.01681  -0.22858  -0.18098
   0.01681  -0.22858  -0.18098
 vibration    15
  -0.00000   0.00000  -0.70541
  -0.00000  -0.00000   0.70541
   0.00000  -0.00000  -0.00000
   0.00000  -0.00000  -0.00000
   0.01414  -0.02449  -0.00000
  -0.02828   0.00000  -0.00000
   0.01414   0.02449   0.00000
  -0.02828   0.00000   0.00000
   0.01414   0.02449   0.00000
   0.01414  -0.02449  -0.00000
 vibration    16
  -0.00000   0.00000  -0.32141
   0.00000   0.00000  -0.32141
  -0.00000  -0.00000   0.24330
   0.00000  -0.00000   0.24330
   0.22828   0.13180   0.20740
  -0.00000  -0.26360   0.20740
  -0.22828   0.13180   0.20740
   0.00000  -0.26360   0.20740
  -0.22828   0.13180   0.20740
   0.22828   0.13180   0.20740
 vibration    17
  -0.00000   0.00000   0.00000
  -0.00000   0.00000   0.00000
   0.00000  -0.00000   0.32368
  -0.00000   0.00000  -0.32368
   0.20715   0.11960   0.27300
   0.00000  -0.23920   0.27300
  -0.20715   0.11960   0.27300
  -0.00000   0.23920  -0.27300
   0.20715  -0.11960  -0.27300
  -0.20715  -0.11960  -0.27300
 vibration    18
  -0.39252   0.02375   0.00000
  -0.39252  -0.02375  -0.00000
   0.31450  -0.00000  -0.00000
   0.31450   0.00000   0.00000
   0.24509  -0.00719   0.17304
   0.25754   0.00000   0.00000
   0.24509   0.00719  -0.17304
   0.25754  -0.00000   0.00000
   0.24509   0.00719  -0.17304
   0.24509  -0.00719   0.17304
 vibration    19
   0.01906   0.00624   0.00000
  -0.01906   0.00624   0.00000
  -0.00000  -0.23190   0.00000
   0.00000  -0.23190   0.00000
   0.32956  -0.13741   0.02236
  -0.00000   0.43341  -0.04473
  -0.32956  -0.13741   0.02236
   0.00000   0.43341  -0.04473
  -0.32956  -0.13741   0.02236
   0.32956  -0.13741   0.02236
 vibration    20
   0.00000   0.00000  -0.00000
  -0.00000   0.00000   0.00000
   0.22697  -0.00000  -0.00000
  -0.22697   0.00000   0.00000
  -0.24429  -0.33120  -0.02519
   0.32936   0.00000  -0.00000
  -0.24429   0.33120   0.02519
  -0.32936  -0.00000   0.00000
   0.24429  -0.33120  -0.02519
   0.24429   0.33120   0.02519
 vibration    21
   0.00000   0.00000  -0.00000
  -0.00000  -0.00000  -0.00000
  -0.00000  -0.22697  -0.00000
   0.00000   0.22697   0.00000
   0.33120  -0.13814   0.01454
  -0.00000   0.43551  -0.02909
  -0.33120  -0.13814   0.01454
   0.00000  -0.43551   0.02909
   0.33120   0.13814  -0.01454
  -0.33120   0.13814  -0.01454
 vibration    22
  -0.00422  -0.01765  -0.00000
  -0.00422   0.01765   0.00000
  -0.21303  -0.00000  -0.00000
  -0.21303   0.00000  -0.00000
   0.24863   0.33212   0.04106
  -0.32661   0.00000  -0.00000
   0.24863  -0.33212  -0.04106
  -0.32661  -0.00000   0.00000
   0.24863  -0.33212  -0.04106
   0.24863   0.33212   0.04106
 vibration    23
  -0.00000   0.00000   0.00364
   0.00000   0.00000   0.00364
  -0.00000   0.00000   0.64638
  -0.00000   0.00000   0.64638
  -0.01382  -0.00798  -0.16474
   0.00000   0.01596  -0.16474
   0.01382  -0.00798  -0.16474
  -0.00000   0.01596  -0.16474
   0.01382  -0.00798  -0.16474
  -0.01382  -0.00798  -0.16474
 vibration    24
   0.00000   0.00000   0.00000
   0.00000  -0.00000   0.00000
   0.00000   0.00000   0.63731
  -0.00000  -0.00000  -0.63731
  -0.01269  -0.00733  -0.17625
   0.00000   0.01466  -0.17625
   0.01269  -0.00733  -0.17625
   0.00000  -0.01466   0.17625
  -0.01269   0.00733   0.17625
   0.01269   0.00733   0.17625
 vibration    25
   0.00000   0.00000   0.01959
   0.00000  -0.00000  -0.01959
   0.00000  -0.00000   0.00000
   0.00000   0.00000  -0.00000
   0.20405  -0.35342  -0.00000
  -0.40809  -0.00000  -0.00000
   0.20405   0.35342   0.00000
  -0.40809   0.00000   0.00000
   0.20405   0.35342   0.00000
   0.20405  -0.35342  -0.00000
 vibration    26
   0.00000  -0.00000  -0.00000
   0.00000   0.00000   0.00000
   0.00000   0.00000  -0.00000
  -0.00000  -0.00000  -0.00000
  -0.20412   0.35355  -0.00000
   0.40825   0.00000  -0.00000
  -0.20412  -0.35355   0.00000
  -0.40825   0.00000  -0.00000
   0.20412   0.35355  -0.00000
   0.20412  -0.35355   0.00000
 vibration    27
  -0.00698  -0.00997   0.00000
   0.00698  -0.00997   0.00000
   0.00000   0.62679  -0.00000
   0.00000   0.62679  -0.00000
   0.10105  -0.20683  -0.00043
  -0.00000  -0.03180   0.00086
  -0.10105  -0.20683  -0.00043
   0.00000  -0.03180   0.00086
  -0.10105  -0.20683  -0.00043
   0.10105  -0.20683  -0.00043
 vibration    28
  -0.00000  -0.00000  -0.00000
  -0.00000  -0.00000  -0.00000
   0.62744   0.00000  -0.00000
  -0.62744  -0.00000   0.00000
  -0.09277   0.09875  -0.00117
  -0.26381  -0.00000   0.00000
  -0.09277  -0.09875   0.00117
   0.26381   0.00000  -0.00000
   0.09277   0.09875  -0.00117
   0.09277  -0.09875   0.00117
 vibration    29
  -0.00000  -0.00000  -0.00000
  -0.00000  -0.00000  -0.00000
   0.00000  -0.62744   0.00000
  -0.00000   0.62744  -0.00000
  -0.09875   0.20680   0.00067
  -0.00000   0.03576  -0.00135
   0.09875   0.20680   0.00067
   0.00000  -0.03576   0.00135
  -0.09875  -0.20680  -0.00067
   0.09875  -0.20680  -0.00067
 vibration    30
  -0.01594  -0.00376   0.00000
  -0.01594   0.00376  -0.00000
  -0.61539  -0.00000  -0.00000
  -0.61539   0.00000   0.00000
   0.11177  -0.09618   0.00573
   0.27835   0.00000  -0.00000
   0.11177   0.09618  -0.00573
   0.27835  -0.00000  -0.00000
   0.11177   0.09618  -0.00573
   0.11177  -0.09618   0.00573
