ANIMSTEPS   30
CRYSTAL
PRIMVEC
    2.520271845   -1.455079628    5.739125222
    0.000000000    2.910159256    5.739125222
   -2.520271845   -1.455079628    5.739125222
PRIMCOORD    1
     10   1
   Ca     0.00000   0.00000   8.60869   0.00000  -0.00000  -0.03160
   Ca     0.00000   0.00000   0.00000  -0.00000  -0.00000  -0.03160
   C      0.00000   0.00000   4.30434   0.00000  -0.00000  -0.03162
   C      0.00000   0.00000  12.91303   0.00000  -0.00000  -0.03162
   O      0.64771   1.78828  10.04347   0.00002   0.00001  -0.03163
   O      1.22484  -1.45508  10.04347   0.00000  -0.00002  -0.03163
   O     -1.87256  -0.33320  10.04347  -0.00002   0.00001  -0.03163
   O     -1.22484   1.45508   7.17391   0.00000  -0.00002  -0.03163
   O      1.87256   0.33320   7.17391  -0.00002   0.00001  -0.03163
   O     -0.64771  -1.78828   7.17391   0.00002   0.00001  -0.03163
PRIMCOORD    2
     10   1
   Ca     0.00000   0.00000   8.60869   0.00002  -0.03169   0.00000
   Ca     0.00000   0.00000   0.00000  -0.00002  -0.03169   0.00000
   C      0.00000   0.00000   4.30434  -0.00000  -0.03161   0.00000
   C      0.00000   0.00000  12.91303  -0.00000  -0.03161   0.00000
   O      0.64771   1.78828  10.04347   0.00001  -0.03161  -0.00008
   O      1.22484  -1.45508  10.04347  -0.00000  -0.03159   0.00017
   O     -1.87256  -0.33320  10.04347  -0.00001  -0.03161  -0.00008
   O     -1.22484   1.45508   7.17391  -0.00000  -0.03159   0.00017
   O      1.87256   0.33320   7.17391  -0.00001  -0.03161  -0.00008
   O     -0.64771  -1.78828   7.17391   0.00001  -0.03161  -0.00008
PRIMCOORD    3
     10   1
   Ca     0.00000   0.00000   8.60869   0.03168   0.00001  -0.00000
   Ca     0.00000   0.00000   0.00000   0.03168  -0.00001   0.00000
   C      0.00000   0.00000   4.30434   0.03161  -0.00000   0.00000
   C      0.00000   0.00000  12.91303   0.03161  -0.00000   0.00000
   O      0.64771   1.78828  10.04347   0.03160  -0.00001   0.00013
   O      1.22484  -1.45508  10.04347   0.03162  -0.00000   0.00000
   O     -1.87256  -0.33320  10.04347   0.03160   0.00001  -0.00013
   O     -1.22484   1.45508   7.17391   0.03162  -0.00000   0.00000
   O      1.87256   0.33320   7.17391   0.03160   0.00001  -0.00013
   O     -0.64771  -1.78828   7.17391   0.03160  -0.00001   0.00013
PRIMCOORD    4
     10   1
   Ca     0.00000   0.00000   8.60869   0.00000  -0.00000  -0.02099
   Ca     0.00000   0.00000   0.00000  -0.00000  -0.00000  -0.02099
   C      0.00000   0.00000   4.30434  -0.00000   0.00000   0.01171
   C      0.00000   0.00000  12.91303   0.00000   0.00000   0.01171
   O      0.64771   1.78828  10.04347  -0.03077  -0.01776   0.01455
   O      1.22484  -1.45508  10.04347  -0.00000   0.03553   0.01455
   O     -1.87256  -0.33320  10.04347   0.03077  -0.01776   0.01455
   O     -1.22484   1.45508   7.17391   0.00000   0.03553   0.01455
   O      1.87256   0.33320   7.17391   0.03077  -0.01776   0.01455
   O     -0.64771  -1.78828   7.17391  -0.03077  -0.01776   0.01455
PRIMCOORD    5
     10   1
   Ca     0.00000   0.00000   8.60869   0.01844  -0.01694   0.00000
   Ca     0.00000   0.00000   0.00000  -0.01844  -0.01694   0.00000
   C      0.00000   0.00000   4.30434   0.00000   0.00936  -0.00000
   C      0.00000   0.00000  12.91303   0.00000   0.00936  -0.00000
   O      0.64771   1.78828  10.04347   0.00190   0.01089  -0.02530
   O      1.22484  -1.45508  10.04347   0.00000   0.01418   0.05060
   O     -1.87256  -0.33320  10.04347  -0.00190   0.01089  -0.02530
   O     -1.22484   1.45508   7.17391  -0.00000   0.01418   0.05060
   O      1.87256   0.33320   7.17391  -0.00190   0.01089  -0.02530
   O     -0.64771  -1.78828   7.17391   0.00190   0.01089  -0.02530
PRIMCOORD    6
     10   1
   Ca     0.00000   0.00000   8.60869   0.01041   0.02333  -0.00000
   Ca     0.00000   0.00000   0.00000   0.01041  -0.02333   0.00000
   C      0.00000   0.00000   4.30434  -0.00657   0.00000  -0.00000
   C      0.00000   0.00000  12.91303  -0.00657   0.00000  -0.00000
   O      0.64771   1.78828  10.04347  -0.00826  -0.00182   0.04547
   O      1.22484  -1.45508  10.04347  -0.00511   0.00000   0.00000
   O     -1.87256  -0.33320  10.04347  -0.00826   0.00182  -0.04547
   O     -1.22484   1.45508   7.17391  -0.00511  -0.00000   0.00000
   O      1.87256   0.33320   7.17391  -0.00826   0.00182  -0.04547
   O     -0.64771  -1.78828   7.17391  -0.00826  -0.00182   0.04547
PRIMCOORD    7
     10   1
   Ca     0.00000   0.00000   8.60869   0.00000  -0.00000   0.00000
   Ca     0.00000   0.00000   0.00000   0.00000  -0.00000   0.00000
   C      0.00000   0.00000   4.30434  -0.03122  -0.00000   0.00000
   C      0.00000   0.00000  12.91303   0.03122   0.00000  -0.00000
   O      0.64771   1.78828  10.04347  -0.03383  -0.00069   0.01831
   O      1.22484  -1.45508  10.04347  -0.03263  -0.00000  -0.00000
   O     -1.87256  -0.33320  10.04347  -0.03383   0.00069  -0.01831
   O     -1.22484   1.45508   7.17391   0.03263   0.00000   0.00000
   O      1.87256   0.33320   7.17391   0.03383  -0.00069   0.01831
   O     -0.64771  -1.78828   7.17391   0.03383   0.00069  -0.01831
PRIMCOORD    8
     10   1
   Ca     0.00000   0.00000   8.60869  -0.00000  -0.00000  -0.00000
   Ca     0.00000   0.00000   0.00000   0.00000   0.00000  -0.00000
   C      0.00000   0.00000   4.30434  -0.00000   0.03122  -0.00000
   C      0.00000   0.00000  12.91303   0.00000  -0.03122   0.00000
   O      0.64771   1.78828  10.04347   0.00069   0.03303  -0.01057
   O      1.22484  -1.45508  10.04347  -0.00000   0.03423   0.02114
   O     -1.87256  -0.33320  10.04347  -0.00069   0.03303  -0.01057
   O     -1.22484   1.45508   7.17391   0.00000  -0.03423  -0.02114
   O      1.87256   0.33320   7.17391   0.00069  -0.03303   0.01057
   O     -0.64771  -1.78828   7.17391  -0.00069  -0.03303   0.01057
PRIMCOORD    9
     10   1
   Ca     0.00000   0.00000   8.60869  -0.00000  -0.00000  -0.00000
   Ca     0.00000   0.00000   0.00000   0.00000   0.00000  -0.00000
   C      0.00000   0.00000   4.30434   0.00000   0.00000   0.02125
   C      0.00000   0.00000  12.91303  -0.00000  -0.00000  -0.02125
   O      0.64771   1.78828  10.04347  -0.02788  -0.01610   0.02190
   O      1.22484  -1.45508  10.04347   0.00000   0.03219   0.02190
   O     -1.87256  -0.33320  10.04347   0.02788  -0.01610   0.02190
   O     -1.22484   1.45508   7.17391  -0.00000  -0.03219  -0.02190
   O      1.87256   0.33320   7.17391  -0.02788   0.01610  -0.02190
   O     -0.64771  -1.78828   7.17391   0.02788   0.01610  -0.02190
PRIMCOORD   10
     10   1
   Ca     0.00000   0.00000   8.60869   0.05938   0.01815  -0.00000
   Ca     0.00000   0.00000   0.00000  -0.05938   0.01815  -0.00000
   C      0.00000   0.00000   4.30434  -0.00000  -0.00720   0.00000
   C      0.00000   0.00000  12.91303   0.00000  -0.00720   0.00000
   O      0.64771   1.78828  10.04347  -0.00265  -0.01188   0.00935
   O      1.22484  -1.45508  10.04347  -0.00000  -0.01648  -0.01870
   O     -1.87256  -0.33320  10.04347   0.00265  -0.01188   0.00935
   O     -1.22484   1.45508   7.17391   0.00000  -0.01648  -0.01870
   O      1.87256   0.33320   7.17391   0.00265  -0.01188   0.00935
   O     -0.64771  -1.78828   7.17391  -0.00265  -0.01188   0.00935
PRIMCOORD   11
     10   1
   Ca     0.00000   0.00000   8.60869  -0.00487   0.05354   0.00000
   Ca     0.00000   0.00000   0.00000  -0.00487  -0.05354  -0.00000
   C      0.00000   0.00000   4.30434   0.00029  -0.00000  -0.00000
   C      0.00000   0.00000  12.91303   0.00029  -0.00000   0.00000
   O      0.64771   1.78828  10.04347   0.00593   0.00322  -0.03177
   O      1.22484  -1.45508  10.04347   0.00036  -0.00000  -0.00000
   O     -1.87256  -0.33320  10.04347   0.00593  -0.00322   0.03177
   O     -1.22484   1.45508   7.17391   0.00036  -0.00000  -0.00000
   O      1.87256   0.33320   7.17391   0.00593  -0.00322   0.03177
   O     -0.64771  -1.78828   7.17391   0.00593   0.00322  -0.03177
PRIMCOORD   12
     10   1
   Ca     0.00000   0.00000   8.60869  -0.00000   0.00000  -0.00000
   Ca     0.00000   0.00000   0.00000   0.00000   0.00000  -0.00000
   C      0.00000   0.00000   4.30434   0.00000   0.01438   0.00000
   C      0.00000   0.00000  12.91303  -0.00000  -0.01438  -0.00000
   O      0.64771   1.78828  10.04347  -0.00152   0.01437   0.02658
   O      1.22484  -1.45508  10.04347   0.00000   0.01173  -0.05315
   O     -1.87256  -0.33320  10.04347   0.00152   0.01437   0.02658
   O     -1.22484   1.45508   7.17391  -0.00000  -0.01173   0.05315
   O      1.87256   0.33320   7.17391  -0.00152  -0.01437  -0.02658
   O     -0.64771  -1.78828   7.17391   0.00152  -0.01437  -0.02658
PRIMCOORD   13
     10   1
   Ca     0.00000   0.00000   8.60869  -0.00000   0.00000  -0.00000
   Ca     0.00000   0.00000   0.00000   0.00000   0.00000   0.00000
   C      0.00000   0.00000   4.30434   0.01438  -0.00000  -0.00000
   C      0.00000   0.00000  12.91303  -0.01438   0.00000   0.00000
   O      0.64771   1.78828  10.04347   0.01261  -0.00152   0.04603
   O      1.22484  -1.45508  10.04347   0.01525  -0.00000   0.00000
   O     -1.87256  -0.33320  10.04347   0.01261   0.00152  -0.04603
   O     -1.22484   1.45508   7.17391  -0.01525   0.00000  -0.00000
   O      1.87256   0.33320   7.17391  -0.01261  -0.00152   0.04603
   O     -0.64771  -1.78828   7.17391  -0.01261   0.00152  -0.04603
PRIMCOORD   14
     10   1
   Ca     0.00000   0.00000   8.60869  -0.00967   0.03250   0.00000
   Ca     0.00000   0.00000   0.00000   0.00967   0.03250   0.00000
   C      0.00000   0.00000   4.30434  -0.00000  -0.02090  -0.00000
   C      0.00000   0.00000  12.91303   0.00000  -0.02090  -0.00000
   O      0.64771   1.78828  10.04347   0.00168  -0.02286  -0.01810
   O      1.22484  -1.45508  10.04347  -0.00000  -0.01995   0.03620
   O     -1.87256  -0.33320  10.04347  -0.00168  -0.02286  -0.01810
   O     -1.22484   1.45508   7.17391   0.00000  -0.01995   0.03620
   O      1.87256   0.33320   7.17391  -0.00168  -0.02286  -0.01810
   O     -0.64771  -1.78828   7.17391   0.00168  -0.02286  -0.01810
PRIMCOORD   15
     10   1
   Ca     0.00000   0.00000   8.60869  -0.00000   0.00000  -0.07054
   Ca     0.00000   0.00000   0.00000  -0.00000  -0.00000   0.07054
   C      0.00000   0.00000   4.30434   0.00000  -0.00000  -0.00000
   C      0.00000   0.00000  12.91303   0.00000  -0.00000  -0.00000
   O      0.64771   1.78828  10.04347   0.00141  -0.00245  -0.00000
   O      1.22484  -1.45508  10.04347  -0.00283   0.00000  -0.00000
   O     -1.87256  -0.33320  10.04347   0.00141   0.00245   0.00000
   O     -1.22484   1.45508   7.17391  -0.00283   0.00000   0.00000
   O      1.87256   0.33320   7.17391   0.00141   0.00245   0.00000
   O     -0.64771  -1.78828   7.17391   0.00141  -0.00245  -0.00000
PRIMCOORD   16
     10   1
   Ca     0.00000   0.00000   8.60869  -0.00000   0.00000  -0.03214
   Ca     0.00000   0.00000   0.00000   0.00000   0.00000  -0.03214
   C      0.00000   0.00000   4.30434  -0.00000  -0.00000   0.02433
   C      0.00000   0.00000  12.91303   0.00000  -0.00000   0.02433
   O      0.64771   1.78828  10.04347   0.02283   0.01318   0.02074
   O      1.22484  -1.45508  10.04347  -0.00000  -0.02636   0.02074
   O     -1.87256  -0.33320  10.04347  -0.02283   0.01318   0.02074
   O     -1.22484   1.45508   7.17391   0.00000  -0.02636   0.02074
   O      1.87256   0.33320   7.17391  -0.02283   0.01318   0.02074
   O     -0.64771  -1.78828   7.17391   0.02283   0.01318   0.02074
PRIMCOORD   17
     10   1
   Ca     0.00000   0.00000   8.60869  -0.00000   0.00000   0.00000
   Ca     0.00000   0.00000   0.00000  -0.00000   0.00000   0.00000
   C      0.00000   0.00000   4.30434   0.00000  -0.00000   0.03237
   C      0.00000   0.00000  12.91303  -0.00000   0.00000  -0.03237
   O      0.64771   1.78828  10.04347   0.02072   0.01196   0.02730
   O      1.22484  -1.45508  10.04347   0.00000  -0.02392   0.02730
   O     -1.87256  -0.33320  10.04347  -0.02072   0.01196   0.02730
   O     -1.22484   1.45508   7.17391  -0.00000   0.02392  -0.02730
   O      1.87256   0.33320   7.17391   0.02072  -0.01196  -0.02730
   O     -0.64771  -1.78828   7.17391  -0.02072  -0.01196  -0.02730
PRIMCOORD   18
     10   1
   Ca     0.00000   0.00000   8.60869  -0.03925   0.00237   0.00000
   Ca     0.00000   0.00000   0.00000  -0.03925  -0.00237  -0.00000
   C      0.00000   0.00000   4.30434   0.03145  -0.00000  -0.00000
   C      0.00000   0.00000  12.91303   0.03145   0.00000   0.00000
   O      0.64771   1.78828  10.04347   0.02451  -0.00072   0.01730
   O      1.22484  -1.45508  10.04347   0.02575   0.00000   0.00000
   O     -1.87256  -0.33320  10.04347   0.02451   0.00072  -0.01730
   O     -1.22484   1.45508   7.17391   0.02575  -0.00000   0.00000
   O      1.87256   0.33320   7.17391   0.02451   0.00072  -0.01730
   O     -0.64771  -1.78828   7.17391   0.02451  -0.00072   0.01730
PRIMCOORD   19
     10   1
   Ca     0.00000   0.00000   8.60869   0.00191   0.00062   0.00000
   Ca     0.00000   0.00000   0.00000  -0.00191   0.00062   0.00000
   C      0.00000   0.00000   4.30434  -0.00000  -0.02319   0.00000
   C      0.00000   0.00000  12.91303   0.00000  -0.02319   0.00000
   O      0.64771   1.78828  10.04347   0.03296  -0.01374   0.00224
   O      1.22484  -1.45508  10.04347  -0.00000   0.04334  -0.00447
   O     -1.87256  -0.33320  10.04347  -0.03296  -0.01374   0.00224
   O     -1.22484   1.45508   7.17391   0.00000   0.04334  -0.00447
   O      1.87256   0.33320   7.17391  -0.03296  -0.01374   0.00224
   O     -0.64771  -1.78828   7.17391   0.03296  -0.01374   0.00224
PRIMCOORD   20
     10   1
   Ca     0.00000   0.00000   8.60869   0.00000   0.00000  -0.00000
   Ca     0.00000   0.00000   0.00000  -0.00000   0.00000   0.00000
   C      0.00000   0.00000   4.30434   0.02270  -0.00000  -0.00000
   C      0.00000   0.00000  12.91303  -0.02270   0.00000   0.00000
   O      0.64771   1.78828  10.04347  -0.02443  -0.03312  -0.00252
   O      1.22484  -1.45508  10.04347   0.03294   0.00000  -0.00000
   O     -1.87256  -0.33320  10.04347  -0.02443   0.03312   0.00252
   O     -1.22484   1.45508   7.17391  -0.03294  -0.00000   0.00000
   O      1.87256   0.33320   7.17391   0.02443  -0.03312  -0.00252
   O     -0.64771  -1.78828   7.17391   0.02443   0.03312   0.00252
PRIMCOORD   21
     10   1
   Ca     0.00000   0.00000   8.60869   0.00000   0.00000  -0.00000
   Ca     0.00000   0.00000   0.00000  -0.00000  -0.00000  -0.00000
   C      0.00000   0.00000   4.30434  -0.00000  -0.02270  -0.00000
   C      0.00000   0.00000  12.91303   0.00000   0.02270   0.00000
   O      0.64771   1.78828  10.04347   0.03312  -0.01381   0.00145
   O      1.22484  -1.45508  10.04347  -0.00000   0.04355  -0.00291
   O     -1.87256  -0.33320  10.04347  -0.03312  -0.01381   0.00145
   O     -1.22484   1.45508   7.17391   0.00000  -0.04355   0.00291
   O      1.87256   0.33320   7.17391   0.03312   0.01381  -0.00145
   O     -0.64771  -1.78828   7.17391  -0.03312   0.01381  -0.00145
PRIMCOORD   22
     10   1
   Ca     0.00000   0.00000   8.60869  -0.00042  -0.00176  -0.00000
   Ca     0.00000   0.00000   0.00000  -0.00042   0.00176   0.00000
   C      0.00000   0.00000   4.30434  -0.02130  -0.00000  -0.00000
   C      0.00000   0.00000  12.91303  -0.02130   0.00000  -0.00000
   O      0.64771   1.78828  10.04347   0.02486   0.03321   0.00411
   O      1.22484  -1.45508  10.04347  -0.03266   0.00000  -0.00000
   O     -1.87256  -0.33320  10.04347   0.02486  -0.03321  -0.00411
   O     -1.22484   1.45508   7.17391  -0.03266  -0.00000   0.00000
   O      1.87256   0.33320   7.17391   0.02486  -0.03321  -0.00411
   O     -0.64771  -1.78828   7.17391   0.02486   0.03321   0.00411
PRIMCOORD   23
     10   1
   Ca     0.00000   0.00000   8.60869  -0.00000   0.00000   0.00036
   Ca     0.00000   0.00000   0.00000   0.00000   0.00000   0.00036
   C      0.00000   0.00000   4.30434  -0.00000   0.00000   0.06464
   C      0.00000   0.00000  12.91303  -0.00000   0.00000   0.06464
   O      0.64771   1.78828  10.04347  -0.00138  -0.00080  -0.01647
   O      1.22484  -1.45508  10.04347   0.00000   0.00160  -0.01647
   O     -1.87256  -0.33320  10.04347   0.00138  -0.00080  -0.01647
   O     -1.22484   1.45508   7.17391  -0.00000   0.00160  -0.01647
   O      1.87256   0.33320   7.17391   0.00138  -0.00080  -0.01647
   O     -0.64771  -1.78828   7.17391  -0.00138  -0.00080  -0.01647
PRIMCOORD   24
     10   1
   Ca     0.00000   0.00000   8.60869   0.00000   0.00000   0.00000
   Ca     0.00000   0.00000   0.00000   0.00000  -0.00000   0.00000
   C      0.00000   0.00000   4.30434   0.00000   0.00000   0.06373
   C      0.00000   0.00000  12.91303  -0.00000  -0.00000  -0.06373
   O      0.64771   1.78828  10.04347  -0.00127  -0.00073  -0.01762
   O      1.22484  -1.45508  10.04347   0.00000   0.00147  -0.01762
   O     -1.87256  -0.33320  10.04347   0.00127  -0.00073  -0.01762
   O     -1.22484   1.45508   7.17391   0.00000  -0.00147   0.01762
   O      1.87256   0.33320   7.17391  -0.00127   0.00073   0.01762
   O     -0.64771  -1.78828   7.17391   0.00127   0.00073   0.01762
PRIMCOORD   25
     10   1
   Ca     0.00000   0.00000   8.60869   0.00000   0.00000   0.00196
   Ca     0.00000   0.00000   0.00000   0.00000  -0.00000  -0.00196
   C      0.00000   0.00000   4.30434   0.00000  -0.00000   0.00000
   C      0.00000   0.00000  12.91303   0.00000   0.00000  -0.00000
   O      0.64771   1.78828  10.04347   0.02040  -0.03534  -0.00000
   O      1.22484  -1.45508  10.04347  -0.04081  -0.00000  -0.00000
   O     -1.87256  -0.33320  10.04347   0.02040   0.03534   0.00000
   O     -1.22484   1.45508   7.17391  -0.04081   0.00000   0.00000
   O      1.87256   0.33320   7.17391   0.02040   0.03534   0.00000
   O     -0.64771  -1.78828   7.17391   0.02040  -0.03534  -0.00000
PRIMCOORD   26
     10   1
   Ca     0.00000   0.00000   8.60869   0.00000  -0.00000  -0.00000
   Ca     0.00000   0.00000   0.00000   0.00000   0.00000   0.00000
   C      0.00000   0.00000   4.30434   0.00000   0.00000  -0.00000
   C      0.00000   0.00000  12.91303  -0.00000  -0.00000  -0.00000
   O      0.64771   1.78828  10.04347  -0.02041   0.03536  -0.00000
   O      1.22484  -1.45508  10.04347   0.04082   0.00000  -0.00000
   O     -1.87256  -0.33320  10.04347  -0.02041  -0.03536   0.00000
   O     -1.22484   1.45508   7.17391  -0.04082   0.00000  -0.00000
   O      1.87256   0.33320   7.17391   0.02041   0.03536  -0.00000
   O     -0.64771  -1.78828   7.17391   0.02041  -0.03536   0.00000
PRIMCOORD   27
     10   1
   Ca     0.00000   0.00000   8.60869  -0.00070  -0.00100   0.00000
   Ca     0.00000   0.00000   0.00000   0.00070  -0.00100   0.00000
   C      0.00000   0.00000   4.30434   0.00000   0.06268  -0.00000
   C      0.00000   0.00000  12.91303   0.00000   0.06268  -0.00000
   O      0.64771   1.78828  10.04347   0.01011  -0.02068  -0.00004
   O      1.22484  -1.45508  10.04347  -0.00000  -0.00318   0.00009
   O     -1.87256  -0.33320  10.04347  -0.01011  -0.02068  -0.00004
   O     -1.22484   1.45508   7.17391   0.00000  -0.00318   0.00009
   O      1.87256   0.33320   7.17391  -0.01011  -0.02068  -0.00004
   O     -0.64771  -1.78828   7.17391   0.01011  -0.02068  -0.00004
PRIMCOORD   28
     10   1
   Ca     0.00000   0.00000   8.60869  -0.00000  -0.00000  -0.00000
   Ca     0.00000   0.00000   0.00000  -0.00000  -0.00000  -0.00000
   C      0.00000   0.00000   4.30434   0.06274   0.00000  -0.00000
   C      0.00000   0.00000  12.91303  -0.06274  -0.00000   0.00000
   O      0.64771   1.78828  10.04347  -0.00928   0.00987  -0.00012
   O      1.22484  -1.45508  10.04347  -0.02638  -0.00000   0.00000
   O     -1.87256  -0.33320  10.04347  -0.00928  -0.00987   0.00012
   O     -1.22484   1.45508   7.17391   0.02638   0.00000  -0.00000
   O      1.87256   0.33320   7.17391   0.00928   0.00987  -0.00012
   O     -0.64771  -1.78828   7.17391   0.00928  -0.00987   0.00012
PRIMCOORD   29
     10   1
   Ca     0.00000   0.00000   8.60869  -0.00000  -0.00000  -0.00000
   Ca     0.00000   0.00000   0.00000  -0.00000  -0.00000  -0.00000
   C      0.00000   0.00000   4.30434   0.00000  -0.06274   0.00000
   C      0.00000   0.00000  12.91303  -0.00000   0.06274  -0.00000
   O      0.64771   1.78828  10.04347  -0.00987   0.02068   0.00007
   O      1.22484  -1.45508  10.04347  -0.00000   0.00358  -0.00013
   O     -1.87256  -0.33320  10.04347   0.00987   0.02068   0.00007
   O     -1.22484   1.45508   7.17391   0.00000  -0.00358   0.00013
   O      1.87256   0.33320   7.17391  -0.00987  -0.02068  -0.00007
   O     -0.64771  -1.78828   7.17391   0.00987  -0.02068  -0.00007
PRIMCOORD   30
     10   1
   Ca     0.00000   0.00000   8.60869  -0.00159  -0.00038   0.00000
   Ca     0.00000   0.00000   0.00000  -0.00159   0.00038  -0.00000
   C      0.00000   0.00000   4.30434  -0.06154  -0.00000  -0.00000
   C      0.00000   0.00000  12.91303  -0.06154   0.00000   0.00000
   O      0.64771   1.78828  10.04347   0.01118  -0.00962   0.00057
   O      1.22484  -1.45508  10.04347   0.02784   0.00000  -0.00000
   O     -1.87256  -0.33320  10.04347   0.01118   0.00962  -0.00057
   O     -1.22484   1.45508   7.17391   0.02784  -0.00000  -0.00000
   O      1.87256   0.33320   7.17391   0.01118   0.00962  -0.00057
   O     -0.64771  -1.78828   7.17391   0.01118  -0.00962   0.00057
