
     Program PWSCF v.6.4.1 starts on 24Apr2022 at 18: 9:48 

     This program is part of the open-source Quantum ESPRESSO suite
     for quantum simulation of materials; please cite
         "P. Giannozzi et al., J. Phys.:Condens. Matter 21 395502 (2009);
         "P. Giannozzi et al., J. Phys.:Condens. Matter 29 465901 (2017);
          URL http://www.quantum-espresso.org", 
     in publications or presentations arising from this work. More details at
     http://www.quantum-espresso.org/quote

     Parallel version (MPI & OpenMP), running on     120 processor cores
     Number of MPI processes:               120
     Threads/MPI process:                     1

     MPI processes distributed on     2 nodes
     R & G space division:  proc/nbgrp/npool/nimage =     120
     Waiting for input...
     Reading input from standard input

     Current dimensions of program PWSCF are:
     Max number of different atomic species (ntypx) = 10
     Max number of k-points (npk) =  40000
     Max angular momentum in pseudopotentials (lmaxx) =  3

     Subspace diagonalization in iterative solution of the eigenvalue problem:
     one sub-group per band group will be used
     scalapack distributed-memory algorithm (size of sub-group:  7*  7 procs)

 
     Parallelization info
     --------------------
     sticks:   dense  smooth     PW     G-vecs:    dense   smooth      PW
     Min          16      16      4                  484      484      72
     Max          17      17      5                  491      491      80
     Sum        1981    1981    583                58383    58383    9185
 


     bravais-lattice index     =            5
     lattice parameter (alat)  =      12.0000  a.u.
     unit-cell volume          =    1221.8805 (a.u.)^3
     number of atoms/cell      =           10
     number of atomic types    =            3
     number of electrons       =        64.00
     number of Kohn-Sham states=           32
     kinetic-energy cutoff     =      50.0000  Ry
     charge density cutoff     =     200.0000  Ry
     convergence threshold     =      1.0E-05
     mixing beta               =       0.7000
     number of iterations used =            8  plain     mixing
     Exchange-correlation      = SLA  PW   PBE  PBE ( 1  4  3  4 0 0)
     nstep                     =           50


     celldm(1)=  12.000000  celldm(2)=   0.000000  celldm(3)=   0.000000
     celldm(4)=   0.500000  celldm(5)=   0.000000  celldm(6)=   0.000000

     crystal axes: (cart. coord. in units of alat)
               a(1) = (   0.500000  -0.288675   0.816497 )  
               a(2) = (   0.000000   0.577350   0.816497 )  
               a(3) = (  -0.500000  -0.288675   0.816497 )  

     reciprocal axes: (cart. coord. in units 2 pi/alat)
               b(1) = (  1.000000 -0.577350  0.408248 )  
               b(2) = (  0.000000  1.154701  0.408248 )  
               b(3) = ( -1.000000 -0.577350  0.408248 )  


     PseudoPot. # 1 for Ca read from file:
     ./Ca_PBE.UPF
     MD5 check sum: 403a4c14b9e4d4dfdc3024c9a3812218
     Pseudo is Ultrasoft + core correction, Zval = 10.0
     Generated by new atomic code, or converted to UPF format
     Using radial grid of  845 points,  6 beta functions with: 
                l(1) =   0
                l(2) =   0
                l(3) =   1
                l(4) =   1
                l(5) =   2
                l(6) =   2
     Q(r) pseudized with  8 coefficients,  rinner =    1.500   1.500   1.500
                                                       1.500   1.500

     PseudoPot. # 2 for C  read from file:
     ./C_PBE.UPF
     MD5 check sum: d1aef80898a10debaa0f26306b886e00
     Pseudo is Ultrasoft + core correction, Zval =  4.0
     Generated by new atomic code, or converted to UPF format
     Using radial grid of  721 points,  4 beta functions with: 
                l(1) =   0
                l(2) =   0
                l(3) =   1
                l(4) =   1
     Q(r) pseudized with  8 coefficients,  rinner =    1.100   1.100   1.100


     PseudoPot. # 3 for O  read from file:
     ./O_PBE.UPF
     MD5 check sum: 734c27235a0248c51dbae37a1fbe46ec
     Pseudo is Ultrasoft + core correction, Zval =  6.0
     Generated by new atomic code, or converted to UPF format
     Using radial grid of  737 points,  5 beta functions with: 
                l(1) =   0
                l(2) =   0
                l(3) =   1
                l(4) =   1
                l(5) =   2
     Q(r) pseudized with  8 coefficients,  rinner =    0.900   0.900   0.900
                                                       0.900   0.900

     atomic species   valence    mass     pseudopotential
        Ca            10.00    40.07800     Ca( 1.00)
        C              4.00    12.01070     C ( 1.00)
        O              6.00    16.00000     O ( 1.00)

     12 Sym. Ops., with inversion, found ( 6 have fractional translation)



   Cartesian axes

     site n.     atom                  positions (alat units)
         1           Ca  tau(   1) = (   0.0000000  -0.0000000   1.2247449  )
         2           Ca  tau(   2) = (   0.0000000   0.0000000   0.0000000  )
         3           C   tau(   3) = (   0.0000000  -0.0000000   0.6123724  )
         4           C   tau(   4) = (  -0.0000000  -0.0000000   1.8371173  )
         5           O   tau(   5) = (   0.1284501   0.3548681   1.4288690  )
         6           O   tau(   6) = (   0.2430998  -0.2886751   1.4288690  )
         7           O   tau(   7) = (  -0.3715499  -0.0661930   1.4288690  )
         8           O   tau(   8) = (  -0.2430998   0.2886751   1.0206207  )
         9           O   tau(   9) = (   0.3715499   0.0661930   1.0206207  )
        10           O   tau(  10) = (  -0.1284501  -0.3548681   1.0206207  )

     number of k points=    85
                       cart. coord. in units 2pi/alat
        k(    1) = (   0.0000000   0.0000000   0.0000000), wk =   0.0027435
        k(    2) = (  -0.1111111  -0.0641500   0.0453609), wk =   0.0164609
        k(    3) = (  -0.2222222  -0.1283001   0.0907218), wk =   0.0164609
        k(    4) = (  -0.3333333  -0.1924501   0.1360828), wk =   0.0164609
        k(    5) = (  -0.4444444  -0.2566001   0.1814437), wk =   0.0164609
        k(    6) = (  -0.1111111   0.0641500   0.0907218), wk =   0.0164609
        k(    7) = (  -0.2222222  -0.0000000   0.1360828), wk =   0.0329218
        k(    8) = (  -0.3333333  -0.0641500   0.1814437), wk =   0.0329218
        k(    9) = (  -0.4444444  -0.1283001   0.2268046), wk =   0.0329218
        k(   10) = (   0.4444444   0.3849002  -0.1360828), wk =   0.0329218
        k(   11) = (   0.3333333   0.3207501  -0.0907218), wk =   0.0329218
        k(   12) = (   0.2222222   0.2566001  -0.0453609), wk =   0.0329218
        k(   13) = (   0.1111111   0.1924501   0.0000000), wk =   0.0164609
        k(   14) = (  -0.2222222   0.1283001   0.1814437), wk =   0.0164609
        k(   15) = (  -0.3333333   0.0641500   0.2268046), wk =   0.0329218
        k(   16) = (  -0.4444444  -0.0000000   0.2721655), wk =   0.0329218
        k(   17) = (   0.4444444   0.5132002  -0.0907218), wk =   0.0329218
        k(   18) = (   0.3333333   0.4490502  -0.0453609), wk =   0.0329218
        k(   19) = (   0.2222222   0.3849002   0.0000000), wk =   0.0164609
        k(   20) = (  -0.3333333   0.1924501   0.2721655), wk =   0.0164609
        k(   21) = (  -0.4444444   0.1283001   0.3175264), wk =   0.0329218
        k(   22) = (   0.4444444   0.6415003  -0.0453609), wk =   0.0329218
        k(   23) = (   0.3333333   0.5773503   0.0000000), wk =   0.0164609
        k(   24) = (  -0.4444444   0.2566001   0.3628874), wk =   0.0164609
        k(   25) = (   0.4444444   0.7698004   0.0000000), wk =   0.0164609
        k(   26) = (  -0.0000000  -0.0000000   0.1360828), wk =   0.0054870
        k(   27) = (  -0.1111111  -0.0641500   0.1814437), wk =   0.0164609
        k(   28) = (  -0.2222222  -0.1283001   0.2268046), wk =   0.0164609
        k(   29) = (  -0.3333333  -0.1924501   0.2721655), wk =   0.0164609
        k(   30) = (   0.5555556   0.3207501  -0.0907218), wk =   0.0164609
        k(   31) = (   0.4444444   0.2566001  -0.0453609), wk =   0.0164609
        k(   32) = (   0.3333333   0.1924501   0.0000000), wk =   0.0164609
        k(   33) = (   0.2222222   0.1283001   0.0453609), wk =   0.0164609
        k(   34) = (  -0.1111111   0.0641500   0.2268046), wk =   0.0164609
        k(   35) = (  -0.2222222  -0.0000000   0.2721655), wk =   0.0329218
        k(   36) = (  -0.3333333  -0.0641500   0.3175264), wk =   0.0329218
        k(   37) = (   0.5555556   0.4490502  -0.0453609), wk =   0.0329218
        k(   38) = (   0.4444444   0.3849002   0.0000000), wk =   0.0329218
        k(   39) = (   0.3333333   0.3207501   0.0453609), wk =   0.0329218
        k(   40) = (   0.2222222   0.2566001   0.0907218), wk =   0.0329218
        k(   41) = (  -0.2222222   0.1283001   0.3175264), wk =   0.0164609
        k(   42) = (  -0.3333333   0.0641500   0.3628874), wk =   0.0329218
        k(   43) = (   0.5555556   0.5773503   0.0000000), wk =   0.0329218
        k(   44) = (   0.4444444   0.5132002   0.0453609), wk =   0.0329218
        k(   45) = (   0.3333333   0.4490502   0.0907218), wk =   0.0329218
        k(   46) = (   0.2222222   0.3849002   0.1360828), wk =   0.0329218
        k(   47) = (  -0.3333333   0.1924501   0.4082483), wk =   0.0164609
        k(   48) = (   0.5555556   0.7056503   0.0453609), wk =   0.0329218
        k(   49) = (   0.4444444   0.6415003   0.0907218), wk =   0.0329218
        k(   50) = (   0.3333333   0.5773503   0.1360828), wk =   0.0329218
        k(   51) = (   0.2222222   0.5132002   0.1814437), wk =   0.0329218
        k(   52) = (   0.5555556  -0.3207501  -0.3175264), wk =   0.0164609
        k(   53) = (   0.4444444  -0.3849002  -0.2721655), wk =   0.0329218
        k(   54) = (   0.3333333  -0.4490502  -0.2268046), wk =   0.0329218
        k(   55) = (   0.4444444  -0.2566001  -0.2268046), wk =   0.0164609
        k(   56) = (   0.3333333  -0.3207501  -0.1814437), wk =   0.0329218
        k(   57) = (   0.3333333  -0.1924501  -0.1360828), wk =   0.0164609
        k(   58) = (  -0.0000000  -0.0000000   0.2721655), wk =   0.0054870
        k(   59) = (  -0.1111111  -0.0641500   0.3175264), wk =   0.0164609
        k(   60) = (  -0.2222222  -0.1283001   0.3628874), wk =   0.0164609
        k(   61) = (   0.6666667   0.3849002   0.0000000), wk =   0.0164609
        k(   62) = (   0.5555556   0.3207501   0.0453609), wk =   0.0164609
        k(   63) = (   0.4444444   0.2566001   0.0907218), wk =   0.0164609
        k(   64) = (  -0.1111111   0.0641500   0.3628874), wk =   0.0164609
        k(   65) = (  -0.2222222  -0.0000000   0.4082483), wk =   0.0329218
        k(   66) = (   0.6666667   0.5132002   0.0453609), wk =   0.0329218
        k(   67) = (   0.5555556   0.4490502   0.0907218), wk =   0.0329218
        k(   68) = (   0.4444444   0.3849002   0.1360828), wk =   0.0329218
        k(   69) = (  -0.2222222   0.1283001   0.4536092), wk =   0.0164609
        k(   70) = (   0.6666667   0.6415003   0.0907218), wk =   0.0329218
        k(   71) = (   0.5555556   0.5773503   0.1360828), wk =   0.0329218
        k(   72) = (   0.4444444   0.5132002   0.1814437), wk =   0.0329218
        k(   73) = (   0.6666667  -0.3849002  -0.2721655), wk =   0.0164609
        k(   74) = (   0.5555556  -0.4490502  -0.2268046), wk =   0.0329218
        k(   75) = (   0.5555556  -0.3207501  -0.1814437), wk =   0.0164609
        k(   76) = (   0.0000000   0.0000000   0.4082483), wk =   0.0054870
        k(   77) = (  -0.1111111  -0.0641500   0.4536092), wk =   0.0164609
        k(   78) = (   0.7777778   0.4490502   0.0907218), wk =   0.0164609
        k(   79) = (   0.6666667   0.3849002   0.1360828), wk =   0.0164609
        k(   80) = (  -0.1111111   0.0641500   0.4989701), wk =   0.0164609
        k(   81) = (   0.7777778   0.5773503   0.1360828), wk =   0.0329218
        k(   82) = (   0.6666667   0.5132002   0.1814437), wk =   0.0329218
        k(   83) = (   0.7777778  -0.4490502  -0.2268046), wk =   0.0164609
        k(   84) = (  -0.0000000  -0.0000000   0.5443311), wk =   0.0054870
        k(   85) = (   0.8888889   0.5132002   0.1814437), wk =   0.0164609

     Dense  grid:    58383 G-vectors     FFT dimensions: (  60,  60,  60)

     Estimated max dynamical RAM per process >      17.77 MB

     Estimated total dynamical RAM >       2.08 GB
     Message from routine sym_rho_init:
     some processors have no G-vectors for symmetrization
     Message from routine sym_rho_init:
     some processors have no G-vectors for symmetrization
     Message from routine sym_rho_init:
     some processors have no G-vectors for symmetrization
     Message from routine sym_rho_init:
     some processors have no G-vectors for symmetrization

     Check: negative core charge=   -0.000002

     Initial potential from superposition of free atoms

     starting charge   63.98899, renormalised to   64.00000
     Starting wfcs are   52 randomized atomic wfcs

     total cpu time spent up to now is       12.5 secs

     Self-consistent Calculation

     iteration #  1     ecut=    50.00 Ry     beta= 0.70
     CG style diagonalization
     ethr =  1.00E-02,  avg # of iterations =  2.2

     total cpu time spent up to now is       30.3 secs

     total energy              =    -365.13634172 Ry
     Harris-Foulkes estimate   =    -366.89796453 Ry
     estimated scf accuracy    <       2.39196007 Ry

     iteration #  2     ecut=    50.00 Ry     beta= 0.70
     CG style diagonalization
     ethr =  3.74E-03,  avg # of iterations =  4.8

     total cpu time spent up to now is       68.8 secs

     total energy              =    -364.97851514 Ry
     Harris-Foulkes estimate   =    -368.32875662 Ry
     estimated scf accuracy    <       9.62466618 Ry

     iteration #  3     ecut=    50.00 Ry     beta= 0.70
     CG style diagonalization
     ethr =  3.74E-03,  avg # of iterations =  4.3

     total cpu time spent up to now is      103.2 secs

     total energy              =    -366.40104860 Ry
     Harris-Foulkes estimate   =    -366.42551925 Ry
     estimated scf accuracy    <       0.05329322 Ry

     iteration #  4     ecut=    50.00 Ry     beta= 0.70
     CG style diagonalization
     ethr =  8.33E-05,  avg # of iterations =  4.3

     total cpu time spent up to now is      137.7 secs

     total energy              =    -366.43482347 Ry
     Harris-Foulkes estimate   =    -366.43793274 Ry
     estimated scf accuracy    <       0.00978683 Ry

     iteration #  5     ecut=    50.00 Ry     beta= 0.70
     CG style diagonalization
     ethr =  1.53E-05,  avg # of iterations =  3.8

     total cpu time spent up to now is      168.6 secs

     total energy              =    -366.43765240 Ry
     Harris-Foulkes estimate   =    -366.43766041 Ry
     estimated scf accuracy    <       0.00016076 Ry

     iteration #  6     ecut=    50.00 Ry     beta= 0.70
     CG style diagonalization
     ethr =  2.51E-07,  avg # of iterations =  5.2

     total cpu time spent up to now is      210.2 secs

     total energy              =    -366.43785480 Ry
     Harris-Foulkes estimate   =    -366.43789636 Ry
     estimated scf accuracy    <       0.00009747 Ry

     iteration #  7     ecut=    50.00 Ry     beta= 0.70
     CG style diagonalization
     ethr =  1.52E-07,  avg # of iterations =  3.9

     total cpu time spent up to now is      241.4 secs

     total energy              =    -366.43788306 Ry
     Harris-Foulkes estimate   =    -366.43788792 Ry
     estimated scf accuracy    <       0.00001650 Ry

     iteration #  8     ecut=    50.00 Ry     beta= 0.70
     CG style diagonalization
     ethr =  2.58E-08,  avg # of iterations =  3.5

     total cpu time spent up to now is      269.6 secs

     End of self-consistent calculation

          k = 0.0000 0.0000 0.0000 (  7391 PWs)   bands (ev):

   -38.5916 -38.5898 -19.5844 -19.5609 -19.5029 -19.5029 -19.4778 -19.4778
   -15.9209 -15.6380 -14.6376 -14.6376 -14.4892 -14.4892  -6.2869  -6.1402
    -2.5704  -2.5704  -2.4850  -2.4850  -1.7019  -0.5835   0.2953   0.2953
     0.4591   0.4591   0.5571   0.5571   0.8601   1.4276   1.4955   1.4955

          k =-0.1111-0.0642 0.0454 (  7315 PWs)   bands (ev):

   -38.5916 -38.5898 -19.5836 -19.5617 -19.5024 -19.5024 -19.4789 -19.4787
   -15.9088 -15.6485 -14.6332 -14.6296 -14.4981 -14.4948  -6.2840  -6.1382
    -2.5789  -2.5659  -2.4825  -2.4724  -1.6679  -0.6356   0.2984   0.3049
     0.3984   0.4048   0.5892   0.6023   0.9016   1.4067   1.4584   1.4855

          k =-0.2222-0.1283 0.0907 (  7309 PWs)   bands (ev):

   -38.5914 -38.5900 -19.5815 -19.5637 -19.5007 -19.5007 -19.4819 -19.4811
   -15.8762 -15.6754 -14.6209 -14.6112 -14.5202 -14.5101  -6.2725  -6.1373
    -2.5950  -2.5504  -2.4825  -2.4458  -1.5711  -0.7601   0.2568   0.2865
     0.3101   0.3526   0.6482   0.6964   0.9768   1.3169   1.4124   1.4625

          k =-0.3333-0.1925 0.1361 (  7297 PWs)   bands (ev):

   -38.5912 -38.5902 -19.5783 -19.5667 -19.4980 -19.4979 -19.4859 -19.4848
   -15.8328 -15.7101 -14.6037 -14.5934 -14.5443 -14.5311  -6.2480  -6.1476
    -2.6019  -2.5371  -2.4820  -2.4257  -1.4258  -0.9121   0.1338   0.1752
     0.3340   0.3822   0.7186   0.7749   1.0237   1.1883   1.3980   1.4410

          k =-0.4444-0.2566 0.1814 (  7294 PWs)   bands (ev):

   -38.5909 -38.5905 -19.5744 -19.5705 -19.4947 -19.4943 -19.4900 -19.4891
   -15.7884 -15.7476 -14.5866 -14.5831 -14.5589 -14.5518  -6.2120  -6.1743
    -2.5890  -2.5594  -2.4545  -2.4285  -1.2535  -1.0775   0.0724   0.0931
     0.3698   0.3934   0.7795   0.8030   1.0421   1.0873   1.4059   1.4236

          k =-0.1111 0.0642 0.0907 (  7327 PWs)   bands (ev):

   -38.5916 -38.5898 -19.5835 -19.5620 -19.5037 -19.5006 -19.4806 -19.4775
   -15.9059 -15.6510 -14.6355 -14.6244 -14.5037 -14.4922  -6.2835  -6.1397
    -2.5890  -2.5539  -2.4833  -2.4705  -1.6584  -0.6492   0.2954   0.3083
     0.3927   0.4288   0.5535   0.6355   0.9067   1.3999   1.4476   1.4736

          k =-0.2222-0.0000 0.1361 (  7319 PWs)   bands (ev):

   -38.5914 -38.5900 -19.5820 -19.5636 -19.5037 -19.4980 -19.4838 -19.4781
   -15.8815 -15.6711 -14.6287 -14.6082 -14.5229 -14.5011  -6.2758  -6.1393
    -2.6031  -2.5402  -2.4857  -2.4468  -1.5871  -0.7460   0.2864   0.2986
     0.3279   0.3852   0.5920   0.7063   0.9661   1.3324   1.3956   1.4571

          k =-0.3333-0.0642 0.1814 (  7315 PWs)   bands (ev):

   -38.5912 -38.5902 -19.5794 -19.5664 -19.5025 -19.4946 -19.4879 -19.4805
   -15.8434 -15.7009 -14.6167 -14.5898 -14.5465 -14.5175  -6.2558  -6.1457
    -2.6046  -2.5356  -2.4882  -2.4215  -1.4651  -0.8796   0.1760   0.2146
     0.3390   0.3925   0.6674   0.7769   1.0176   1.2115   1.3727   1.4405

          k =-0.4444-0.1283 0.2268 (  7302 PWs)   bands (ev):

   -38.5909 -38.5904 -19.5760 -19.5697 -19.5000 -19.4929 -19.4903 -19.4841
   -15.8017 -15.7339 -14.6055 -14.5804 -14.5604 -14.5343  -6.2221  -6.1668
    -2.5887  -2.5636  -2.4656  -2.4135  -1.3109  -1.0256   0.0897   0.1135
     0.3813   0.4041   0.7359   0.8043   1.0454   1.1129   1.3737   1.4273

          k = 0.4444 0.3849-0.1361 (  7300 PWs)   bands (ev):

   -38.5907 -38.5906 -19.5733 -19.5721 -19.4973 -19.4960 -19.4884 -19.4863
   -15.7696 -15.7629 -14.5981 -14.5888 -14.5525 -14.5448  -6.2008  -6.1824
    -2.6053  -2.5526  -2.4390  -2.4285  -1.1850  -1.1457   0.0541   0.0768
     0.3811   0.4197   0.7493   0.8102   1.0619   1.0927   1.3844   1.4160

          k = 0.3333 0.3208-0.0907 (  7296 PWs)   bands (ev):

   -38.5910 -38.5904 -19.5769 -19.5684 -19.5003 -19.4930 -19.4913 -19.4827
   -15.8098 -15.7274 -14.6070 -14.5839 -14.5565 -14.5316  -6.2371  -6.1500
    -2.6279  -2.5217  -2.4556  -2.4284  -1.3514  -0.9865   0.0681   0.1343
     0.3426   0.4161   0.6972   0.8227   1.0443   1.1798   1.3795   1.4195

          k = 0.2222 0.2566-0.0454 (  7313 PWs)   bands (ev):

   -38.5913 -38.5901 -19.5800 -19.5651 -19.5024 -19.4966 -19.4867 -19.4799
   -15.8524 -15.6939 -14.6203 -14.5921 -14.5427 -14.5137  -6.2644  -6.1343
    -2.6260  -2.5253  -2.4635  -2.4407  -1.5023  -0.8396   0.1598   0.2317
     0.3135   0.3809   0.6369   0.7805   1.0171   1.2971   1.3817   1.4324

          k = 0.1111 0.1925 0.0000 (  7325 PWs)   bands (ev):

   -38.5915 -38.5899 -19.5824 -19.5628 -19.5030 -19.5000 -19.4822 -19.4785
   -15.8888 -15.6650 -14.6301 -14.6131 -14.5168 -14.4999  -6.2789  -6.1336
    -2.6044  -2.5479  -2.4678  -2.4625  -1.6134  -0.7124   0.2921   0.3008
     0.3125   0.3617   0.5929   0.6899   0.9580   1.3820   1.4214   1.4560

          k =-0.2222 0.1283 0.1814 (  7323 PWs)   bands (ev):

   -38.5914 -38.5900 -19.5815 -19.5650 -19.5054 -19.4946 -19.4871 -19.4765
   -15.8666 -15.6826 -14.6305 -14.5924 -14.5417 -14.4999  -6.2743  -6.1376
    -2.6311  -2.5165  -2.4827  -2.4303  -1.5493  -0.8070   0.2770   0.2931
     0.3603   0.3850   0.5464   0.7684   0.9985   1.3206   1.3227   1.4338

          k =-0.3333 0.0642 0.2268 (  7288 PWs)   bands (ev):

   -38.5912 -38.5902 -19.5800 -19.5673 -19.5057 -19.4912 -19.4905 -19.4770
   -15.8376 -15.7040 -14.6255 -14.5757 -14.5637 -14.5082  -6.2624  -6.1393
    -2.6427  -2.5134  -2.4779  -2.4044  -1.4644  -0.9077   0.2040   0.2500
     0.3645   0.4080   0.5840   0.8297   1.0271   1.2194   1.3026   1.4207

          k =-0.4444-0.0000 0.2722 (  7288 PWs)   bands (ev):

   -38.5910 -38.5904 -19.5774 -19.5701 -19.5045 -19.4949 -19.4871 -19.4793
   -15.8039 -15.7284 -14.6200 -14.5884 -14.5559 -14.5192  -6.2358  -6.1537
    -2.6267  -2.5500  -2.4553  -2.3899  -1.3457  -1.0147   0.1124   0.1500
     0.4116   0.4343   0.6528   0.8249   1.0494   1.1431   1.3026   1.4178

          k = 0.4444 0.5132-0.0907 (  7300 PWs)   bands (ev):

   -38.5908 -38.5906 -19.5743 -19.5729 -19.5017 -19.4984 -19.4838 -19.4828
   -15.7729 -15.7539 -14.6152 -14.6018 -14.5440 -14.5290  -6.1984  -6.1825
    -2.6042  -2.5794  -2.4357  -2.3968  -1.2108  -1.1285   0.0601   0.0669
     0.4228   0.4652   0.7085   0.7706   1.0944   1.1087   1.3147   1.4163

          k = 0.3333 0.4491-0.0454 (  7300 PWs)   bands (ev):

   -38.5909 -38.5905 -19.5756 -19.5709 -19.5013 -19.4974 -19.4873 -19.4813
   -15.7834 -15.7455 -14.6121 -14.6023 -14.5408 -14.5327  -6.2174  -6.1625
    -2.6370  -2.5326  -2.4304  -2.4198  -1.2582  -1.0763   0.0258   0.0863
     0.3779   0.4742   0.6823   0.8035   1.0704   1.1893   1.3126   1.4158

          k = 0.2222 0.3849 0.0000 (  7293 PWs)   bands (ev):

   -38.5911 -38.5903 -19.5780 -19.5677 -19.5026 -19.4922 -19.4920 -19.4799
   -15.8181 -15.7191 -14.6164 -14.5876 -14.5522 -14.5228  -6.2467  -6.1401
    -2.6452  -2.5081  -2.4411  -2.4392  -1.3912  -0.9511   0.0631   0.1558
     0.3354   0.4321   0.6502   0.8269   1.0506   1.2868   1.3015   1.4187

          k =-0.3333 0.1925 0.2722 (  7275 PWs)   bands (ev):

   -38.5912 -38.5902 -19.5797 -19.5691 -19.5075 -19.4937 -19.4872 -19.4755
   -15.8190 -15.7165 -14.6265 -14.5862 -14.5575 -14.5094  -6.2627  -6.1333
    -2.6729  -2.4868  -2.4819  -2.3776  -1.4264  -0.9756   0.2063   0.2623
     0.3955   0.4221   0.5440   0.8979   0.9920   1.2253   1.2255   1.4011

          k =-0.4444 0.1283 0.3175 (  7275 PWs)   bands (ev):

   -38.5910 -38.5903 -19.5784 -19.5711 -19.5075 -19.4964 -19.4842 -19.4760
   -15.7964 -15.7314 -14.6265 -14.6026 -14.5436 -14.5155  -6.2496  -6.1378
    -2.6733  -2.5197  -2.4526  -2.3600  -1.3575  -1.0442   0.1518   0.2022
     0.4310   0.4775   0.5755   0.8506   1.0042   1.1720   1.2401   1.3986

          k = 0.4444 0.6415-0.0454 (  7278 PWs)   bands (ev):

   -38.5909 -38.5905 -19.5764 -19.5729 -19.5058 -19.4989 -19.4820 -19.4784
   -15.7768 -15.7456 -14.6250 -14.6127 -14.5348 -14.5220  -6.2221  -6.1580
    -2.6387  -2.5708  -2.4309  -2.3633  -1.2681  -1.1026   0.0854   0.1092
     0.4612   0.5297   0.6412   0.7339   1.0807   1.1324   1.2527   1.4079

          k = 0.3333 0.5774 0.0000 (  7290 PWs)   bands (ev):

   -38.5907 -38.5907 -19.5743 -19.5737 -19.5025 -19.5005 -19.4824 -19.4810
   -15.7616 -15.7612 -14.6187 -14.6144 -14.5327 -14.5287  -6.1888  -6.1884
    -2.6163  -2.5819  -2.4245  -2.3869  -1.1716  -1.1699   0.0401   0.0600
     0.4310   0.5318   0.6752   0.7325   1.0973   1.1537   1.2722   1.4134

          k =-0.4444 0.2566 0.3629 (  7259 PWs)   bands (ev):

   -38.5910 -38.5904 -19.5786 -19.5722 -19.5088 -19.4975 -19.4822 -19.4748
   -15.7860 -15.7376 -14.6326 -14.6087 -14.5326 -14.5189  -6.2545  -6.1294
    -2.6975  -2.4918  -2.4636  -2.3396  -1.3472  -1.0807   0.1705   0.2320
     0.4226   0.5387   0.5544   0.8082   0.9853   1.1473   1.2514   1.3831

          k = 0.4444 0.7698 0.0000 (  7266 PWs)   bands (ev):

   -38.5910 -38.5904 -19.5779 -19.5728 -19.5082 -19.4984 -19.4815 -19.4756
   -15.7794 -15.7419 -14.6328 -14.6121 -14.5274 -14.5230  -6.2442  -6.1368
    -2.6843  -2.5254  -2.4423  -2.3407  -1.3157  -1.0969   0.1358   0.1835
     0.4506   0.5683   0.5964   0.7245   1.0286   1.1416   1.2430   1.3921

          k =-0.0000-0.0000 0.1361 (  7315 PWs)   bands (ev):

   -38.5916 -38.5898 -19.5839 -19.5619 -19.5022 -19.5022 -19.4786 -19.4786
   -15.9121 -15.6463 -14.6331 -14.6331 -14.4937 -14.4937  -6.2843  -6.1464
    -2.5661  -2.5661  -2.4851  -2.4851  -1.6691  -0.6242   0.2978   0.2978
     0.4484   0.4484   0.5877   0.5877   0.8723   1.4030   1.4645   1.4645

          k =-0.1111-0.0642 0.1814 (  7325 PWs)   bands (ev):

   -38.5915 -38.5899 -19.5829 -19.5631 -19.5027 -19.4998 -19.4814 -19.4787
   -15.8951 -15.6609 -14.6272 -14.6225 -14.5057 -14.5008  -6.2789  -6.1486
    -2.5696  -2.5590  -2.4955  -2.4635  -1.6170  -0.6972   0.2986   0.3073
     0.3751   0.4469   0.5857   0.6589   0.9181   1.3515   1.4055   1.4603

          k =-0.2222-0.1283 0.2268 (  7313 PWs)   bands (ev):

   -38.5913 -38.5901 -19.5805 -19.5656 -19.5019 -19.4965 -19.4854 -19.4805
   -15.8609 -15.6882 -14.6146 -14.6056 -14.5256 -14.5186  -6.2623  -6.1526
    -2.5617  -2.5576  -2.5090  -2.4339  -1.5114  -0.8274   0.2577   0.2639
     0.3339   0.4039   0.6517   0.7385   0.9864   1.2287   1.3726   1.4414

          k =-0.3333-0.1925 0.2722 (  7296 PWs)   bands (ev):

   -38.5910 -38.5904 -19.5773 -19.5687 -19.5001 -19.4925 -19.4902 -19.4835
   -15.8194 -15.7203 -14.6047 -14.5860 -14.5485 -14.5362  -6.2313  -6.1677
    -2.5752  -2.5484  -2.4994  -2.4161  -1.3690  -0.9738   0.1558   0.1608
     0.3752   0.3953   0.7152   0.8154   1.0260   1.1132   1.3615   1.4228

          k = 0.5556 0.3208-0.0907 (  7300 PWs)   bands (ev):

   -38.5907 -38.5906 -19.5735 -19.5723 -19.4977 -19.4947 -19.4886 -19.4866
   -15.7786 -15.7550 -14.6002 -14.5687 -14.5683 -14.5454  -6.1962  -6.1910
    -2.6135  -2.5262  -2.4652  -2.4212  -1.2089  -1.1305   0.0787   0.1058
     0.3755   0.4175   0.7321   0.8564   1.0512   1.0681   1.3704   1.4060

          k = 0.4444 0.2566-0.0454 (  7302 PWs)   bands (ev):

   -38.5909 -38.5904 -19.5758 -19.5696 -19.4998 -19.4930 -19.4912 -19.4836
   -15.7941 -15.7411 -14.6034 -14.5746 -14.5663 -14.5368  -6.2305  -6.1545
    -2.6406  -2.5030  -2.4419  -2.4418  -1.2978  -1.0472   0.0648   0.1265
     0.3411   0.4224   0.6994   0.8577   1.0402   1.1552   1.3855   1.3882

          k = 0.3333 0.1925 0.0000 (  7315 PWs)   bands (ev):

   -38.5912 -38.5902 -19.5792 -19.5662 -19.5026 -19.4948 -19.4886 -19.4802
   -15.8374 -15.7057 -14.6171 -14.5809 -14.5566 -14.5178  -6.2595  -6.1341
    -2.6420  -2.5103  -2.4494  -2.4430  -1.4578  -0.8930   0.1338   0.2059
     0.3159   0.3852   0.6410   0.8206   1.0314   1.2717   1.3838   1.3983

          k = 0.2222 0.1283 0.0454 (  7319 PWs)   bands (ev):

   -38.5914 -38.5900 -19.5818 -19.5635 -19.5038 -19.4981 -19.4842 -19.4780
   -15.8782 -15.6735 -14.6295 -14.6035 -14.5282 -14.5011  -6.2766  -6.1320
    -2.6201  -2.5352  -2.4630  -2.4547  -1.5846  -0.7532   0.2656   0.2885
     0.3331   0.3403   0.5845   0.7321   0.9819   1.3658   1.4184   1.4195

          k =-0.1111 0.0642 0.2268 (  7319 PWs)   bands (ev):

   -38.5914 -38.5900 -19.5825 -19.5640 -19.5034 -19.4978 -19.4834 -19.4779
   -15.8870 -15.6683 -14.6293 -14.6123 -14.5169 -14.4983  -6.2773  -6.1528
    -2.5886  -2.5352  -2.4949  -2.4612  -1.5897  -0.7338   0.3032   0.3054
     0.4010   0.4388   0.5763   0.6957   0.9328   1.3431   1.3529   1.4385

          k =-0.2222-0.0000 0.2722 (  7315 PWs)   bands (ev):

   -38.5913 -38.5901 -19.5810 -19.5661 -19.5037 -19.4942 -19.4873 -19.4782
   -15.8606 -15.6890 -14.6232 -14.5954 -14.5376 -14.5071  -6.2666  -6.1550
    -2.5980  -2.5249  -2.5013  -2.4346  -1.5118  -0.8367   0.2809   0.2993
     0.3477   0.4457   0.5885   0.7694   0.9892   1.2335   1.3199   1.4226

          k =-0.3333-0.0642 0.3175 (  7296 PWs)   bands (ev):

   -38.5911 -38.5903 -19.5784 -19.5689 -19.5029 -19.4919 -19.4901 -19.4800
   -15.8247 -15.7154 -14.6161 -14.5771 -14.5605 -14.5206  -6.2414  -6.1645
    -2.5901  -2.5508  -2.4850  -2.4109  -1.3966  -0.9610   0.1969   0.2067
     0.3812   0.4373   0.6484   0.8359   1.0280   1.1260   1.3029   1.4089

          k = 0.5556 0.4491-0.0454 (  7300 PWs)   bands (ev):

   -38.5908 -38.5906 -19.5752 -19.5719 -19.5009 -19.4964 -19.4862 -19.4829
   -15.7884 -15.7433 -14.6126 -14.5802 -14.5600 -14.5314  -6.2038  -6.1868
    -2.6107  -2.5451  -2.4600  -2.4063  -1.2605  -1.0901   0.1043   0.1275
     0.4137   0.4356   0.6930   0.8480   1.0649   1.0777   1.3070   1.4001

          k = 0.4444 0.3849 0.0000 (  7300 PWs)   bands (ev):

   -38.5908 -38.5906 -19.5750 -19.5717 -19.5008 -19.4971 -19.4867 -19.4824
   -15.7746 -15.7554 -14.6109 -14.5915 -14.5493 -14.5350  -6.2179  -6.1648
    -2.6463  -2.5102  -2.4415  -2.4201  -1.2306  -1.1182   0.0543   0.1117
     0.3746   0.4570   0.6844   0.8504   1.0473   1.1617   1.3147   1.3929

          k = 0.3333 0.3208 0.0454 (  7296 PWs)   bands (ev):

   -38.5911 -38.5903 -19.5778 -19.5683 -19.5033 -19.4930 -19.4906 -19.4796
   -15.8115 -15.7244 -14.6161 -14.5847 -14.5566 -14.5230  -6.2472  -6.1387
    -2.6575  -2.4970  -2.4455  -2.4279  -1.3759  -0.9794   0.0766   0.1622
     0.3390   0.4272   0.6430   0.8528   1.0461   1.2653   1.3099   1.3918

          k = 0.2222 0.2566 0.0907 (  7315 PWs)   bands (ev):

   -38.5913 -38.5901 -19.5803 -19.5655 -19.5043 -19.4945 -19.4882 -19.4782
   -15.8503 -15.6949 -14.6248 -14.5857 -14.5504 -14.5090  -6.2667  -6.1321
    -2.6398  -2.5159  -2.4638  -2.4314  -1.5024  -0.8508   0.1727   0.2446
     0.3233   0.3841   0.6034   0.8011   1.0229   1.3117   1.3570   1.4113

          k =-0.2222 0.1283 0.3175 (  7288 PWs)   bands (ev):

   -38.5912 -38.5902 -19.5804 -19.5677 -19.5053 -19.4906 -19.4904 -19.4769
   -15.8432 -15.7022 -14.6238 -14.5788 -14.5585 -14.5066  -6.2652  -6.1529
    -2.6295  -2.5021  -2.4959  -2.4145  -1.4693  -0.9047   0.2748   0.3106
     0.3960   0.4197   0.5696   0.8278   1.0162   1.1902   1.2477   1.4043

          k =-0.3333 0.0642 0.3629 (  7297 PWs)   bands (ev):

   -38.5911 -38.5903 -19.5790 -19.5700 -19.5056 -19.4940 -19.4870 -19.4772
   -15.8163 -15.7208 -14.6211 -14.5804 -14.5621 -14.5136  -6.2514  -6.1548
    -2.6369  -2.5293  -2.4671  -2.3902  -1.3928  -0.9945   0.2212   0.2500
     0.4103   0.4661   0.5901   0.8704   1.0057   1.1447   1.2223   1.3922

          k = 0.5556 0.5774 0.0000 (  7293 PWs)   bands (ev):

   -38.5909 -38.5905 -19.5768 -19.5722 -19.5045 -19.4976 -19.4837 -19.4790
   -15.7887 -15.7395 -14.6202 -14.5979 -14.5483 -14.5212  -6.2227  -6.1689
    -2.6156  -2.5751  -2.4400  -2.3814  -1.2936  -1.0803   0.1382   0.1474
     0.4635   0.4834   0.6419   0.8037   1.0639   1.1091   1.2366   1.3911

          k = 0.4444 0.5132 0.0454 (  7296 PWs)   bands (ev):

   -38.5907 -38.5907 -19.5743 -19.5740 -19.5020 -19.5005 -19.4822 -19.4812
   -15.7649 -15.7592 -14.6195 -14.6070 -14.5391 -14.5271  -6.1946  -6.1866
    -2.6258  -2.5677  -2.4225  -2.3935  -1.1834  -1.1693   0.0622   0.0894
     0.4412   0.5108   0.6672   0.7695   1.0802   1.1485   1.2636   1.3915

          k = 0.3333 0.4491 0.0907 (  7286 PWs)   bands (ev):

   -38.5909 -38.5905 -19.5761 -19.5711 -19.5029 -19.4977 -19.4861 -19.4799
   -15.7840 -15.7434 -14.6174 -14.6041 -14.5404 -14.5276  -6.2228  -6.1569
    -2.6479  -2.5311  -2.4247  -2.4117  -1.2729  -1.0725   0.0343   0.0995
     0.3929   0.4832   0.6560   0.8091   1.0677   1.2090   1.2959   1.3925

          k = 0.2222 0.3849 0.1361 (  7296 PWs)   bands (ev):

   -38.5911 -38.5903 -19.5778 -19.5683 -19.5034 -19.4930 -19.4903 -19.4797
   -15.8144 -15.7215 -14.6178 -14.5864 -14.5551 -14.5210  -6.2440  -6.1436
    -2.6394  -2.5224  -2.4554  -2.4131  -1.3795  -0.9681   0.0784   0.1539
     0.3570   0.4297   0.6522   0.8265   1.0497   1.2093   1.3518   1.4064

          k =-0.3333 0.1925 0.4082 (  7275 PWs)   bands (ev):

   -38.5910 -38.5903 -19.5788 -19.5715 -19.5071 -19.4961 -19.4841 -19.4759
   -15.7996 -15.7317 -14.6228 -14.5973 -14.5480 -14.5154  -6.2534  -6.1460
    -2.6692  -2.5039  -2.4690  -2.3652  -1.3629  -1.0502   0.2136   0.2701
     0.4218   0.4921   0.5827   0.8823   0.9481   1.1611   1.1968   1.3740

          k = 0.5556 0.7057 0.0454 (  7273 PWs)   bands (ev):

   -38.5909 -38.5904 -19.5778 -19.5728 -19.5070 -19.4981 -19.4820 -19.4765
   -15.7830 -15.7418 -14.6261 -14.6076 -14.5371 -14.5203  -6.2409  -6.1484
    -2.6681  -2.5323  -2.4434  -2.3552  -1.3119  -1.0958   0.1590   0.2005
     0.4605   0.5426   0.6118   0.7588   1.0149   1.1462   1.2195   1.3718

          k = 0.4444 0.6415 0.0907 (  7292 PWs)   bands (ev):

   -38.5908 -38.5906 -19.5760 -19.5736 -19.5053 -19.4999 -19.4811 -19.4786
   -15.7710 -15.7503 -14.6245 -14.6152 -14.5310 -14.5249  -6.2157  -6.1649
    -2.6355  -2.5776  -2.4214  -2.3669  -1.2453  -1.1279   0.0886   0.1074
     0.4849   0.5599   0.6516   0.6860   1.0805   1.1345   1.2538   1.3813

          k = 0.3333 0.5774 0.1361 (  7296 PWs)   bands (ev):

   -38.5907 -38.5907 -19.5742 -19.5739 -19.5020 -19.5010 -19.4820 -19.4813
   -15.7615 -15.7613 -14.6176 -14.6155 -14.5316 -14.5296  -6.1887  -6.1885
    -2.6088  -2.5918  -2.4138  -2.3952  -1.1711  -1.1703   0.0447   0.0545
     0.4543   0.5039   0.6912   0.7189   1.1055   1.1301   1.3186   1.3854

          k = 0.2222 0.5132 0.1814 (  7300 PWs)   bands (ev):

   -38.5908 -38.5906 -19.5749 -19.5716 -19.5011 -19.4974 -19.4862 -19.4825
   -15.7795 -15.7492 -14.6111 -14.6014 -14.5433 -14.5324  -6.2090  -6.1714
    -2.6120  -2.5654  -2.4303  -2.4123  -1.2365  -1.0957   0.0391   0.0713
     0.4098   0.4450   0.7111   0.7804   1.0796   1.1295   1.3724   1.3956

          k = 0.5556-0.3208-0.3175 (  7266 PWs)   bands (ev):

   -38.5910 -38.5904 -19.5780 -19.5729 -19.5080 -19.4983 -19.4815 -19.4756
   -15.7785 -15.7442 -14.6327 -14.6072 -14.5294 -14.5243  -6.2484  -6.1366
    -2.6933  -2.4953  -2.4588  -2.3444  -1.3163  -1.1079   0.1597   0.2243
     0.4405   0.5489   0.5895   0.7764   0.9831   1.1556   1.2514   1.3527

          k = 0.4444-0.3849-0.2722 (  7273 PWs)   bands (ev):

   -38.5909 -38.5904 -19.5775 -19.5726 -19.5072 -19.4984 -19.4822 -19.4765
   -15.7790 -15.7436 -14.6300 -14.6092 -14.5310 -14.5238  -6.2410  -6.1403
    -2.6817  -2.5202  -2.4396  -2.3552  -1.3045  -1.0979   0.1162   0.1735
     0.4599   0.5152   0.5840   0.8022   1.0095   1.1842   1.2538   1.3629

          k = 0.3333-0.4491-0.2268 (  7293 PWs)   bands (ev):

   -38.5909 -38.5905 -19.5764 -19.5719 -19.5048 -19.4982 -19.4839 -19.4789
   -15.7815 -15.7433 -14.6223 -14.6082 -14.5383 -14.5232  -6.2244  -6.1553
    -2.6456  -2.5523  -2.4290  -2.3822  -1.2771  -1.0826   0.0604   0.1071
     0.4521   0.4714   0.6406   0.7882   1.0670   1.1616   1.3088   1.3818

          k = 0.4444-0.2566-0.2268 (  7275 PWs)   bands (ev):

   -38.5910 -38.5903 -19.5783 -19.5710 -19.5075 -19.4966 -19.4843 -19.4760
   -15.7921 -15.7351 -14.6272 -14.6026 -14.5401 -14.5194  -6.2531  -6.1303
    -2.6927  -2.4788  -2.4667  -2.3640  -1.3522  -1.0564   0.1364   0.2095
     0.4283   0.4300   0.5779   0.9365   0.9410   1.2213   1.2666   1.3492

          k = 0.3333-0.3208-0.1814 (  7297 PWs)   bands (ev):

   -38.5911 -38.5903 -19.5784 -19.5694 -19.5061 -19.4947 -19.4872 -19.4772
   -15.8066 -15.7256 -14.6233 -14.5930 -14.5511 -14.5166  -6.2516  -6.1345
    -2.6715  -2.5031  -2.4542  -2.3881  -1.3790  -1.0020   0.1132   0.1878
     0.3845   0.4291   0.5999   0.8734   1.0285   1.2293   1.2958   1.3727

          k = 0.3333-0.1925-0.1361 (  7288 PWs)   bands (ev):

   -38.5912 -38.5902 -19.5797 -19.5671 -19.5059 -19.4912 -19.4910 -19.4769
   -15.8325 -15.7077 -14.6249 -14.5714 -14.5687 -14.5103  -6.2646  -6.1291
    -2.6651  -2.4947  -2.4649  -2.4091  -1.4587  -0.9181   0.1669   0.2379
     0.3441   0.3875   0.5813   0.8577   1.0326   1.2976   1.3102   1.3735

          k =-0.0000-0.0000 0.2722 (  7309 PWs)   bands (ev):

   -38.5914 -38.5900 -19.5824 -19.5645 -19.5002 -19.5002 -19.4809 -19.4809
   -15.8868 -15.6703 -14.6203 -14.6203 -14.5067 -14.5067  -6.2762  -6.1637
    -2.5540  -2.5540  -2.4865  -2.4865  -1.5756  -0.7355   0.3058   0.3058
     0.4261   0.4261   0.6678   0.6678   0.9087   1.3365   1.3767   1.3767

          k =-0.1111-0.0642 0.3175 (  7313 PWs)   bands (ev):

   -38.5913 -38.5901 -19.5812 -19.5661 -19.5015 -19.4961 -19.4853 -19.4799
   -15.8669 -15.6870 -14.6176 -14.6048 -14.5237 -14.5115  -6.2679  -6.1687
    -2.5652  -2.5325  -2.5095  -2.4588  -1.5129  -0.8179   0.3017   0.3184
     0.3588   0.4668   0.6245   0.7634   0.9555   1.2513   1.3184   1.3768

          k =-0.2222-0.1283 0.3629 (  7293 PWs)   bands (ev):

   -38.5911 -38.5903 -19.5791 -19.5686 -19.5017 -19.4916 -19.4905 -19.4803
   -15.8346 -15.7107 -14.6131 -14.5855 -14.5457 -14.5234  -6.2463  -6.1753
    -2.5715  -2.5293  -2.5144  -2.4290  -1.4145  -0.9389   0.2507   0.2638
     0.3626   0.4891   0.6070   0.8581   1.0123   1.1251   1.2945   1.3621

          k = 0.6667 0.3849 0.0000 (  7300 PWs)   bands (ev):

   -38.5909 -38.5905 -19.5763 -19.5716 -19.5008 -19.4958 -19.4870 -19.4818
   -15.7993 -15.7357 -14.6132 -14.5677 -14.5662 -14.5327  -6.2105  -6.1915
    -2.6110  -2.5093  -2.4921  -2.4125  -1.2959  -1.0654   0.1528   0.1925
     0.4167   0.4522   0.6469   0.9127   1.0354   1.0630   1.2923   1.3501

          k = 0.5556 0.3208 0.0454 (  7300 PWs)   bands (ev):

   -38.5908 -38.5906 -19.5745 -19.5732 -19.5013 -19.4980 -19.4845 -19.4824
   -15.7666 -15.7627 -14.6155 -14.5852 -14.5506 -14.5356  -6.2174  -6.1697
    -2.6543  -2.4777  -2.4707  -2.4111  -1.1967  -1.1694   0.0891   0.1491
     0.4009   0.4536   0.6598   0.9061   1.0053   1.1507   1.3074   1.3380

          k = 0.4444 0.2566 0.0907 (  7288 PWs)   bands (ev):

   -38.5910 -38.5904 -19.5773 -19.5700 -19.5044 -19.4951 -19.4875 -19.4791
   -15.7952 -15.7365 -14.6173 -14.5903 -14.5515 -14.5256  -6.2448  -6.1391
    -2.6750  -2.4728  -2.4602  -2.4077  -1.3335  -1.0420   0.0900   0.1692
     0.3580   0.4353   0.6304   0.8984   1.0189   1.2467   1.3163   1.3280

          k =-0.1111 0.0642 0.3629 (  7315 PWs)   bands (ev):

   -38.5912 -38.5902 -19.5805 -19.5674 -19.5016 -19.4940 -19.4872 -19.4799
   -15.8546 -15.6984 -14.6152 -14.5946 -14.5358 -14.5124  -6.2649  -6.1747
    -2.5791  -2.5129  -2.5075  -2.4576  -1.4711  -0.8684   0.3056   0.3232
     0.3987   0.4148   0.6686   0.7981   0.9781   1.2161   1.2599   1.3492

          k =-0.2222-0.0000 0.4082 (  7296 PWs)   bands (ev):

   -38.5911 -38.5903 -19.5791 -19.5695 -19.5023 -19.4915 -19.4899 -19.4796
   -15.8291 -15.7171 -14.6125 -14.5776 -14.5566 -14.5192  -6.2510  -6.1781
    -2.5879  -2.5352  -2.4847  -2.4316  -1.3976  -0.9641   0.2802   0.2971
     0.3717   0.4746   0.6390   0.8786   1.0208   1.1105   1.2298   1.3348

          k = 0.6667 0.5132 0.0454 (  7286 PWs)   bands (ev):

   -38.5909 -38.5905 -19.5771 -19.5719 -19.5021 -19.4964 -19.4857 -19.4801
   -15.7995 -15.7364 -14.6139 -14.5781 -14.5595 -14.5267  -6.2221  -6.1878
    -2.5946  -2.5613  -2.4556  -2.4106  -1.3059  -1.0673   0.1977   0.2194
     0.4237   0.5178   0.6116   0.8957   1.0461   1.0718   1.2267   1.3280

          k = 0.5556 0.4491 0.0907 (  7296 PWs)   bands (ev):

   -38.5907 -38.5907 -19.5747 -19.5743 -19.5016 -19.5001 -19.4821 -19.4813
   -15.7723 -15.7551 -14.6197 -14.5933 -14.5455 -14.5300  -6.2076  -6.1838
    -2.6399  -2.5351  -2.4330  -2.4020  -1.2059  -1.1681   0.1144   0.1594
     0.4731   0.4778   0.6303   0.8546   1.0257   1.1519   1.2480   1.3289

          k = 0.4444 0.3849 0.1361 (  7293 PWs)   bands (ev):

   -38.5909 -38.5905 -19.5765 -19.5720 -19.5046 -19.4981 -19.4841 -19.4788
   -15.7776 -15.7485 -14.6223 -14.6013 -14.5394 -14.5276  -6.2319  -6.1501
    -2.6710  -2.5086  -2.4354  -2.3918  -1.2737  -1.1034   0.0791   0.1469
     0.4207   0.4707   0.6262   0.8593   1.0191   1.2312   1.2652   1.3363

          k =-0.2222 0.1283 0.4536 (  7288 PWs)   bands (ev):

   -38.5910 -38.5904 -19.5785 -19.5710 -19.5035 -19.4939 -19.4868 -19.4789
   -15.8115 -15.7306 -14.6106 -14.5759 -14.5636 -14.5204  -6.2493  -6.1751
    -2.6188  -2.5192  -2.4764  -2.4120  -1.3545  -1.0271   0.2647   0.3202
     0.4137   0.4272   0.6783   0.9257   0.9656   1.1177   1.1749   1.3172

          k = 0.6667 0.6415 0.0907 (  7293 PWs)   bands (ev):

   -38.5909 -38.5905 -19.5773 -19.5728 -19.5039 -19.4972 -19.4836 -19.4788
   -15.7899 -15.7440 -14.6120 -14.5940 -14.5493 -14.5248  -6.2342  -6.1759
    -2.6253  -2.5473  -2.4473  -2.3935  -1.2956  -1.0964   0.2159   0.2436
     0.4564   0.4909   0.6701   0.8296   1.0156   1.1270   1.1806   1.3092

          k = 0.5556 0.5774 0.1361 (  7287 PWs)   bands (ev):

   -38.5908 -38.5906 -19.5758 -19.5742 -19.5031 -19.5006 -19.4811 -19.4795
   -15.7713 -15.7543 -14.6165 -14.6086 -14.5374 -14.5276  -6.2058  -6.1871
    -2.6066  -2.5940  -2.4141  -2.3908  -1.2278  -1.1544   0.1450   0.1474
     0.5135   0.5363   0.6478   0.7300   1.0908   1.0980   1.2392   1.3173

          k = 0.4444 0.5132 0.1814 (  7287 PWs)   bands (ev):

   -38.5908 -38.5906 -19.5754 -19.5739 -19.5034 -19.5011 -19.4813 -19.4795
   -15.7650 -15.7570 -14.6223 -14.6133 -14.5315 -14.5277  -6.2062  -6.1749
    -2.6344  -2.5730  -2.4062  -2.3903  -1.2107  -1.1554   0.0746   0.1019
     0.5023   0.5211   0.6356   0.7343   1.0739   1.1480   1.3013   1.3309

          k = 0.6667-0.3849-0.2722 (  7278 PWs)   bands (ev):

   -38.5909 -38.5905 -19.5770 -19.5736 -19.5049 -19.4982 -19.4820 -19.4782
   -15.7773 -15.7522 -14.6188 -14.5981 -14.5414 -14.5268  -6.2373  -6.1651
    -2.6575  -2.5132  -2.4573  -2.3761  -1.2744  -1.1317   0.1920   0.2530
     0.4450   0.5254   0.6561   0.8084   0.9807   1.1624   1.2043   1.2875

          k = 0.5556-0.4491-0.2268 (  7292 PWs)   bands (ev):

   -38.5908 -38.5906 -19.5764 -19.5739 -19.5048 -19.4996 -19.4812 -19.4784
   -15.7687 -15.7560 -14.6240 -14.6041 -14.5338 -14.5293  -6.2264  -6.1645
    -2.6579  -2.5363  -2.4314  -2.3752  -1.2460  -1.1505   0.1376   0.1845
     0.4843   0.5669   0.5884   0.7812   1.0106   1.1788   1.2389   1.2983

          k = 0.5556-0.3208-0.1814 (  7278 PWs)   bands (ev):

   -38.5909 -38.5905 -19.5766 -19.5732 -19.5053 -19.4986 -19.4823 -19.4783
   -15.7706 -15.7544 -14.6269 -14.5988 -14.5355 -14.5301  -6.2356  -6.1508
    -2.6800  -2.4893  -2.4549  -2.3761  -1.2631  -1.1365   0.1216   0.1915
     0.4602   0.4778   0.5997   0.9043   0.9428   1.2359   1.2646   1.2698

          k = 0.0000 0.0000 0.4082 (  7297 PWs)   bands (ev):

   -38.5912 -38.5902 -19.5798 -19.5682 -19.4970 -19.4970 -19.4844 -19.4844
   -15.8485 -15.7073 -14.6006 -14.6006 -14.5265 -14.5265  -6.2620  -6.1885
    -2.5368  -2.5368  -2.4917  -2.4917  -1.4337  -0.8934   0.3208   0.3208
     0.3990   0.3990   0.7858   0.7858   0.9683   1.2446   1.2459   1.2459

          k =-0.1111-0.0642 0.4536 (  7296 PWs)   bands (ev):

   -38.5910 -38.5904 -19.5786 -19.5700 -19.4990 -19.4918 -19.4898 -19.4824
   -15.8279 -15.7239 -14.6017 -14.5821 -14.5464 -14.5286  -6.2507  -6.1947
    -2.5545  -2.5250  -2.5047  -2.4607  -1.3693  -0.9743   0.3170   0.3282
     0.3492   0.4391   0.7379   0.8991   1.0124   1.1161   1.2185   1.2495

          k = 0.7778 0.4491 0.0907 (  7300 PWs)   bands (ev):

   -38.5909 -38.5905 -19.5770 -19.5722 -19.5000 -19.4956 -19.4867 -19.4813
   -15.8010 -15.7409 -14.6063 -14.5678 -14.5631 -14.5333  -6.2251  -6.2016
    -2.5851  -2.5369  -2.4766  -2.4291  -1.2930  -1.0747   0.2480   0.2792
     0.3882   0.5076   0.6580   0.9827   0.9971   1.0676   1.2118   1.2440

          k = 0.6667 0.3849 0.1361 (  7290 PWs)   bands (ev):

   -38.5907 -38.5907 -19.5752 -19.5745 -19.5014 -19.4996 -19.4822 -19.4811
   -15.7757 -15.7552 -14.6175 -14.5857 -14.5475 -14.5329  -6.2158  -6.1876
    -2.6385  -2.5145  -2.4569  -2.4014  -1.2149  -1.1709   0.1667   0.2227
     0.4431   0.5515   0.5837   0.9230   0.9653   1.1661   1.2340   1.2477

          k =-0.1111 0.0642 0.4990 (  7302 PWs)   bands (ev):

   -38.5909 -38.5904 -19.5776 -19.5713 -19.4985 -19.4914 -19.4899 -19.4832
   -15.8131 -15.7382 -14.5951 -14.5730 -14.5581 -14.5328  -6.2461  -6.2013
    -2.5636  -2.5217  -2.4914  -2.4625  -1.3176  -1.0308   0.3117   0.3510
     0.3822   0.3843   0.8023   0.9360   1.0293   1.0687   1.1675   1.2191

          k = 0.7778 0.5774 0.1361 (  7300 PWs)   bands (ev):

   -38.5908 -38.5906 -19.5764 -19.5731 -19.4995 -19.4957 -19.4858 -19.4822
   -15.7915 -15.7526 -14.5969 -14.5779 -14.5564 -14.5364  -6.2296  -6.2043
    -2.5731  -2.5548  -2.4591  -2.4399  -1.2587  -1.1096   0.2840   0.2908
     0.4051   0.4449   0.7686   0.9148   1.0369   1.0867   1.1546   1.2113

          k = 0.6667 0.5132 0.1814 (  7296 PWs)   bands (ev):

   -38.5907 -38.5907 -19.5752 -19.5749 -19.5007 -19.4999 -19.4817 -19.4812
   -15.7713 -15.7621 -14.6085 -14.5942 -14.5422 -14.5356  -6.2121  -6.1994
    -2.6100  -2.5590  -2.4336  -2.4102  -1.2029  -1.1832   0.2044   0.2319
     0.4590   0.5160   0.6835   0.8186   1.0443   1.1310   1.2069   1.2292

          k = 0.7778-0.4491-0.2268 (  7300 PWs)   bands (ev):

   -38.5908 -38.5906 -19.5756 -19.5743 -19.5002 -19.4973 -19.4836 -19.4823
   -15.7758 -15.7648 -14.5978 -14.5859 -14.5495 -14.5384  -6.2274  -6.2004
    -2.6026  -2.5319  -2.4640  -2.4223  -1.2182  -1.1601   0.2539   0.3031
     0.4076   0.4604   0.7770   0.8692   1.0210   1.1447   1.1492   1.1898

          k =-0.0000-0.0000 0.5443 (  7294 PWs)   bands (ev):

   -38.5909 -38.5905 -19.5764 -19.5724 -19.4929 -19.4929 -19.4886 -19.4886
   -15.8020 -15.7530 -14.5765 -14.5765 -14.5507 -14.5507  -6.2415  -6.2159
    -2.5183  -2.5183  -2.5024  -2.5024  -1.2607  -1.0747   0.3428   0.3428
     0.3700   0.3700   0.9315   0.9315   1.0486   1.0909   1.0909   1.1440

          k = 0.8889 0.5132 0.1814 (  7300 PWs)   bands (ev):

   -38.5907 -38.5906 -19.5752 -19.5740 -19.4955 -19.4944 -19.4874 -19.4859
   -15.7832 -15.7677 -14.5813 -14.5709 -14.5573 -14.5498  -6.2278  -6.2219
    -2.5479  -2.5347  -2.4832  -2.4686  -1.2030  -1.1465   0.3220   0.3419
     0.3612   0.3996   0.8853   0.9610   1.0446   1.0816   1.1112   1.1257

     highest occupied level (ev):     1.4955

!    total energy              =    -366.43788427 Ry
     Harris-Foulkes estimate   =    -366.43788559 Ry
     estimated scf accuracy    <       0.00000169 Ry

     The total energy is the sum of the following terms:

     one-electron contribution =    -167.19391345 Ry
     hartree contribution      =     105.90350459 Ry
     xc contribution           =     -72.68140265 Ry
     ewald contribution        =    -232.46607275 Ry

     convergence has been achieved in   8 iterations

     Forces acting on atoms (cartesian axes, Ry/au):

     atom    1 type  1   force =    -0.00000000   -0.00000000   -0.00000000
     atom    2 type  1   force =     0.00000000    0.00000000    0.00000000
     atom    3 type  2   force =    -0.00000000   -0.00000000   -0.00000000
     atom    4 type  2   force =     0.00000000   -0.00000000   -0.00000000
     atom    5 type  3   force =    -0.12158231    0.21058673    0.00000000
     atom    6 type  3   force =     0.24316461   -0.00000000    0.00000000
     atom    7 type  3   force =    -0.12158231   -0.21058673   -0.00000000
     atom    8 type  3   force =    -0.24316461    0.00000000   -0.00000000
     atom    9 type  3   force =     0.12158231    0.21058673    0.00000000
     atom   10 type  3   force =     0.12158231   -0.21058673   -0.00000000

     Total force =     0.595629     Total SCF correction =     0.001698


     Computing stress (Cartesian axis) and pressure

          total   stress  (Ry/bohr**3)                   (kbar)     P= -286.66
  -0.00282334  -0.00000000   0.00000000       -415.33     -0.00      0.00
  -0.00000000  -0.00282334  -0.00000000         -0.00   -415.33     -0.00
   0.00000000  -0.00000000  -0.00019936          0.00     -0.00    -29.33


     BFGS Geometry Optimization

     number of scf cycles    =   1
     number of bfgs steps    =   0

     enthalpy new            =    -366.4378842652 Ry

     new trust radius        =       0.4934546855 bohr
     new conv_thr            =       0.0000100000 Ry

     new unit-cell volume =   1050.21840 a.u.^3 (   155.62631 Ang^3 )
     density =      2.13590 g/cm^3

CELL_PARAMETERS (alat= 12.00000000)
   0.464708272  -0.268299446   0.812427196
   0.000000000   0.536598892   0.812427196
  -0.464708272  -0.268299446   0.812427196

ATOMIC_POSITIONS (crystal)
Ca       0.500000000   0.500000000   0.500000000
Ca       0.000000000   0.000000000   0.000000000
C        0.250000000   0.250000000   0.250000000
C        0.750000000   0.750000000   0.750000000
O        0.486636527   1.013363473   0.250000000
O        1.013363473   0.250000000   0.486636527
O        0.250000000   0.486636527   1.013363473
O       -0.013363473   0.750000000   0.513363473
O        0.750000000   0.513363473  -0.013363473
O        0.513363473  -0.013363473   0.750000000



     Writing output data file CCO_k.save/
     NEW-OLD atomic charge density approx. for the potential

     Check: negative core charge=   -0.000002
     extrapolated charge   53.54076, renormalised to   64.00000

     total cpu time spent up to now is      272.5 secs

     Self-consistent Calculation

     iteration #  1     ecut=    50.00 Ry     beta= 0.70
     CG style diagonalization
     c_bands:  2 eigenvalues not converged
     c_bands:  3 eigenvalues not converged
     c_bands:  3 eigenvalues not converged
     c_bands:  4 eigenvalues not converged
     c_bands:  3 eigenvalues not converged
     c_bands:  5 eigenvalues not converged
     c_bands:  4 eigenvalues not converged
     c_bands:  5 eigenvalues not converged
     c_bands:  4 eigenvalues not converged
     c_bands:  5 eigenvalues not converged
     c_bands:  4 eigenvalues not converged
     c_bands:  5 eigenvalues not converged
     c_bands:  2 eigenvalues not converged
     c_bands:  3 eigenvalues not converged
     c_bands:  5 eigenvalues not converged
     c_bands:  3 eigenvalues not converged
     c_bands:  1 eigenvalues not converged
     c_bands:  2 eigenvalues not converged
     c_bands:  5 eigenvalues not converged
     c_bands:  4 eigenvalues not converged
     c_bands:  4 eigenvalues not converged
     c_bands:  5 eigenvalues not converged
     c_bands:  1 eigenvalues not converged
     c_bands:  4 eigenvalues not converged
     c_bands:  4 eigenvalues not converged
     c_bands:  4 eigenvalues not converged
     c_bands:  4 eigenvalues not converged
     c_bands:  4 eigenvalues not converged
     c_bands:  3 eigenvalues not converged
     c_bands:  5 eigenvalues not converged
     c_bands:  4 eigenvalues not converged
     c_bands:  4 eigenvalues not converged
     c_bands:  5 eigenvalues not converged
     c_bands:  5 eigenvalues not converged
     c_bands:  2 eigenvalues not converged
     c_bands:  2 eigenvalues not converged
     c_bands:  3 eigenvalues not converged
     c_bands:  3 eigenvalues not converged
     c_bands:  4 eigenvalues not converged
     c_bands:  4 eigenvalues not converged
     c_bands:  4 eigenvalues not converged
     c_bands:  3 eigenvalues not converged
     c_bands:  4 eigenvalues not converged
     c_bands:  4 eigenvalues not converged
     c_bands:  2 eigenvalues not converged
     c_bands:  3 eigenvalues not converged
     c_bands:  4 eigenvalues not converged
     c_bands:  3 eigenvalues not converged
     c_bands:  5 eigenvalues not converged
     c_bands:  4 eigenvalues not converged
     c_bands:  5 eigenvalues not converged
     c_bands:  4 eigenvalues not converged
     c_bands:  5 eigenvalues not converged
     c_bands:  4 eigenvalues not converged
     c_bands:  3 eigenvalues not converged
     c_bands:  4 eigenvalues not converged
     c_bands:  3 eigenvalues not converged
     c_bands:  2 eigenvalues not converged
     c_bands:  4 eigenvalues not converged
     c_bands:  4 eigenvalues not converged
     c_bands:  2 eigenvalues not converged
     c_bands:  3 eigenvalues not converged
     c_bands:  2 eigenvalues not converged
     c_bands:  4 eigenvalues not converged
     c_bands:  3 eigenvalues not converged
     c_bands:  1 eigenvalues not converged
     c_bands:  2 eigenvalues not converged
     c_bands:  2 eigenvalues not converged
     ethr =  1.00E-06,  avg # of iterations = 13.4

     total cpu time spent up to now is      375.6 secs

     total energy              =    -360.78255606 Ry
     Harris-Foulkes estimate   =    -388.25629704 Ry
     estimated scf accuracy    <       5.66857014 Ry

     iteration #  2     ecut=    50.00 Ry     beta= 0.70
     CG style diagonalization
     ethr =  8.86E-03,  avg # of iterations =  5.4

     total cpu time spent up to now is      418.5 secs

     total energy              =    -364.88626332 Ry
     Harris-Foulkes estimate   =    -373.43174295 Ry
     estimated scf accuracy    <      26.22477946 Ry

     iteration #  3     ecut=    50.00 Ry     beta= 0.70
     CG style diagonalization
     ethr =  8.86E-03,  avg # of iterations =  4.2

     total cpu time spent up to now is      452.0 secs

     total energy              =    -367.22878685 Ry
     Harris-Foulkes estimate   =    -367.68235863 Ry
     estimated scf accuracy    <       1.76273048 Ry

     iteration #  4     ecut=    50.00 Ry     beta= 0.70
     CG style diagonalization
     ethr =  2.75E-03,  avg # of iterations =  3.1

     total cpu time spent up to now is      477.3 secs

     total energy              =    -367.20143036 Ry
     Harris-Foulkes estimate   =    -367.34876585 Ry
     estimated scf accuracy    <       0.75696222 Ry

     iteration #  5     ecut=    50.00 Ry     beta= 0.70
     CG style diagonalization
     ethr =  1.18E-03,  avg # of iterations =  3.0

     total cpu time spent up to now is      502.1 secs

     total energy              =    -367.10602433 Ry
     Harris-Foulkes estimate   =    -367.23818517 Ry
     estimated scf accuracy    <       0.34142072 Ry

     iteration #  6     ecut=    50.00 Ry     beta= 0.70
     CG style diagonalization
     ethr =  5.33E-04,  avg # of iterations =  3.7

     total cpu time spent up to now is      531.8 secs

     total energy              =    -367.16812811 Ry
     Harris-Foulkes estimate   =    -367.16952940 Ry
     estimated scf accuracy    <       0.00335053 Ry

     iteration #  7     ecut=    50.00 Ry     beta= 0.70
     CG style diagonalization
     ethr =  5.24E-06,  avg # of iterations =  5.3

     total cpu time spent up to now is      573.7 secs

     total energy              =    -367.17421304 Ry
     Harris-Foulkes estimate   =    -367.17529829 Ry
     estimated scf accuracy    <       0.00218973 Ry

     iteration #  8     ecut=    50.00 Ry     beta= 0.70
     CG style diagonalization
     ethr =  3.42E-06,  avg # of iterations =  3.9

     total cpu time spent up to now is      604.9 secs

     total energy              =    -367.17462191 Ry
     Harris-Foulkes estimate   =    -367.17474629 Ry
     estimated scf accuracy    <       0.00020574 Ry

     iteration #  9     ecut=    50.00 Ry     beta= 0.70
     CG style diagonalization
     ethr =  3.21E-07,  avg # of iterations =  4.2

     total cpu time spent up to now is      639.0 secs

     total energy              =    -367.17469963 Ry
     Harris-Foulkes estimate   =    -367.17472247 Ry
     estimated scf accuracy    <       0.00008667 Ry

     iteration # 10     ecut=    50.00 Ry     beta= 0.70
     CG style diagonalization
     ethr =  1.35E-07,  avg # of iterations =  3.2

     total cpu time spent up to now is      665.2 secs

     total energy              =    -367.17469705 Ry
     Harris-Foulkes estimate   =    -367.17470564 Ry
     estimated scf accuracy    <       0.00002122 Ry

     iteration # 11     ecut=    50.00 Ry     beta= 0.70
     CG style diagonalization
     ethr =  3.32E-08,  avg # of iterations =  3.7

     total cpu time spent up to now is      694.8 secs

     End of self-consistent calculation

          k = 0.0000 0.0000 0.0000 (  7391 PWs)   bands (ev):

   -36.9761 -36.9720 -18.0265 -17.9538 -17.9273 -17.9273 -17.8821 -17.8821
   -16.9917 -16.7294 -14.5025 -14.5025 -14.3195 -14.3195  -4.6818  -4.5865
    -2.2999  -2.2999  -2.2701  -2.2701  -1.9394  -0.8446   1.1860   1.1860
     1.4656   1.4656   1.4825   1.4825   2.3916   2.4990   2.4990   2.8511

          k =-0.1195-0.0690 0.0456 (  7315 PWs)   bands (ev):

   -36.9760 -36.9722 -18.0225 -17.9555 -17.9301 -17.9266 -17.8881 -17.8839
   -16.9706 -16.7413 -14.4970 -14.4921 -14.3324 -14.3257  -4.6631  -4.5904
    -2.3223  -2.3043  -2.2625  -2.2529  -1.8968  -0.8832   1.1859   1.1945
     1.3870   1.3964   1.5306   1.5424   2.3872   2.4580   2.5198   2.8301

          k =-0.2391-0.1380 0.0912 (  7309 PWs)   bands (ev):

   -36.9756 -36.9725 -18.0123 -17.9603 -17.9384 -17.9256 -17.8984 -17.8898
   -16.9205 -16.7683 -14.4819 -14.4684 -14.3633 -14.3429  -4.6194  -4.5953
    -2.3610  -2.3000  -2.2626  -2.2228  -1.7822  -0.9815   1.1864   1.2087
     1.2481   1.2716   1.6170   1.6334   2.3280   2.3598   2.6044   2.7837

          k =-0.3586-0.2071 0.1368 (  7297 PWs)   bands (ev):

   -36.9751 -36.9730 -17.9991 -17.9665 -17.9468 -17.9273 -17.9045 -17.8990
   -16.8685 -16.7944 -14.4608 -14.4470 -14.3937 -14.3674  -4.5893  -4.5787
    -2.3869  -2.3032  -2.2633  -2.2016  -1.6199  -1.1113   1.0821   1.1373
     1.2040   1.2415   1.7008   1.7353   2.2398   2.2501   2.6907   2.7464

          k =-0.4782-0.2761 0.1824 (  7294 PWs)   bands (ev):

   -36.9744 -36.9737 -17.9858 -17.9744 -17.9461 -17.9358 -17.9068 -17.9056
   -16.8329 -16.8128 -14.4417 -14.4373 -14.4063 -14.3926  -4.5730  -4.5632
    -2.3821  -2.3465  -2.2309  -2.2044  -1.4380  -1.2636   1.0089   1.0377
     1.2254   1.2445   1.7695   1.7869   2.1738   2.1752   2.7309   2.7360

          k =-0.1195 0.0690 0.0912 (  7327 PWs)   bands (ev):

   -36.9760 -36.9722 -18.0223 -17.9575 -17.9326 -17.9230 -17.8912 -17.8812
   -16.9672 -16.7437 -14.4977 -14.4878 -14.3372 -14.3245  -4.6630  -4.5933
    -2.3303  -2.2968  -2.2634  -2.2485  -1.8863  -0.8931   1.1876   1.1953
     1.3697   1.4343   1.4843   1.5824   2.3750   2.4769   2.4953   2.8231

          k =-0.2391 0.0000 0.1368 (  7319 PWs)   bands (ev):

   -36.9757 -36.9725 -18.0153 -17.9639 -17.9382 -17.9198 -17.9003 -17.8835
   -16.9295 -16.7646 -14.4877 -14.4682 -14.3615 -14.3361  -4.6315  -4.5992
    -2.3578  -2.2954  -2.2645  -2.2216  -1.8016  -0.9683   1.1883   1.1993
     1.2781   1.3569   1.5333   1.6622   2.3047   2.4095   2.5690   2.7848

          k =-0.3586-0.0690 0.1824 (  7315 PWs)   bands (ev):

   -36.9752 -36.9729 -18.0045 -17.9717 -17.9442 -17.9215 -17.9071 -17.8896
   -16.8812 -16.7883 -14.4721 -14.4464 -14.3904 -14.3563  -4.5950  -4.5919
    -2.3762  -2.3068  -2.2657  -2.1977  -1.6623  -1.0808   1.1100   1.1706
     1.2171   1.2860   1.6234   1.7470   2.2050   2.3175   2.6615   2.7480

          k =-0.4782-0.1380 0.2279 (  7302 PWs)   bands (ev):

   -36.9746 -36.9735 -17.9926 -17.9762 -17.9478 -17.9341 -17.9055 -17.8963
   -16.8444 -16.8039 -14.4593 -14.4355 -14.4049 -14.3768  -4.5754  -4.5699
    -2.3716  -2.3525  -2.2416  -2.1921  -1.4948  -1.2140   1.0192   1.0523
     1.2443   1.2726   1.7060   1.7908   2.1453   2.2307   2.7162   2.7382

          k = 0.4782 0.4141-0.1368 (  7300 PWs)   bands (ev):

   -36.9742 -36.9740 -17.9825 -17.9803 -17.9516 -17.9400 -17.9047 -17.8982
   -16.8244 -16.8163 -14.4534 -14.4411 -14.3980 -14.3884  -4.5733  -4.5537
    -2.4011  -2.3375  -2.2199  -2.2040  -1.3701  -1.3265   0.9756   1.0124
     1.2439   1.2755   1.7312   1.7994   2.1532   2.1911   2.7260   2.7461

          k = 0.3586 0.3451-0.0912 (  7296 PWs)   bands (ev):

   -36.9748 -36.9733 -17.9917 -17.9706 -17.9589 -17.9281 -17.9090 -17.8926
   -16.8406 -16.8099 -14.4606 -14.4414 -14.4021 -14.3718  -4.5886  -4.5528
    -2.4202  -2.2943  -2.2408  -2.2009  -1.5422  -1.1762   0.9887   1.0872
     1.2160   1.2769   1.6749   1.8019   2.1784   2.2500   2.7238   2.7337

          k = 0.2391 0.2761-0.0456 (  7313 PWs)   bands (ev):

   -36.9754 -36.9727 -18.0040 -17.9629 -17.9534 -17.9192 -17.9102 -17.8866
   -16.8844 -16.7881 -14.4772 -14.4487 -14.3887 -14.3498  -4.5975  -4.5829
    -2.4036  -2.2851  -2.2456  -2.2138  -1.7058  -1.0475   1.0953   1.1882
     1.2054   1.2718   1.6000   1.7365   2.2520   2.3428   2.6651   2.7520

          k = 0.1195 0.2071 0.0000 (  7325 PWs)   bands (ev):

   -36.9758 -36.9724 -18.0156 -17.9577 -17.9403 -17.9224 -17.8994 -17.8835
   -16.9362 -16.7603 -14.4911 -14.4730 -14.3565 -14.3328  -4.6294  -4.5949
    -2.3627  -2.2975  -2.2486  -2.2358  -1.8317  -0.9429   1.1796   1.2074
     1.2687   1.3468   1.5409   1.6296   2.3386   2.4242   2.5720   2.7978

          k =-0.2391 0.1380 0.1824 (  7323 PWs)   bands (ev):

   -36.9755 -36.9726 -18.0123 -17.9752 -17.9428 -17.9114 -17.9065 -17.8790
   -16.9065 -16.7794 -14.4862 -14.4510 -14.3822 -14.3374  -4.6124  -4.6086
    -2.3880  -2.2869  -2.2582  -2.1971  -1.7599  -1.0147   1.1712   1.2013
     1.2862   1.3643   1.4903   1.7301   2.2173   2.4277   2.5818   2.7516

          k =-0.3586 0.0690 0.2279 (  7288 PWs)   bands (ev):

   -36.9752 -36.9729 -18.0051 -17.9875 -17.9472 -17.9153 -17.9040 -17.8804
   -16.8681 -16.7998 -14.4784 -14.4311 -14.4075 -14.3488  -4.6099  -4.5787
    -2.4082  -2.2948  -2.2567  -2.1705  -1.6633  -1.0986   1.0953   1.2000
     1.2571   1.3341   1.5345   1.8036   2.1111   2.3708   2.6577   2.7151

          k =-0.4782 0.0000 0.2735 (  7288 PWs)   bands (ev):

   -36.9748 -36.9734 -17.9967 -17.9919 -17.9522 -17.9284 -17.8976 -17.8852
   -16.8371 -16.8108 -14.4727 -14.4376 -14.4046 -14.3621  -4.5920  -4.5568
    -2.3999  -2.3398  -2.2439  -2.1589  -1.5309  -1.1969   1.0057   1.0890
     1.2861   1.3327   1.6103   1.7990   2.0828   2.2907   2.7066   2.7205

          k = 0.4782 0.5522-0.0912 (  7300 PWs)   bands (ev):

   -36.9742 -36.9739 -17.9908 -17.9857 -17.9570 -17.9421 -17.8937 -17.8902
   -16.8234 -16.8123 -14.4693 -14.4518 -14.3907 -14.3723  -4.5613  -4.5598
    -2.4002  -2.3571  -2.2295  -2.1679  -1.3882  -1.3104   0.9714   0.9764
     1.3004   1.3348   1.6750   1.7424   2.1386   2.2224   2.7254   2.7408

          k = 0.3586 0.4832-0.0456 (  7300 PWs)   bands (ev):

   -36.9745 -36.9737 -17.9901 -17.9770 -17.9630 -17.9410 -17.9002 -17.8871
   -16.8191 -16.8186 -14.4643 -14.4587 -14.3849 -14.3754  -4.5788  -4.5401
    -2.4359  -2.3040  -2.2252  -2.1907  -1.4450  -1.2562   0.9271   1.0156
     1.2584   1.3372   1.6540   1.7799   2.1744   2.2196   2.7169   2.7567

          k = 0.2391 0.4141 0.0000 (  7293 PWs)   bands (ev):

   -36.9750 -36.9731 -17.9950 -17.9689 -17.9647 -17.9269 -17.9087 -17.8852
   -16.8437 -16.8088 -14.4691 -14.4474 -14.3961 -14.3626  -4.5944  -4.5482
    -2.4359  -2.2744  -2.2283  -2.2118  -1.5858  -1.1429   0.9728   1.1084
     1.2200   1.3063   1.6170   1.8016   2.1849   2.2895   2.7154   2.7358

          k =-0.3586 0.2071 0.2735 (  7275 PWs)   bands (ev):

   -36.9751 -36.9730 -18.0048 -18.0019 -17.9494 -17.9160 -17.8965 -17.8765
   -16.8392 -16.8195 -14.4782 -14.4303 -14.4100 -14.3526  -4.6225  -4.5489
    -2.4422  -2.2796  -2.2582  -2.1377  -1.6227  -1.1523   1.0595   1.2282
     1.3020   1.3221   1.5018   1.8877   1.9738   2.3742   2.6688   2.6934

          k =-0.4782 0.1380 0.3191 (  7275 PWs)   bands (ev):

   -36.9748 -36.9733 -18.0130 -17.9967 -17.9529 -17.9224 -17.8903 -17.8776
   -16.8303 -16.8150 -14.4804 -14.4454 -14.3931 -14.3602  -4.6166  -4.5273
    -2.4468  -2.3095  -2.2454  -2.1202  -1.5453  -1.2140   0.9969   1.1569
     1.3400   1.3578   1.5343   1.7989   2.0045   2.3292   2.6528   2.7398

          k = 0.4782 0.6902-0.0456 (  7278 PWs)   bands (ev):

   -36.9745 -36.9736 -18.0082 -17.9904 -17.9584 -17.9340 -17.8865 -17.8824
   -16.8254 -16.8086 -14.4789 -14.4586 -14.3809 -14.3673  -4.5887  -4.5313
    -2.4129  -2.3676  -2.2316  -2.1266  -1.4465  -1.2753   0.9498   1.0349
     1.3634   1.4012   1.5969   1.6770   2.0927   2.2691   2.6836   2.7552

          k = 0.3586 0.6212 0.0000 (  7290 PWs)   bands (ev):

   -36.9741 -36.9741 -17.9966 -17.9835 -17.9625 -17.9441 -17.8904 -17.8850
   -16.8156 -16.8152 -14.4698 -14.4675 -14.3761 -14.3739  -4.5553  -4.5552
    -2.4176  -2.3534  -2.2265  -2.1546  -1.3530  -1.3439   0.9444   0.9569
     1.3194   1.3955   1.6384   1.6908   2.1634   2.2158   2.7255   2.7454

          k =-0.4782 0.2761 0.3647 (  7259 PWs)   bands (ev):

   -36.9748 -36.9733 -18.0253 -17.9958 -17.9532 -17.9199 -17.8858 -17.8748
   -16.8454 -16.7957 -14.4899 -14.4461 -14.3820 -14.3644  -4.6298  -4.5035
    -2.4738  -2.2794  -2.2606  -2.0968  -1.5352  -1.2422   0.9846   1.2076
     1.3247   1.4143   1.5125   1.7324   1.9957   2.3322   2.6139   2.7655

          k = 0.4782 0.8283 0.0000 (  7266 PWs)   bands (ev):

   -36.9746 -36.9735 -18.0232 -17.9936 -17.9553 -17.9246 -17.8844 -17.8765
   -16.8423 -16.7940 -14.4898 -14.4512 -14.3752 -14.3688  -4.6185  -4.5055
    -2.4606  -2.3182  -2.2411  -2.0991  -1.4993  -1.2600   0.9608   1.1346
     1.3628   1.4525   1.5331   1.6553   2.0403   2.3080   2.6282   2.7721

          k =-0.0000 0.0000 0.1368 (  7315 PWs)   bands (ev):

   -36.9760 -36.9722 -18.0254 -17.9577 -17.9260 -17.9260 -17.8836 -17.8836
   -16.9820 -16.7361 -14.4969 -14.4969 -14.3250 -14.3250  -4.6834  -4.5943
    -2.2975  -2.2975  -2.2693  -2.2693  -1.9014  -0.8749   1.1918   1.1918
     1.4170   1.4170   1.5487   1.5487   2.4012   2.4673   2.4673   2.8320

          k =-0.1195-0.0690 0.1824 (  7325 PWs)   bands (ev):

   -36.9758 -36.9724 -18.0213 -17.9624 -17.9276 -17.9243 -17.8895 -17.8864
   -16.9569 -16.7503 -14.4869 -14.4859 -14.3374 -14.3369  -4.6666  -4.6004
    -2.3076  -2.3051  -2.2755  -2.2448  -1.8384  -0.9301   1.1982   1.1983
     1.3410   1.4224   1.5198   1.6327   2.3815   2.3874   2.5085   2.8035

          k =-0.2391-0.1380 0.2279 (  7313 PWs)   bands (ev):

   -36.9754 -36.9727 -18.0124 -17.9696 -17.9289 -17.9259 -17.8994 -17.8928
   -16.9103 -16.7736 -14.4689 -14.4666 -14.3635 -14.3582  -4.6286  -4.5985
    -2.3238  -2.3128  -2.2863  -2.2167  -1.7138  -1.0359   1.1891   1.2100
     1.2313   1.3205   1.5884   1.7205   2.2577   2.3208   2.5992   2.7645

          k =-0.3586-0.2071 0.2735 (  7296 PWs)   bands (ev):

   -36.9748 -36.9733 -18.0020 -17.9753 -17.9336 -17.9280 -17.9104 -17.8968
   -16.8674 -16.7914 -14.4569 -14.4434 -14.3857 -14.3840  -4.5963  -4.5794
    -2.3557  -2.3288  -2.2636  -2.2036  -1.5544  -1.1662   1.1006   1.1102
     1.2409   1.2629   1.6721   1.8069   2.1481   2.2386   2.6742   2.7444

          k = 0.5977 0.3451-0.0912 (  7300 PWs)   bands (ev):

   -36.9742 -36.9740 -17.9920 -17.9796 -17.9452 -17.9259 -17.9150 -17.8978
   -16.8403 -16.8035 -14.4550 -14.4231 -14.4082 -14.3925  -4.5860  -4.5522
    -2.4086  -2.3092  -2.2285  -2.2132  -1.3864  -1.3170   1.0015   1.0553
     1.2347   1.2689   1.7091   1.8623   2.0953   2.1989   2.7036   2.7482

          k = 0.4782 0.2761-0.0456 (  7302 PWs)   bands (ev):

   -36.9746 -36.9735 -17.9874 -17.9828 -17.9542 -17.9197 -17.9146 -17.8952
   -16.8236 -16.8226 -14.4589 -14.4209 -14.4195 -14.3788  -4.5931  -4.5408
    -2.4364  -2.2758  -2.2365  -2.2072  -1.4874  -1.2295   0.9790   1.0864
     1.2060   1.2742   1.6811   1.8581   2.1195   2.2384   2.7086   2.7446

          k = 0.3586 0.2071 0.0000 (  7315 PWs)   bands (ev):

   -36.9752 -36.9729 -17.9994 -17.9723 -17.9536 -17.9173 -17.9110 -17.8884
   -16.8638 -16.8006 -14.4729 -14.4350 -14.4051 -14.3556  -4.6005  -4.5634
    -2.4250  -2.2789  -2.2311  -2.2124  -1.6578  -1.0916   1.0618   1.1667
     1.2081   1.2524   1.6117   1.7902   2.1995   2.3284   2.6933   2.7299

          k = 0.2391 0.1380 0.0456 (  7319 PWs)   bands (ev):

   -36.9757 -36.9725 -18.0124 -17.9621 -17.9443 -17.9194 -17.9032 -17.8827
   -16.9192 -16.7704 -14.4886 -14.4623 -14.3698 -14.3356  -4.6136  -4.5987
    -2.3821  -2.2945  -2.2380  -2.2281  -1.7990  -0.9746   1.1814   1.1980
     1.2460   1.3203   1.5368   1.6776   2.2972   2.4199   2.5930   2.7784

          k =-0.1195 0.0690 0.2279 (  7319 PWs)   bands (ev):

   -36.9757 -36.9725 -18.0204 -17.9673 -17.9316 -17.9174 -17.8955 -17.8818
   -16.9474 -16.7574 -14.4878 -14.4743 -14.3510 -14.3338  -4.6658  -4.6081
    -2.3303  -2.2853  -2.2736  -2.2361  -1.8082  -0.9581   1.1995   1.2049
     1.3506   1.4023   1.5390   1.6654   2.3158   2.4353   2.4762   2.7844

          k =-0.2391 0.0000 0.2735 (  7315 PWs)   bands (ev):

   -36.9754 -36.9728 -18.0144 -17.9762 -17.9354 -17.9132 -17.9037 -17.8838
   -16.9108 -16.7770 -14.4778 -14.4548 -14.3753 -14.3464  -4.6365  -4.6105
    -2.3485  -2.2943  -2.2744  -2.2085  -1.7168  -1.0410   1.1844   1.2221
     1.2704   1.3939   1.5336   1.7464   2.2048   2.3702   2.5620   2.7484

          k =-0.3586-0.0690 0.3191 (  7296 PWs)   bands (ev):

   -36.9749 -36.9732 -18.0065 -17.9832 -17.9389 -17.9201 -17.9053 -17.8884
   -16.8711 -16.7931 -14.4679 -14.4336 -14.4013 -14.3639  -4.6032  -4.5944
    -2.3543  -2.3302  -2.2623  -2.1900  -1.5847  -1.1503   1.1233   1.1445
     1.2576   1.3430   1.5964   1.8210   2.1027   2.2833   2.6472   2.7287

          k = 0.5977 0.4832-0.0456 (  7300 PWs)   bands (ev):

   -36.9744 -36.9738 -17.9991 -17.9850 -17.9442 -17.9313 -17.9031 -17.8917
   -16.8452 -16.7998 -14.4658 -14.4242 -14.4117 -14.3763  -4.5874  -4.5619
    -2.4029  -2.3153  -2.2420  -2.1897  -1.4368  -1.2746   1.0243   1.0578
     1.2792   1.3115   1.6572   1.8404   2.0815   2.2151   2.6893   2.7388

          k = 0.4782 0.4141 0.0000 (  7300 PWs)   bands (ev):

   -36.9744 -36.9738 -17.9935 -17.9857 -17.9533 -17.9308 -17.9037 -17.8904
   -16.8316 -16.8081 -14.4672 -14.4374 -14.3990 -14.3782  -4.5913  -4.5350
    -2.4442  -2.2804  -2.2268  -2.2012  -1.4175  -1.2933   0.9541   1.0561
     1.2461   1.3152   1.6606   1.8458   2.0987   2.2244   2.6948   2.7562

          k = 0.3586 0.3451 0.0456 (  7296 PWs)   bands (ev):

   -36.9749 -36.9732 -17.9941 -17.9841 -17.9562 -17.9229 -17.9075 -17.8858
   -16.8338 -16.8168 -14.4702 -14.4387 -14.4035 -14.3638  -4.6007  -4.5388
    -2.4477  -2.2728  -2.2152  -2.2108  -1.5699  -1.1652   0.9772   1.1221
     1.2189   1.2971   1.6135   1.8391   2.1312   2.2981   2.7013   2.7376

          k = 0.2391 0.2761 0.0912 (  7315 PWs)   bands (ev):

   -36.9754 -36.9727 -18.0045 -17.9730 -17.9507 -17.9140 -17.9119 -17.8827
   -16.8798 -16.7921 -14.4805 -14.4424 -14.3954 -14.3465  -4.6027  -4.5783
    -2.4133  -2.2863  -2.2385  -2.2036  -1.7065  -1.0543   1.0913   1.1895
     1.2262   1.2929   1.5591   1.7632   2.2101   2.3729   2.6617   2.7393

          k =-0.2391 0.1380 0.3191 (  7288 PWs)   bands (ev):

   -36.9752 -36.9729 -18.0110 -17.9891 -17.9406 -17.9096 -17.9031 -17.8793
   -16.8847 -16.7948 -14.4752 -14.4358 -14.3986 -14.3482  -4.6222  -4.6144
    -2.3853  -2.2760  -2.2756  -2.1775  -1.6707  -1.0951   1.1575   1.2413
     1.3171   1.3545   1.5313   1.8059   2.0884   2.3805   2.5861   2.7095

          k =-0.3586 0.0690 0.3647 (  7297 PWs)   bands (ev):

   -36.9749 -36.9732 -18.0053 -17.9995 -17.9446 -17.9176 -17.8962 -17.8804
   -16.8516 -16.8108 -14.4706 -14.4230 -14.4159 -14.3578  -4.6168  -4.5827
    -2.3998  -2.3099  -2.2546  -2.1537  -1.5834  -1.1733   1.0980   1.1991
     1.3075   1.3810   1.5438   1.8449   1.9988   2.3264   2.6553   2.6851

          k = 0.5977 0.6212 0.0000 (  7293 PWs)   bands (ev):

   -36.9745 -36.9736 -18.0007 -17.9994 -17.9488 -17.9302 -17.8912 -17.8841
   -16.8306 -16.8137 -14.4706 -14.4425 -14.3991 -14.3663  -4.5884  -4.5655
    -2.3871  -2.3629  -2.2348  -2.1494  -1.4721  -1.2566   1.0272   1.0720
     1.3519   1.3772   1.5953   1.7596   2.0603   2.2541   2.6916   2.7103

          k = 0.4782 0.5522 0.0456 (  7296 PWs)   bands (ev):

   -36.9741 -36.9741 -17.9966 -17.9924 -17.9530 -17.9413 -17.8911 -17.8858
   -16.8247 -16.8093 -14.4727 -14.4543 -14.3873 -14.3708  -4.5703  -4.5516
    -2.4236  -2.3401  -2.2180  -2.1660  -1.3574  -1.3488   0.9631   0.9974
     1.3260   1.3799   1.6329   1.7269   2.1370   2.2070   2.7094   2.7395

          k = 0.3586 0.4832 0.0912 (  7286 PWs)   bands (ev):

   -36.9745 -36.9736 -17.9938 -17.9857 -17.9582 -17.9391 -17.8973 -17.8844
   -16.8219 -16.8152 -14.4720 -14.4557 -14.3861 -14.3701  -4.5850  -4.5335
    -2.4438  -2.3089  -2.2032  -2.1944  -1.4593  -1.2498   0.9249   1.0305
     1.2747   1.3526   1.6242   1.7803   2.1438   2.2448   2.7038   2.7587

          k = 0.2391 0.4141 0.1368 (  7296 PWs)   bands (ev):

   -36.9749 -36.9732 -17.9952 -17.9801 -17.9566 -17.9282 -17.9047 -17.8854
   -16.8419 -16.8093 -14.4710 -14.4431 -14.3998 -14.3618  -4.5938  -4.5505
    -2.4247  -2.3025  -2.2331  -2.1882  -1.5712  -1.1570   0.9828   1.1029
     1.2381   1.3112   1.6164   1.8021   2.1481   2.2971   2.7163   2.7288

          k =-0.3586 0.2071 0.4103 (  7275 PWs)   bands (ev):

   -36.9748 -36.9733 -18.0142 -18.0014 -17.9480 -17.9176 -17.8896 -17.8774
   -16.8305 -16.8236 -14.4735 -14.4379 -14.3996 -14.3617  -4.6294  -4.5501
    -2.4385  -2.2731  -2.2724  -2.1243  -1.5523  -1.2186   1.0592   1.2381
     1.3272   1.3874   1.5329   1.8245   1.9429   2.3279   2.6412   2.6984

          k = 0.5977 0.7592 0.0456 (  7273 PWs)   bands (ev):

   -36.9746 -36.9735 -18.0179 -17.9971 -17.9513 -17.9239 -17.8859 -17.8785
   -16.8359 -16.8064 -14.4795 -14.4475 -14.3863 -14.3670  -4.6177  -4.5305
    -2.4426  -2.3189  -2.2397  -2.1162  -1.4950  -1.2615   1.0032   1.1474
     1.3724   1.4344   1.5468   1.6946   2.0232   2.2919   2.6396   2.7382

          k = 0.4782 0.6902 0.0912 (  7292 PWs)   bands (ev):

   -36.9743 -36.9738 -18.0090 -17.9928 -17.9554 -17.9361 -17.8849 -17.8824
   -16.8258 -16.8071 -14.4774 -14.4608 -14.3761 -14.3719  -4.5856  -4.5357
    -2.4134  -2.3724  -2.2180  -2.1334  -1.4222  -1.2993   0.9567   1.0275
     1.3837   1.4332   1.5977   1.6332   2.1074   2.2456   2.6836   2.7484

          k = 0.3586 0.6212 0.1368 (  7296 PWs)   bands (ev):

   -36.9741 -36.9741 -17.9942 -17.9881 -17.9567 -17.9480 -17.8889 -17.8862
   -16.8155 -16.8153 -14.4693 -14.4681 -14.3756 -14.3744  -4.5553  -4.5552
    -2.4052  -2.3745  -2.2035  -2.1690  -1.3507  -1.3462   0.9473   0.9535
     1.3372   1.3749   1.6521   1.6779   2.1779   2.2041   2.7302   2.7402

          k = 0.2391 0.5522 0.1824 (  7300 PWs)   bands (ev):

   -36.9744 -36.9738 -17.9871 -17.9813 -17.9573 -17.9454 -17.8971 -17.8905
   -16.8215 -16.8157 -14.4644 -14.4559 -14.3877 -14.3755  -4.5706  -4.5493
    -2.4032  -2.3540  -2.2100  -2.1906  -1.4194  -1.2773   0.9449   0.9951
     1.2824   1.3146   1.6826   1.7552   2.1635   2.2215   2.7292   2.7466

          k = 0.5977-0.3451-0.3191 (  7266 PWs)   bands (ev):

   -36.9746 -36.9735 -18.0258 -17.9950 -17.9522 -17.9208 -17.8850 -17.8769
   -16.8482 -16.7916 -14.4894 -14.4435 -14.3808 -14.3690  -4.6292  -4.5065
    -2.4727  -2.2738  -2.2610  -2.1045  -1.5020  -1.2686   0.9839   1.1938
     1.3336   1.4497   1.5185   1.7042   2.0080   2.3062   2.6103   2.7648

          k = 0.4782-0.4141-0.2735 (  7273 PWs)   bands (ev):

   -36.9746 -36.9735 -18.0193 -17.9928 -17.9542 -17.9258 -17.8870 -17.8785
   -16.8410 -16.7959 -14.4870 -14.4489 -14.3803 -14.3683  -4.6153  -4.5091
    -2.4635  -2.3103  -2.2318  -2.1187  -1.4890  -1.2627   0.9563   1.1241
     1.3579   1.3870   1.5486   1.7328   2.0395   2.2968   2.6356   2.7693

          k = 0.3586-0.4832-0.2279 (  7293 PWs)   bands (ev):

   -36.9745 -36.9736 -18.0017 -17.9894 -17.9572 -17.9366 -17.8911 -17.8831
   -16.8240 -16.8115 -14.4772 -14.4559 -14.3849 -14.3667  -4.5884  -4.5305
    -2.4302  -2.3440  -2.2167  -2.1531  -1.4595  -1.2575   0.9359   1.0367
     1.3299   1.3570   1.6037   1.7438   2.1083   2.2674   2.6919   2.7576

          k = 0.4782-0.2761-0.2279 (  7275 PWs)   bands (ev):

   -36.9748 -36.9733 -18.0167 -17.9944 -17.9528 -17.9200 -17.8921 -17.8781
   -16.8398 -16.8034 -14.4842 -14.4427 -14.3903 -14.3638  -4.6232  -4.5087
    -2.4749  -2.2746  -2.2444  -2.1276  -1.5428  -1.2232   0.9769   1.1849
     1.3069   1.3150   1.5429   1.8776   1.9633   2.3313   2.6327   2.7607

          k = 0.3586-0.3451-0.1824 (  7297 PWs)   bands (ev):

   -36.9749 -36.9732 -18.0019 -17.9948 -17.9535 -17.9226 -17.8983 -17.8803
   -16.8248 -16.8238 -14.4774 -14.4406 -14.4003 -14.3592  -4.6105  -4.5300
    -2.4530  -2.2916  -2.2324  -2.1562  -1.5713  -1.1796   0.9841   1.1479
     1.2650   1.3210   1.5624   1.8548   2.0478   2.3317   2.6745   2.7389

          k = 0.3586-0.2071-0.1368 (  7288 PWs)   bands (ev):

   -36.9752 -36.9729 -18.0009 -17.9899 -17.9507 -17.9145 -17.9062 -17.8804
   -16.8535 -16.8093 -14.4787 -14.4222 -14.4181 -14.3505  -4.6121  -4.5531
    -2.4411  -2.2805  -2.2343  -2.1770  -1.6593  -1.1071   1.0571   1.1917
     1.2574   1.2749   1.5411   1.8388   2.1083   2.3745   2.6917   2.7000

          k =-0.0000 0.0000 0.2735 (  7309 PWs)   bands (ev):

   -36.9756 -36.9725 -18.0222 -17.9680 -17.9224 -17.9224 -17.8878 -17.8878
   -16.9548 -16.7555 -14.4808 -14.4808 -14.3407 -14.3407  -4.6864  -4.6149
    -2.2912  -2.2912  -2.2678  -2.2678  -1.7943  -0.9618   1.2078   1.2078
     1.3713   1.3713   1.6470   1.6470   2.3774   2.3774   2.4297   2.7792

          k =-0.1195-0.0690 0.3191 (  7313 PWs)   bands (ev):

   -36.9754 -36.9728 -18.0184 -17.9744 -17.9258 -17.9166 -17.8973 -17.8869
   -16.9291 -16.7703 -14.4728 -14.4656 -14.3570 -14.3515  -4.6708  -4.6192
    -2.3075  -2.2862  -2.2822  -2.2403  -1.7210  -1.0280   1.2100   1.2204
     1.3026   1.4047   1.5892   1.7494   2.2588   2.3458   2.4959   2.7494

          k =-0.2391-0.1380 0.3647 (  7293 PWs)   bands (ev):

   -36.9750 -36.9731 -18.0126 -17.9816 -17.9287 -17.9131 -17.9100 -17.8887
   -16.8910 -16.7862 -14.4635 -14.4448 -14.3796 -14.3703  -4.6380  -4.6055
    -2.3375  -2.2912  -2.2777  -2.2183  -1.6061  -1.1315   1.1876   1.1944
     1.2490   1.4083   1.5515   1.8473   2.1241   2.2743   2.5862   2.7263

          k = 0.7173 0.4141 0.0000 (  7300 PWs)   bands (ev):

   -36.9745 -36.9737 -18.0081 -17.9850 -17.9362 -17.9196 -17.9102 -17.8899
   -16.8615 -16.7927 -14.4639 -14.4229 -14.4033 -14.3818  -4.6127  -4.5706
    -2.3975  -2.2651  -2.2635  -2.2123  -1.4727  -1.2501   1.0734   1.1355
     1.2871   1.3348   1.6033   1.9230   2.0213   2.2121   2.6461   2.7310

          k = 0.5977 0.3451 0.0456 (  7300 PWs)   bands (ev):

   -36.9742 -36.9739 -18.0055 -17.9864 -17.9478 -17.9210 -17.9061 -17.8894
   -16.8455 -16.7961 -14.4708 -14.4232 -14.4050 -14.3815  -4.6062  -4.5328
    -2.4495  -2.2487  -2.2353  -2.2109  -1.3822  -1.3396   0.9824   1.1056
     1.2707   1.3108   1.6323   1.9440   1.9820   2.2233   2.6637   2.7539

          k = 0.4782 0.2761 0.0912 (  7288 PWs)   bands (ev):

   -36.9748 -36.9734 -18.0012 -17.9912 -17.9528 -17.9190 -17.9038 -17.8855
   -16.8320 -16.8132 -14.4735 -14.4338 -14.4033 -14.3687  -4.6104  -4.5217
    -2.4661  -2.2634  -2.2226  -2.1872  -1.5251  -1.2170   0.9705   1.1391
     1.2311   1.3002   1.6035   1.9171   2.0186   2.2950   2.6687   2.7530

          k =-0.1195 0.0690 0.3647 (  7315 PWs)   bands (ev):

   -36.9752 -36.9729 -18.0165 -17.9806 -17.9282 -17.9103 -17.9013 -17.8854
   -16.9152 -16.7814 -14.4688 -14.4534 -14.3721 -14.3524  -4.6684  -4.6295
    -2.3255  -2.2819  -2.2717  -2.2287  -1.6755  -1.0704   1.2083   1.2354
     1.3302   1.3523   1.6460   1.7820   2.1891   2.3400   2.4980   2.7223
[...]

          k = 0.5592 0.6457 0.0410 (  5092 PWs)   bands (ev):

   -33.6967 -33.6967 -17.0793 -17.0561 -15.1281 -15.0521 -14.9539 -14.8197
   -14.7150 -14.6775 -13.7699 -13.6620 -13.5164 -13.4347  -2.9746  -2.9212
    -1.5305  -1.4038  -1.3618  -1.2168  -0.8853  -0.8692   2.1171   2.1652
     2.4650   2.5411   2.6791   2.7388   3.1407   3.2067   4.3230   4.3693

          k = 0.4194 0.5650 0.0819 (  5103 PWs)   bands (ev):

   -33.6981 -33.6953 -17.1115 -17.0186 -15.1719 -15.0487 -14.9858 -14.7576
   -14.7211 -14.6409 -13.8386 -13.6260 -13.5430 -13.4009  -3.0080  -2.8843
    -1.5624  -1.3828  -1.3056  -1.2300  -0.9944  -0.8113   2.0666   2.2679
     2.4113   2.5286   2.6647   2.7755   3.1607   3.2163   4.2763   4.4173

          k = 0.2796 0.4843 0.1229 (  5105 PWs)   bands (ev):

   -33.6994 -33.6942 -17.1203 -17.0137 -15.1713 -15.0429 -14.9666 -14.7896
   -14.7010 -14.6397 -13.8180 -13.6323 -13.5389 -13.4204  -3.0348  -2.9465
    -1.5470  -1.3931  -1.3158  -1.2373  -1.1262  -0.7575   2.1584   2.3846
     2.4723   2.5301   2.6624   2.8486   3.1237   3.2661   4.2427   4.3524

          k =-0.4194 0.2421 0.3686 (  5106 PWs)   bands (ev):

   -33.6992 -33.6946 -17.1435 -16.9988 -15.1843 -15.1052 -14.7868 -14.7656
   -14.7498 -14.6629 -13.7967 -13.7786 -13.4409 -13.4324  -3.1346  -2.9376
    -1.5458  -1.3923  -1.3253  -1.2352  -1.0606  -0.8281   2.1366   2.3328
     2.5425   2.7145   2.7411   2.8642   3.0230   3.3140   4.1465   4.3285

          k = 0.6990 0.8879 0.0410 (  5115 PWs)   bands (ev):

   -33.6985 -33.6951 -17.1401 -16.9964 -15.1843 -15.1310 -14.8009 -14.7518
   -14.7212 -14.6795 -13.8401 -13.7627 -13.4402 -13.4076  -3.1008  -2.8787
    -1.5493  -1.4087  -1.3042  -1.2264  -0.9758  -0.8455   2.0412   2.2657
     2.5278   2.6877   2.7032   2.7502   3.0855   3.2628   4.1792   4.4017

          k = 0.5592 0.8071 0.0819 (  5106 PWs)   bands (ev):

   -33.6976 -33.6958 -17.1082 -17.0271 -15.1528 -15.0889 -14.8536 -14.8215
   -14.7239 -14.6860 -13.8056 -13.7001 -13.4767 -13.4202  -3.0109  -2.8843
    -1.5066  -1.4632  -1.3196  -1.2237  -0.9001  -0.8413   2.0414   2.1938
     2.5057   2.5724   2.6583   2.6829   3.1552   3.2259   4.2774   4.4129

          k = 0.4194 0.7264 0.1229 (  5104 PWs)   bands (ev):

   -33.6967 -33.6967 -17.0665 -17.0664 -15.1142 -15.0972 -14.9011 -14.8586
   -14.7037 -14.6764 -13.7369 -13.7335 -13.4576 -13.4560  -2.9304  -2.9301
    -1.5104  -1.4647  -1.3022  -1.2339  -0.8805  -0.8579   2.1316   2.1374
     2.4613   2.4700   2.6654   2.6837   3.1893   3.2109   4.3677   4.3695

          k = 0.2796 0.6457 0.1638 (  5111 PWs)   bands (ev):

   -33.6976 -33.6958 -17.0884 -17.0431 -15.1368 -15.0568 -14.9609 -14.8587
   -14.6814 -14.6526 -13.7693 -13.6625 -13.5121 -13.4420  -2.9698  -2.9238
    -1.5242  -1.4570  -1.2681  -1.2432  -0.9607  -0.8377   2.1261   2.2299
     2.4463   2.4710   2.6992   2.7635   3.1581   3.2025   4.3163   4.3771

          k = 0.6990-0.4036-0.2867 (  5100 PWs)   bands (ev):

   -33.6986 -33.6950 -17.1599 -16.9686 -15.2151 -15.1895 -14.7545 -14.7329
   -14.7246 -14.5994 -13.8988 -13.8393 -13.3980 -13.3780  -3.1330  -2.8132
    -1.5927  -1.3802  -1.2524  -1.2208  -0.9672  -0.8715   1.9507   2.2424
     2.5177   2.6730   2.7341   2.7667   3.1065   3.2432   4.1350   4.4577

          k = 0.5592-0.4843-0.2457 (  5095 PWs)   bands (ev):

   -33.6984 -33.6950 -17.1483 -16.9801 -15.2001 -15.1671 -14.8138 -14.7329
   -14.7164 -14.6264 -13.9020 -13.7620 -13.4392 -13.3740  -3.0933  -2.8196
    -1.5784  -1.3981  -1.2657  -1.2218  -0.9589  -0.8467   1.9533   2.2377
     2.4713   2.6677   2.6904   2.7424   3.1341   3.2328   4.1777   4.4632

          k = 0.4194-0.5650-0.2048 (  5111 PWs)   bands (ev):

   -33.6981 -33.6953 -17.1162 -17.0152 -15.1818 -15.0606 -14.9372 -14.7849
   -14.7031 -14.6500 -13.8538 -13.6417 -13.5261 -13.3939  -3.0172  -2.8756
    -1.5377  -1.4329  -1.2927  -1.2324  -0.9576  -0.8206   2.0414   2.2478
     2.4381   2.5518   2.6640   2.7401   3.1494   3.2386   4.2661   4.4254

          k = 0.5592-0.3229-0.2048 (  5097 PWs)   bands (ev):

   -33.6991 -33.6945 -17.1585 -16.9677 -15.2025 -15.1893 -14.7955 -14.7294
   -14.7282 -14.5958 -13.9045 -13.7805 -13.4308 -13.3759  -3.1165  -2.8269
    -1.5946  -1.3702  -1.2547  -1.2246  -1.0249  -0.8379   1.9597   2.2869
     2.4394   2.6988   2.7196   2.8333   3.0784   3.2590   4.1466   4.4495

          k = 0.4194-0.4036-0.1638 (  5108 PWs)   bands (ev):

   -33.6994 -33.6942 -17.1424 -16.9887 -15.1971 -15.1068 -14.8882 -14.7457
   -14.7153 -14.6294 -13.8746 -13.6698 -13.5090 -13.3890  -3.0814  -2.8899
    -1.5661  -1.3854  -1.2959  -1.2289  -1.0846  -0.7892   2.0566   2.3554
     2.4288   2.6435   2.6802   2.8772   3.0687   3.2832   4.1909   4.3975

          k = 0.4194-0.2421-0.1229 (  5098 PWs)   bands (ev):

   -33.7004 -33.6933 -17.1403 -16.9973 -15.1475 -15.1174 -14.8720 -14.7499
   -14.7289 -14.6750 -13.8031 -13.6782 -13.5104 -13.4257  -3.0915  -2.9633
    -1.5514  -1.3955  -1.3419  -1.2348  -1.1852  -0.7319   2.1718   2.4301
     2.4684   2.6572   2.6843   2.9433   3.0605   3.3352   4.1821   4.3086

          k =-0.0000-0.0000 0.2457 (  5121 PWs)   bands (ev):

   -33.7020 -33.6924 -17.0897 -17.0817 -15.1028 -15.1028 -14.8316 -14.8316
   -14.6611 -14.5782 -13.8291 -13.8291 -13.4310 -13.4310  -3.3075  -3.1081
    -1.5238  -1.5086  -1.5086  -1.3104  -1.3104  -0.5458   2.4023   2.4023
     2.7287   2.7287   3.0257   3.0257   3.4863   3.4863   3.8136   4.1348

          k =-0.1398-0.0807 0.2867 (  5119 PWs)   bands (ev):

   -33.7012 -33.6931 -17.0867 -17.0814 -15.1239 -15.0312 -14.9312 -14.7892
   -14.6738 -14.6097 -13.8395 -13.7035 -13.5166 -13.4203  -3.2622  -3.1134
    -1.5066  -1.4909  -1.4021  -1.3206  -1.3173  -0.6219   2.4237   2.4531
     2.6728   2.6964   2.9274   3.0335   3.3641   3.4325   3.9161   4.1369

          k =-0.2796-0.1614 0.3276 (  5099 PWs)   bands (ev):

   -33.6998 -33.6942 -17.0841 -17.0739 -15.1263 -15.0259 -14.9638 -14.7463
   -14.7313 -14.6348 -13.8032 -13.6072 -13.6000 -13.4285  -3.1741  -3.0692
    -1.4718  -1.4617  -1.3613  -1.3193  -1.2044  -0.7229   2.3909   2.5121
     2.5991   2.6223   2.7547   2.9809   3.1932   3.3031   4.0817   4.1895

          k = 0.8388 0.4843 0.0000 (  5116 PWs)   bands (ev):

   -33.6981 -33.6956 -17.0876 -17.0581 -15.1411 -15.0072 -14.9850 -14.8118
   -14.7076 -14.6368 -13.7772 -13.6180 -13.5811 -13.4341  -3.1021  -2.9711
    -1.5009  -1.4358  -1.3451  -1.2647  -1.0391  -0.8137   2.2355   2.3588
     2.5429   2.6198   2.7042   2.9824   3.0421   3.1863   4.1909   4.2866

          k = 0.6990 0.4036 0.0410 (  5122 PWs)   bands (ev):

   -33.6972 -33.6963 -17.1179 -17.0157 -15.1560 -15.0992 -14.8935 -14.8455
   -14.7013 -14.6179 -13.7541 -13.7373 -13.4770 -13.4437  -3.0752  -2.8746
    -1.5710  -1.3795  -1.3258  -1.2030  -0.9202  -0.9097   2.0495   2.2569
     2.4609   2.6555   2.7155   2.9437   3.0241   3.1555   4.2092   4.3892

          k = 0.5592 0.3229 0.0819 (  5093 PWs)   bands (ev):

   -33.6989 -33.6946 -17.1414 -16.9865 -15.1762 -15.1454 -14.8657 -14.7918
   -14.7130 -14.6035 -13.8375 -13.7111 -13.4749 -13.4121  -3.0820  -2.8622
    -1.5931  -1.3529  -1.2817  -1.2179  -1.0589  -0.8214   2.0056   2.3126
     2.4194   2.6812   2.6880   2.9454   3.0243   3.2249   4.1851   4.4157

          k =-0.1398 0.0807 0.3276 (  5107 PWs)   bands (ev):

   -33.7007 -33.6936 -17.0908 -17.0783 -15.1049 -15.0307 -14.9277 -14.8197
   -14.6585 -14.6351 -13.7882 -13.7021 -13.5164 -13.4547  -3.2497  -3.1372
    -1.4921  -1.4642  -1.3913  -1.3189  -1.3111  -0.6718   2.4332   2.4748
     2.6362   2.6803   2.9642   3.0664   3.3098   3.4338   3.9288   4.1136

          k =-0.2796-0.0000 0.3686 (  5089 PWs)   bands (ev):

   -33.6997 -33.6944 -17.0944 -17.0682 -15.1080 -15.0387 -14.9279 -14.7958
   -14.6990 -14.6539 -13.7611 -13.6655 -13.5443 -13.4627  -3.1764  -3.1196
    -1.4608  -1.4435  -1.3957  -1.3079  -1.2026  -0.7536   2.4232   2.4822
     2.5958   2.6312   2.8581   3.0281   3.1685   3.3481   4.0577   4.1430

          k = 0.8388 0.6457 0.0410 (  5112 PWs)   bands (ev):

   -33.6983 -33.6955 -17.0770 -17.0751 -15.1113 -15.0693 -14.9054 -14.7925
   -14.7302 -14.6673 -13.7521 -13.6690 -13.5352 -13.4547  -3.1018  -3.0353
    -1.4682  -1.4074  -1.4040  -1.2830  -1.0491  -0.8203   2.3087   2.3693
     2.6028   2.6080   2.7222   2.9422   3.0860   3.2300   4.1819   4.2326

          k = 0.6990 0.5650 0.0819 (  5105 PWs)   bands (ev):

   -33.6968 -33.6968 -17.1035 -17.0366 -15.1452 -15.0669 -14.9191 -14.8031
   -14.7104 -14.6662 -13.7739 -13.6900 -13.5081 -13.4327  -3.0662  -2.9160
    -1.5386  -1.3757  -1.3639  -1.2369  -0.9227  -0.8797   2.1185   2.2543
     2.5142   2.6273   2.6909   2.8546   3.0997   3.1663   4.2280   4.3548

          k = 0.5592 0.4843 0.1229 (  5102 PWs)   bands (ev):

   -33.6981 -33.6954 -17.1333 -16.9963 -15.1802 -15.1302 -14.8843 -14.7567
   -14.7188 -14.6252 -13.8553 -13.7068 -13.4802 -13.3951  -3.0687  -2.8455
    -1.5830  -1.3672  -1.2941  -1.2236  -0.9696  -0.8460   1.9942   2.2538
     2.4317   2.6469   2.6904   2.8181   3.1122   3.2011   4.2082   4.4360

          k =-0.2796 0.1614 0.4095 (  5096 PWs)   bands (ev):

   -33.6992 -33.6949 -17.1110 -17.0489 -15.1363 -14.9875 -14.9368 -14.8127
   -14.7114 -14.6559 -13.7617 -13.6438 -13.5506 -13.4687  -3.1478  -3.1092
    -1.4858  -1.4131  -1.3757  -1.2938  -1.1373  -0.8140   2.3928   2.4214
     2.6059   2.6257   2.8591   3.0419   3.0541   3.3387   4.1264   4.1302

          k = 0.8388 0.8071 0.0819 (  5107 PWs)   bands (ev):

   -33.6983 -33.6955 -17.1102 -17.0421 -15.1423 -15.0463 -14.8732 -14.7997
   -14.7295 -14.6800 -13.7588 -13.6925 -13.5011 -13.4635  -3.1098  -3.0305
    -1.4915  -1.4151  -1.3492  -1.2846  -1.0258  -0.8557   2.2715   2.3532
     2.5817   2.6539   2.7896   2.8693   3.0754   3.2654   4.1729   4.2381

          k = 0.6990 0.7264 0.1229 (  5108 PWs)   bands (ev):

   -33.6973 -33.6963 -17.0821 -17.0625 -15.1113 -15.0747 -14.8521 -14.8379
   -14.7255 -14.7202 -13.7405 -13.6895 -13.4960 -13.4624  -3.0063  -2.9904
    -1.4709  -1.4655  -1.3284  -1.2695  -0.9174  -0.8642   2.1802   2.2125
     2.5738   2.6031   2.7067   2.7436   3.1277   3.1944   4.2810   4.3020

          k = 0.5592 0.6457 0.1638 (  5105 PWs)   bands (ev):

   -33.6972 -33.6962 -17.0958 -17.0403 -15.1234 -15.0950 -14.9013 -14.7938
   -14.7215 -14.7028 -13.7769 -13.6958 -13.4870 -13.4312  -2.9958  -2.9001
    -1.5265  -1.4395  -1.2890  -1.2625  -0.8888  -0.8508   2.0719   2.1755
     2.4912   2.5703   2.6607   2.7041   3.1711   3.1919   4.2975   4.3939

          k = 0.8388-0.4843-0.2457 (  5102 PWs)   bands (ev):

   -33.6981 -33.6957 -17.1320 -17.0132 -15.1889 -15.0672 -14.8615 -14.7637
   -14.7321 -14.6394 -13.8222 -13.7343 -13.4749 -13.4163  -3.1380  -2.9406
    -1.5448  -1.3826  -1.2897  -1.2850  -0.9814  -0.8895   2.1514   2.3228
     2.5833   2.6957   2.7157   2.8621   3.0609   3.2488   4.1491   4.3218

          k = 0.6990-0.5650-0.2048 (  5108 PWs)   bands (ev):

   -33.6977 -33.6959 -17.1256 -17.0136 -15.1654 -15.1101 -14.8497 -14.7481
   -14.7250 -14.6882 -13.7810 -13.7721 -13.4490 -13.4280  -3.0901  -2.8922
    -1.5500  -1.3977  -1.2853  -1.2681  -0.9270  -0.8780   2.0695   2.2536
     2.5459   2.6536   2.6846   2.7917   3.1092   3.2034   4.1977   4.3832

          k = 0.6990-0.4036-0.1638 (  5107 PWs)   bands (ev):

   -33.6980 -33.6956 -17.1437 -16.9876 -15.1957 -15.1527 -14.8053 -14.7834
   -14.7184 -14.6041 -13.8288 -13.8116 -13.4163 -13.4112  -3.1126  -2.8358
    -1.5895  -1.3617  -1.2895  -1.2209  -0.9472  -0.8833   1.9886   2.2543
     2.4811   2.6846   2.7059   2.8429   3.0889   3.1923   4.1645   4.4308

          k =-0.0000-0.0000 0.3686 (  5112 PWs)   bands (ev):

   -33.7003 -33.6941 -17.0892 -17.0840 -15.0656 -15.0656 -14.8923 -14.8923
   -14.6454 -14.5913 -13.7466 -13.7466 -13.4905 -13.4905  -3.2891  -3.1634
    -1.4741  -1.4741  -1.3449  -1.3449  -1.3395  -0.7046   2.4601   2.4601
     2.6715   2.6715   3.0998   3.0998   3.3973   3.3973   3.8636   4.0703

          k =-0.1398-0.0807 0.4095 (  5098 PWs)   bands (ev):

   -33.6995 -33.6948 -17.0851 -17.0847 -15.0960 -14.9893 -14.9864 -14.8418
   -14.6561 -14.6127 -13.7699 -13.6352 -13.5816 -13.4682  -3.2471  -3.1582
    -1.4612  -1.4447  -1.3631  -1.3596  -1.2253  -0.7792   2.4673   2.5011
     2.6278   2.6308   3.0071   3.1276   3.2596   3.3560   3.9524   4.0822

          k = 0.9786 0.5650 0.0819 (  5100 PWs)   bands (ev):

   -33.6983 -33.6958 -17.0885 -17.0716 -15.1271 -15.0261 -14.9470 -14.7890
   -14.7076 -14.6311 -13.7828 -13.6160 -13.5917 -13.4464  -3.1765  -3.0845
    -1.4659  -1.4042  -1.3745  -1.3393  -1.0821  -0.8486   2.3855   2.4795
     2.5942   2.6187   2.8185   3.0865   3.0971   3.2453   4.0875   4.1688

          k = 0.8388 0.4843 0.1229 (  5109 PWs)   bands (ev):

   -33.6969 -33.6969 -17.1127 -17.0338 -15.1738 -15.0252 -14.9379 -14.7719
   -14.7271 -14.6310 -13.8139 -13.6777 -13.5236 -13.4172  -3.1268  -2.9522
    -1.5304  -1.3669  -1.3578  -1.2683  -0.9594  -0.8949   2.1854   2.3388
     2.5823   2.6605   2.6801   2.9415   3.0737   3.1799   4.1651   4.3066

          k =-0.1398 0.0807 0.4505 (  5092 PWs)   bands (ev):

   -33.6989 -33.6954 -17.0898 -17.0806 -15.0827 -14.9902 -14.9740 -14.8732
   -14.6406 -14.6321 -13.7316 -13.6191 -13.5927 -13.5004  -3.2295  -3.1830
    -1.4519  -1.4288  -1.3884  -1.3492  -1.1674  -0.8413   2.4871   2.5207
     2.5839   2.6255   3.0461   3.1590   3.2083   3.3424   3.9722   4.0563

          k = 0.9786 0.7264 0.1229 (  5101 PWs)   bands (ev):

   -33.6980 -33.6962 -17.0866 -17.0775 -15.0888 -15.0617 -14.8978 -14.8485
   -14.6720 -14.6559 -13.7207 -13.6807 -13.5322 -13.4972  -3.1656  -3.1462
    -1.4399  -1.4231  -1.3806  -1.3427  -1.0581  -0.8993   2.4451   2.4699
     2.5891   2.6059   2.9413   3.0307   3.1672   3.2614   4.0799   4.1092

          k = 0.8388 0.6457 0.1638 (  5098 PWs)   bands (ev):

   -33.6969 -33.6969 -17.0943 -17.0591 -15.1304 -15.0498 -14.8936 -14.7946
   -14.7224 -14.6803 -13.7584 -13.6747 -13.5246 -13.4567  -3.1104  -3.0330
    -1.4841  -1.4117  -1.3399  -1.3102  -0.9500  -0.9205   2.2852   2.3521
     2.6041   2.6285   2.7683   2.8857   3.1385   3.1866   4.1739   4.2351

          k = 0.9786-0.5650-0.2048 (  5103 PWs)   bands (ev):

   -33.6975 -33.6965 -17.1015 -17.0594 -15.1357 -14.9900 -14.9512 -14.8183
   -14.6982 -14.6390 -13.7716 -13.6059 -13.5935 -13.4610  -3.1678  -3.0985
    -1.4765  -1.3926  -1.3540  -1.3423  -0.9948  -0.9461   2.3868   2.4447
     2.5982   2.6199   2.8880   3.0021   3.1276   3.2513   4.1024   4.1484

          k =-0.0000-0.0000 0.4914 (  5100 PWs)   bands (ev):

   -33.6983 -33.6961 -17.0880 -17.0862 -15.0157 -15.0157 -14.9563 -14.9563
   -14.6270 -14.6082 -13.6556 -13.6556 -13.5674 -13.5674  -3.2590  -3.2162
    -1.4319  -1.4319  -1.3871  -1.3871  -1.1244  -0.9046   2.5300   2.5300
     2.6032   2.6032   3.1917   3.1917   3.2945   3.2945   3.9269   3.9980

          k = 1.1184 0.6457 0.1638 (  5110 PWs)   bands (ev):

   -33.6975 -33.6968 -17.0877 -17.0830 -15.0629 -15.0284 -14.9402 -14.8991
   -14.6404 -14.6241 -13.6955 -13.6441 -13.5741 -13.5272  -3.2208  -3.1987
    -1.4314  -1.3985  -1.3985  -1.3886  -1.0351  -0.9689   2.5170   2.5437
     2.5732   2.5839   3.0969   3.1552   3.2266   3.2679   4.0005   4.0250

     highest occupied level (ev):     4.4727

!    total energy              =    -367.43036878 Ry
     Harris-Foulkes estimate   =    -367.43036879 Ry
     estimated scf accuracy    <          8.9E-09 Ry

     The total energy is the sum of the following terms:

     one-electron contribution =    -148.21800316 Ry
     hartree contribution      =     103.48066514 Ry
     xc contribution           =     -75.26787474 Ry
     ewald contribution        =    -247.42515602 Ry

     convergence has been achieved in   9 iterations

     Forces acting on atoms (cartesian axes, Ry/au):

     atom    1 type  1   force =     0.00000000    0.00000000    0.00000000
     atom    2 type  1   force =     0.00000000    0.00000000   -0.00000000
     atom    3 type  2   force =    -0.00000000    0.00000000    0.00000000
     atom    4 type  2   force =     0.00000000   -0.00000000    0.00000000
     atom    5 type  3   force =     0.00008663   -0.00015004   -0.00000000
     atom    6 type  3   force =    -0.00017325   -0.00000000   -0.00000000
     atom    7 type  3   force =     0.00008663    0.00015004    0.00000000
     atom    8 type  3   force =     0.00017325    0.00000000    0.00000000
     atom    9 type  3   force =    -0.00008663   -0.00015004   -0.00000000
     atom   10 type  3   force =    -0.00008663    0.00015004    0.00000000

     Total force =     0.000424     Total SCF correction =     0.000127
     SCF correction compared to forces is large: reduce conv_thr to get better values


     Computing stress (Cartesian axis) and pressure

          total   stress  (Ry/bohr**3)                   (kbar)     P=   -1.08
  -0.00000888   0.00000000   0.00000000         -1.31      0.00      0.00
   0.00000000  -0.00000888  -0.00000000          0.00     -1.31     -0.00
   0.00000000  -0.00000000  -0.00000427          0.00     -0.00     -0.63


     Writing output data file CCO_k.save/
 
     init_run     :     20.11s CPU     23.71s WALL (       2 calls)
     electrons    :   6117.43s CPU   6797.63s WALL (      21 calls)
     update_pot   :      1.72s CPU      1.81s WALL (      19 calls)
     forces       :     16.55s CPU     17.24s WALL (      21 calls)
     stress       :     28.01s CPU     28.24s WALL (      21 calls)

     Called by init_run:
     wfcinit      :     18.93s CPU     22.39s WALL (       2 calls)
     potinit      :      0.07s CPU      0.08s WALL (       2 calls)
     hinit0       :      0.83s CPU      0.91s WALL (       2 calls)

     Called by electrons:
     c_bands      :   5757.44s CPU   6415.83s WALL (     197 calls)
     sum_band     :    353.93s CPU    374.01s WALL (     197 calls)
     v_of_rho     :      3.49s CPU      3.62s WALL (     213 calls)
     newd         :      1.53s CPU      1.58s WALL (     213 calls)
     mix_rho      :      0.76s CPU      0.81s WALL (     197 calls)

     Called by c_bands:
     init_us_2    :      8.47s CPU      9.88s WALL (   37230 calls)
     ccgdiagg     :   4603.37s CPU   5011.81s WALL (   17174 calls)
     wfcrot       :   1161.55s CPU   1399.63s WALL (   15134 calls)

     Called by sum_band:
     sum_band:bec :      4.73s CPU      4.97s WALL (   16745 calls)
     addusdens    :      1.04s CPU      1.05s WALL (     197 calls)

     Called by *cgdiagg:
     h_psi        :   3853.72s CPU   4118.91s WALL ( 1853807 calls)
     s_psi        :    200.27s CPU    227.44s WALL ( 3692480 calls)
     cdiaghg      :    426.10s CPU    619.22s WALL (   15134 calls)

     Called by h_psi:
     h_psi:pot    :   3806.04s CPU   4063.69s WALL ( 1853807 calls)
     h_psi:calbec :    437.62s CPU    474.88s WALL ( 1853807 calls)
     vloc_psi     :   3156.99s CPU   3360.93s WALL ( 1853807 calls)
     add_vuspsi   :    149.69s CPU    164.60s WALL ( 1853807 calls)
     hs_1psi      :   3453.62s CPU   3703.68s WALL ( 1838673 calls)
     s_1psi       :    411.10s CPU    466.80s WALL ( 1838673 calls)

     General routines
     calbec       :    654.90s CPU    731.80s WALL ( 3718150 calls)
     fft          :      4.51s CPU      4.67s WALL (    2892 calls)
     ffts         :      0.26s CPU      0.27s WALL (     197 calls)
     fftw         :   3313.94s CPU   3521.49s WALL ( 5188562 calls)
 
     Parallel routines
     fft_scatt_xy :    148.95s CPU    157.55s WALL ( 5191651 calls)
     fft_scatt_yz :   2501.28s CPU   2662.54s WALL ( 5191651 calls)
 
     PWSCF        :      1h43m CPU      1h54m WALL

 
   This run was terminated on:  20: 4:36  24Apr2022            

=------------------------------------------------------------------------------=
   JOB DONE.
=------------------------------------------------------------------------------=
