
     Program PWSCF v.6.4.1 starts on  3May2022 at 22:13:15 

     This program is part of the open-source Quantum ESPRESSO suite
     for quantum simulation of materials; please cite
         "P. Giannozzi et al., J. Phys.:Condens. Matter 21 395502 (2009);
         "P. Giannozzi et al., J. Phys.:Condens. Matter 29 465901 (2017);
          URL http://www.quantum-espresso.org", 
     in publications or presentations arising from this work. More details at
     http://www.quantum-espresso.org/quote

     Parallel version (MPI & OpenMP), running on     300 processor cores
     Number of MPI processes:               300
     Threads/MPI process:                     1

     MPI processes distributed on     5 nodes
     R & G space division:  proc/nbgrp/npool/nimage =     300
     Waiting for input...
     Reading input from standard input

     Current dimensions of program PWSCF are:
     Max number of different atomic species (ntypx) = 10
     Max number of k-points (npk) =  40000
     Max angular momentum in pseudopotentials (lmaxx) =  3

     Subspace diagonalization in iterative solution of the eigenvalue problem:
     one sub-group per band group will be used
     scalapack distributed-memory algorithm (size of sub-group: 12* 12 procs)

 
     Parallelization info
     --------------------
     sticks:   dense  smooth     PW     G-vecs:    dense   smooth      PW
     Min           7       7      2                  218      218      31
     Max           8       8      3                  230      230      36
     Sum        2387    2387    659                67725    67725    9835
 


     bravais-lattice index     =            5
     lattice parameter (alat)  =      12.1620  a.u.
     unit-cell volume          =     854.7720 (a.u.)^3
     number of atoms/cell      =           10
     number of atomic types    =            3
     number of electrons       =        64.00
     number of Kohn-Sham states=           32
     kinetic-energy cutoff     =      70.0000  Ry
     charge density cutoff     =     280.0000  Ry
     convergence threshold     =      1.0E-05
     mixing beta               =       0.7000
     number of iterations used =            8  plain     mixing
     Exchange-correlation      = SLA  PW   PBE  PBE ( 1  4  3  4 0 0)
     nstep                     =           50


     celldm(1)=  12.162000  celldm(2)=   0.000000  celldm(3)=   0.000000
     celldm(4)=   0.692300  celldm(5)=   0.000000  celldm(6)=   0.000000

     crystal axes: (cart. coord. in units of alat)
               a(1) = (   0.392237  -0.226458   0.891553 )  
               a(2) = (   0.000000   0.452916   0.891553 )  
               a(3) = (  -0.392237  -0.226458   0.891553 )  

     reciprocal axes: (cart. coord. in units 2 pi/alat)
               b(1) = (  1.274739 -0.735971  0.373879 )  
               b(2) = (  0.000000  1.471942  0.373879 )  
               b(3) = ( -1.274739 -0.735971  0.373879 )  


     PseudoPot. # 1 for Ca read from file:
     ./Ca_PBE.UPF
     MD5 check sum: 403a4c14b9e4d4dfdc3024c9a3812218
     Pseudo is Ultrasoft + core correction, Zval = 10.0
     Generated by new atomic code, or converted to UPF format
     Using radial grid of  845 points,  6 beta functions with: 
                l(1) =   0
                l(2) =   0
                l(3) =   1
                l(4) =   1
                l(5) =   2
                l(6) =   2
     Q(r) pseudized with  8 coefficients,  rinner =    1.500   1.500   1.500
                                                       1.500   1.500

     PseudoPot. # 2 for C  read from file:
     ./C_PBE.UPF
     MD5 check sum: d1aef80898a10debaa0f26306b886e00
     Pseudo is Ultrasoft + core correction, Zval =  4.0
     Generated by new atomic code, or converted to UPF format
     Using radial grid of  721 points,  4 beta functions with: 
                l(1) =   0
                l(2) =   0
                l(3) =   1
                l(4) =   1
     Q(r) pseudized with  8 coefficients,  rinner =    1.100   1.100   1.100


     PseudoPot. # 3 for O  read from file:
     ./O_PBE.UPF
     MD5 check sum: 734c27235a0248c51dbae37a1fbe46ec
     Pseudo is Ultrasoft + core correction, Zval =  6.0
     Generated by new atomic code, or converted to UPF format
     Using radial grid of  737 points,  5 beta functions with: 
                l(1) =   0
                l(2) =   0
                l(3) =   1
                l(4) =   1
                l(5) =   2
     Q(r) pseudized with  8 coefficients,  rinner =    0.900   0.900   0.900
                                                       0.900   0.900

     atomic species   valence    mass     pseudopotential
        Ca            10.00    40.07800     Ca( 1.00)
        C              4.00    12.01070     C ( 1.00)
        O              6.00    16.00000     O ( 1.00)

     12 Sym. Ops., with inversion, found ( 6 have fractional translation)



   Cartesian axes

     site n.     atom                  positions (alat units)
         1           Ca  tau(   1) = (   0.0000000  -0.0000000   1.3373294  )
         2           Ca  tau(   2) = (   0.0000000   0.0000000   0.0000000  )
         3           C   tau(   3) = (   0.0000000  -0.0000000   0.6686647  )
         4           C   tau(   4) = (   0.0000000  -0.0000000   2.0059941  )
         5           O   tau(   5) = (   0.1007658   0.2783849   1.5602177  )
         6           O   tau(   6) = (   0.1907055  -0.2264582   1.5602177  )
         7           O   tau(   7) = (  -0.2914713  -0.0519267   1.5602177  )
         8           O   tau(   8) = (  -0.1907055   0.2264582   1.1144412  )
         9           O   tau(   9) = (   0.2914713   0.0519267   1.1144412  )
        10           O   tau(  10) = (  -0.1007658  -0.2783849   1.1144412  )

     number of k points=     4
                       cart. coord. in units 2pi/alat
        k(    1) = (   0.0000000   0.0000000   0.0000000), wk =   0.2500000
        k(    2) = (   0.6373695   0.3679854  -0.1869397), wk =   0.7500000
        k(    3) = (   0.6373695  -0.3679854  -0.3738795), wk =   0.7500000
        k(    4) = (   0.0000000   0.0000000  -0.5608192), wk =   0.2500000

     Dense  grid:    67725 G-vectors     FFT dimensions: (  72,  72,  72)

     Estimated max dynamical RAM per process >      16.96 MB

     Estimated total dynamical RAM >       4.97 GB
     Message from routine sym_rho_init:
     some processors have no G-vectors for symmetrization
     Message from routine sym_rho_init:
     some processors have no G-vectors for symmetrization
     Message from routine sym_rho_init:
     some processors have no G-vectors for symmetrization
     Message from routine sym_rho_init:
     some processors have no G-vectors for symmetrization
     Message from routine sym_rho_init:
     some processors have no G-vectors for symmetrization
     Message from routine sym_rho_init:
     some processors have no G-vectors for symmetrization
     Message from routine sym_rho_init:
     some processors have no G-vectors for symmetrization
     Message from routine sym_rho_init:
     some processors have no G-vectors for symmetrization
     Message from routine sym_rho_init:
     some processors have no G-vectors for symmetrization
     Message from routine sym_rho_init:
     some processors have no G-vectors for symmetrization
     Message from routine sym_rho_init:
     some processors have no G-vectors for symmetrization
     Message from routine sym_rho_init:
     some processors have no G-vectors for symmetrization
     Message from routine sym_rho_init:
     some processors have no G-vectors for symmetrization
     Message from routine sym_rho_init:
     some processors have no G-vectors for symmetrization
     Message from routine sym_rho_init:
     some processors have no G-vectors for symmetrization
     Message from routine sym_rho_init:
     some processors have no G-vectors for symmetrization
     Message from routine sym_rho_init:
     some processors have no G-vectors for symmetrization
     Message from routine sym_rho_init:
     some processors have no G-vectors for symmetrization
     Message from routine sym_rho_init:
     some processors have no G-vectors for symmetrization
     Message from routine sym_rho_init:
     some processors have no G-vectors for symmetrization
     Message from routine sym_rho_init:
     some processors have no G-vectors for symmetrization
     Message from routine sym_rho_init:
     some processors have no G-vectors for symmetrization
     Message from routine sym_rho_init:
     some processors have no G-vectors for symmetrization
     Message from routine sym_rho_init:
     some processors have no G-vectors for symmetrization
     Message from routine sym_rho_init:
     some processors have no G-vectors for symmetrization
     Message from routine sym_rho_init:
     some processors have no G-vectors for symmetrization
     Message from routine sym_rho_init:
     some processors have no G-vectors for symmetrization
     Message from routine sym_rho_init:
     some processors have no G-vectors for symmetrization
     Message from routine sym_rho_init:
     some processors have no G-vectors for symmetrization
     Message from routine sym_rho_init:
     some processors have no G-vectors for symmetrization
     Message from routine sym_rho_init:
     some processors have no G-vectors for symmetrization
     Message from routine sym_rho_init:
     some processors have no G-vectors for symmetrization
     Message from routine sym_rho_init:
     some processors have no G-vectors for symmetrization
     Message from routine sym_rho_init:
     some processors have no G-vectors for symmetrization
     Message from routine sym_rho_init:
     some processors have no G-vectors for symmetrization
     Message from routine sym_rho_init:
     some processors have no G-vectors for symmetrization
     Message from routine sym_rho_init:
     some processors have no G-vectors for symmetrization
     Message from routine sym_rho_init:
     some processors have no G-vectors for symmetrization
     Message from routine sym_rho_init:
     some processors have no G-vectors for symmetrization
     Message from routine sym_rho_init:
     some processors have no G-vectors for symmetrization
     Message from routine sym_rho_init:
     some processors have no G-vectors for symmetrization
     Message from routine sym_rho_init:
     some processors have no G-vectors for symmetrization
     Message from routine sym_rho_init:
     some processors have no G-vectors for symmetrization
     Message from routine sym_rho_init:
     some processors have no G-vectors for symmetrization
     Message from routine sym_rho_init:
     some processors have no G-vectors for symmetrization
     Message from routine sym_rho_init:
     some processors have no G-vectors for symmetrization
     Message from routine sym_rho_init:
     some processors have no G-vectors for symmetrization
     Message from routine sym_rho_init:
     some processors have no G-vectors for symmetrization
     Message from routine sym_rho_init:
     some processors have no G-vectors for symmetrization
     Message from routine sym_rho_init:
     some processors have no G-vectors for symmetrization
     Message from routine sym_rho_init:
     some processors have no G-vectors for symmetrization
     Message from routine sym_rho_init:
     some processors have no G-vectors for symmetrization
     Message from routine sym_rho_init:
     some processors have no G-vectors for symmetrization
     Message from routine sym_rho_init:
     some processors have no G-vectors for symmetrization
     Message from routine sym_rho_init:
     some processors have no G-vectors for symmetrization
     Message from routine sym_rho_init:
     some processors have no G-vectors for symmetrization
     Message from routine sym_rho_init:
     some processors have no G-vectors for symmetrization
     Message from routine sym_rho_init:
     some processors have no G-vectors for symmetrization
     Message from routine sym_rho_init:
     some processors have no G-vectors for symmetrization
     Message from routine sym_rho_init:
     some processors have no G-vectors for symmetrization
     Message from routine sym_rho_init:
     some processors have no G-vectors for symmetrization
     Message from routine sym_rho_init:
     some processors have no G-vectors for symmetrization
     Message from routine sym_rho_init:
     some processors have no G-vectors for symmetrization
     Message from routine sym_rho_init:
     some processors have no G-vectors for symmetrization
     Message from routine sym_rho_init:
     some processors have no G-vectors for symmetrization
     Message from routine sym_rho_init:
     some processors have no G-vectors for symmetrization
     Message from routine sym_rho_init:
     some processors have no G-vectors for symmetrization
     Message from routine sym_rho_init:
     some processors have no G-vectors for symmetrization
     Message from routine sym_rho_init:
     some processors have no G-vectors for symmetrization
     Message from routine sym_rho_init:
     some processors have no G-vectors for symmetrization
     Message from routine sym_rho_init:
     some processors have no G-vectors for symmetrization
     Message from routine sym_rho_init:
     some processors have no G-vectors for symmetrization
     Message from routine sym_rho_init:
     some processors have no G-vectors for symmetrization
     Message from routine sym_rho_init:
     some processors have no G-vectors for symmetrization
     Message from routine sym_rho_init:
     some processors have no G-vectors for symmetrization
     Message from routine sym_rho_init:
     some processors have no G-vectors for symmetrization
     Message from routine sym_rho_init:
     some processors have no G-vectors for symmetrization
     Message from routine sym_rho_init:
     some processors have no G-vectors for symmetrization
     Message from routine sym_rho_init:
     some processors have no G-vectors for symmetrization
     Message from routine sym_rho_init:
     some processors have no G-vectors for symmetrization
     Message from routine sym_rho_init:
     some processors have no G-vectors for symmetrization
     Message from routine sym_rho_init:
     some processors have no G-vectors for symmetrization
     Message from routine sym_rho_init:
     some processors have no G-vectors for symmetrization
     Message from routine sym_rho_init:
     some processors have no G-vectors for symmetrization
     Message from routine sym_rho_init:
     some processors have no G-vectors for symmetrization
     Message from routine sym_rho_init:
     some processors have no G-vectors for symmetrization
     Message from routine sym_rho_init:
     some processors have no G-vectors for symmetrization
     Message from routine sym_rho_init:
     some processors have no G-vectors for symmetrization
     Message from routine sym_rho_init:
     some processors have no G-vectors for symmetrization
     Message from routine sym_rho_init:
     some processors have no G-vectors for symmetrization
     Message from routine sym_rho_init:
     some processors have no G-vectors for symmetrization
     Message from routine sym_rho_init:
     some processors have no G-vectors for symmetrization
     Message from routine sym_rho_init:
     some processors have no G-vectors for symmetrization
     Message from routine sym_rho_init:
     some processors have no G-vectors for symmetrization
     Message from routine sym_rho_init:
     some processors have no G-vectors for symmetrization
     Message from routine sym_rho_init:
     some processors have no G-vectors for symmetrization
     Message from routine sym_rho_init:
     some processors have no G-vectors for symmetrization
     Message from routine sym_rho_init:
     some processors have no G-vectors for symmetrization
     Message from routine sym_rho_init:
     some processors have no G-vectors for symmetrization
     Message from routine sym_rho_init:
     some processors have no G-vectors for symmetrization
     Message from routine sym_rho_init:
     some processors have no G-vectors for symmetrization
     Message from routine sym_rho_init:
     some processors have no G-vectors for symmetrization
     Message from routine sym_rho_init:
     some processors have no G-vectors for symmetrization
     Message from routine sym_rho_init:
     some processors have no G-vectors for symmetrization
     Message from routine sym_rho_init:
     some processors have no G-vectors for symmetrization
     Message from routine sym_rho_init:
     some processors have no G-vectors for symmetrization
     Message from routine sym_rho_init:
     some processors have no G-vectors for symmetrization
     Message from routine sym_rho_init:
     some processors have no G-vectors for symmetrization
     Message from routine sym_rho_init:
     some processors have no G-vectors for symmetrization
     Message from routine sym_rho_init:
     some processors have no G-vectors for symmetrization
     Message from routine sym_rho_init:
     some processors have no G-vectors for symmetrization
     Message from routine sym_rho_init:
     some processors have no G-vectors for symmetrization
     Message from routine sym_rho_init:
     some processors have no G-vectors for symmetrization
     Message from routine sym_rho_init:
     some processors have no G-vectors for symmetrization
     Message from routine sym_rho_init:
     some processors have no G-vectors for symmetrization
     Message from routine sym_rho_init:
     some processors have no G-vectors for symmetrization
     Message from routine sym_rho_init:
     some processors have no G-vectors for symmetrization
     Message from routine sym_rho_init:
     some processors have no G-vectors for symmetrization
     Message from routine sym_rho_init:
     some processors have no G-vectors for symmetrization
     Message from routine sym_rho_init:
     some processors have no G-vectors for symmetrization
     Message from routine sym_rho_init:
     some processors have no G-vectors for symmetrization
     Message from routine sym_rho_init:
     some processors have no G-vectors for symmetrization
     Message from routine sym_rho_init:
     some processors have no G-vectors for symmetrization
     Message from routine sym_rho_init:
     some processors have no G-vectors for symmetrization
     Message from routine sym_rho_init:
     some processors have no G-vectors for symmetrization
     Message from routine sym_rho_init:
     some processors have no G-vectors for symmetrization
     Message from routine sym_rho_init:
     some processors have no G-vectors for symmetrization
     Message from routine sym_rho_init:
     some processors have no G-vectors for symmetrization
     Message from routine sym_rho_init:
     some processors have no G-vectors for symmetrization
     Message from routine sym_rho_init:
     some processors have no G-vectors for symmetrization
     Message from routine sym_rho_init:
     some processors have no G-vectors for symmetrization
     Message from routine sym_rho_init:
     some processors have no G-vectors for symmetrization
     Message from routine sym_rho_init:
     some processors have no G-vectors for symmetrization
     Message from routine sym_rho_init:
     some processors have no G-vectors for symmetrization
     Message from routine sym_rho_init:
     some processors have no G-vectors for symmetrization
     Message from routine sym_rho_init:
     some processors have no G-vectors for symmetrization
     Message from routine sym_rho_init:
     some processors have no G-vectors for symmetrization
     Message from routine sym_rho_init:
     some processors have no G-vectors for symmetrization
     Message from routine sym_rho_init:
     some processors have no G-vectors for symmetrization
     Message from routine sym_rho_init:
     some processors have no G-vectors for symmetrization
     Message from routine sym_rho_init:
     some processors have no G-vectors for symmetrization
     Message from routine sym_rho_init:
     some processors have no G-vectors for symmetrization
     Message from routine sym_rho_init:
     some processors have no G-vectors for symmetrization
     Message from routine sym_rho_init:
     some processors have no G-vectors for symmetrization
     Message from routine sym_rho_init:
     some processors have no G-vectors for symmetrization
     Message from routine sym_rho_init:
     some processors have no G-vectors for symmetrization
     Message from routine sym_rho_init:
     some processors have no G-vectors for symmetrization
     Message from routine sym_rho_init:
     some processors have no G-vectors for symmetrization
     Message from routine sym_rho_init:
     some processors have no G-vectors for symmetrization
     Message from routine sym_rho_init:
     some processors have no G-vectors for symmetrization
     Message from routine sym_rho_init:
     some processors have no G-vectors for symmetrization
     Message from routine sym_rho_init:
     some processors have no G-vectors for symmetrization
     Message from routine sym_rho_init:
     some processors have no G-vectors for symmetrization
     Message from routine sym_rho_init:
     some processors have no G-vectors for symmetrization
     Message from routine sym_rho_init:
     some processors have no G-vectors for symmetrization
     Message from routine sym_rho_init:
     some processors have no G-vectors for symmetrization
     Message from routine sym_rho_init:
     some processors have no G-vectors for symmetrization

     Check: negative core charge=   -0.000003

     Initial potential from superposition of free atoms

     starting charge   63.98899, renormalised to   64.00000
     Starting wfcs are   52 randomized atomic wfcs

     total cpu time spent up to now is        4.1 secs

     Self-consistent Calculation

     iteration #  1     ecut=    70.00 Ry     beta= 0.70
     CG style diagonalization
     ethr =  1.00E-02,  avg # of iterations =  2.7

     total cpu time spent up to now is        5.8 secs

     total energy              =    -366.66751996 Ry
     Harris-Foulkes estimate   =    -367.89457962 Ry
     estimated scf accuracy    <       1.75899088 Ry

     iteration #  2     ecut=    70.00 Ry     beta= 0.70
     CG style diagonalization
     ethr =  2.75E-03,  avg # of iterations =  4.3

     total cpu time spent up to now is        8.2 secs

     total energy              =    -367.09490520 Ry
     Harris-Foulkes estimate   =    -367.91977806 Ry
     estimated scf accuracy    <       1.70090599 Ry

     iteration #  3     ecut=    70.00 Ry     beta= 0.70
     CG style diagonalization
     ethr =  2.66E-03,  avg # of iterations =  3.8

     total cpu time spent up to now is       10.4 secs

     total energy              =    -367.42062443 Ry
     Harris-Foulkes estimate   =    -367.42266122 Ry
     estimated scf accuracy    <       0.01128402 Ry

     iteration #  4     ecut=    70.00 Ry     beta= 0.70
     CG style diagonalization
     ethr =  1.76E-05,  avg # of iterations =  4.3

     total cpu time spent up to now is       12.8 secs

     total energy              =    -367.43208611 Ry
     Harris-Foulkes estimate   =    -367.43307029 Ry
     estimated scf accuracy    <       0.00268550 Ry

     iteration #  5     ecut=    70.00 Ry     beta= 0.70
     CG style diagonalization
     ethr =  4.20E-06,  avg # of iterations =  3.6

     total cpu time spent up to now is       14.8 secs

     total energy              =    -367.43251327 Ry
     Harris-Foulkes estimate   =    -367.43253313 Ry
     estimated scf accuracy    <       0.00011978 Ry

     iteration #  6     ecut=    70.00 Ry     beta= 0.70
     CG style diagonalization
     ethr =  1.87E-07,  avg # of iterations =  4.1

     total cpu time spent up to now is       17.1 secs

     total energy              =    -367.43254991 Ry
     Harris-Foulkes estimate   =    -367.43255822 Ry
     estimated scf accuracy    <       0.00001439 Ry

     iteration #  7     ecut=    70.00 Ry     beta= 0.70
     CG style diagonalization
     ethr =  2.25E-08,  avg # of iterations =  4.1

     total cpu time spent up to now is       19.4 secs

     End of self-consistent calculation

          k = 0.0000 0.0000 0.0000 (  8387 PWs)   bands (ev):

   -33.6971 -33.6846 -17.0791 -17.0693 -15.1270 -15.1270 -14.7625 -14.7625
   -14.6702 -14.5619 -13.9018 -13.9018 -13.3711 -13.3711  -3.3117  -3.0389
    -1.6893  -1.5312  -1.5312  -1.2722  -1.2722  -0.3995   2.3580   2.3580
     2.7893   2.7893   2.9622   2.9622   3.5766   3.5766   3.7773   4.2043

          k = 0.6374 0.3680-0.1869 (  8460 PWs)   bands (ev):

   -33.6904 -33.6904 -17.0561 -17.0561 -15.0157 -15.0157 -15.0019 -15.0019
   -14.6495 -14.6495 -13.5884 -13.5884 -13.5718 -13.5718  -2.9595  -2.9595
    -1.4982  -1.4982  -1.2262  -1.2262  -0.9145  -0.9145   2.1609   2.1609
     2.5457   2.5457   2.8434   2.8434   3.1046   3.1046   4.3144   4.3144

          k = 0.6374-0.3680-0.3739 (  8490 PWs)   bands (ev):

   -33.6925 -33.6883 -17.1576 -16.9464 -15.2139 -15.2111 -14.7451 -14.7185
   -14.6966 -14.5696 -13.9409 -13.8319 -13.3869 -13.3470  -3.1297  -2.7828
    -1.5915  -1.3765  -1.2514  -1.1833  -0.9639  -0.8605   1.9196   2.2391
     2.5131   2.6922   2.7345   2.7463   3.1363   3.2598   4.1282   4.4896

          k = 0.0000 0.0000-0.5608 (  8488 PWs)   bands (ev):

   -33.6909 -33.6909 -17.0767 -17.0767 -14.9806 -14.9806 -14.9806 -14.9806
   -14.6123 -14.6123 -13.6012 -13.6012 -13.6012 -13.6012  -3.2318  -3.2318
    -1.4017  -1.4017  -1.4017  -1.4017  -1.0048  -1.0048   2.5729   2.5729
     2.5729   2.5729   3.2487   3.2487   3.2487   3.2487   3.9689   3.9689

     highest occupied level (ev):     4.4896

!    total energy              =    -367.43255539 Ry
     Harris-Foulkes estimate   =    -367.43255770 Ry
     estimated scf accuracy    <       0.00000365 Ry

     The total energy is the sum of the following terms:

     one-electron contribution =    -148.13480169 Ry
     hartree contribution      =     103.44244987 Ry
     xc contribution           =     -75.26683992 Ry
     ewald contribution        =    -247.47336365 Ry

     convergence has been achieved in   7 iterations

     Forces acting on atoms (cartesian axes, Ry/au):

     atom    1 type  1   force =     0.00000000    0.00000000    0.00000000
     atom    2 type  1   force =     0.00000000    0.00000000    0.00000000
     atom    3 type  2   force =     0.00000000   -0.00000000   -0.00000000
     atom    4 type  2   force =    -0.00000000    0.00000000   -0.00000000
     atom    5 type  3   force =    -0.00006753    0.00011696    0.00000000
     atom    6 type  3   force =     0.00013505    0.00000000   -0.00000000
     atom    7 type  3   force =    -0.00006753   -0.00011696   -0.00000000
     atom    8 type  3   force =    -0.00013505   -0.00000000    0.00000000
     atom    9 type  3   force =     0.00006753    0.00011696    0.00000000
     atom   10 type  3   force =     0.00006753   -0.00011696   -0.00000000

     Total force =     0.000331     Total SCF correction =     0.000914
     SCF correction compared to forces is large: reduce conv_thr to get better values


     Computing stress (Cartesian axis) and pressure

          total   stress  (Ry/bohr**3)                   (kbar)     P=   -2.66
  -0.00001793   0.00000000  -0.00000000         -2.64      0.00     -0.00
  -0.00000000  -0.00001793  -0.00000000         -0.00     -2.64     -0.00
   0.00000000  -0.00000000  -0.00001830          0.00     -0.00     -2.69


     BFGS Geometry Optimization

     number of scf cycles    =   1
     number of bfgs steps    =   0

     enthalpy new            =    -367.4325553862 Ry

     new trust radius        =       0.0026745050 bohr
     new conv_thr            =       0.0000100000 Ry

     new unit-cell volume =    853.61528 a.u.^3 (   126.49273 Ang^3 )
     density =      2.62784 g/cm^3

CELL_PARAMETERS (alat= 12.16200000)
   0.392061370  -0.226356737   0.891145163
  -0.000000000   0.452713475   0.891145163
  -0.392061370  -0.226356737   0.891145163

ATOMIC_POSITIONS (crystal)
Ca       0.500000000   0.500000000   0.500000000
Ca       0.000000000   0.000000000   0.000000000
C        0.250000000   0.250000000   0.250000000
C        0.750000000   0.750000000   0.750000000
O        0.506886090   0.993113910   0.250000000
O        0.993113910   0.250000000   0.506886090
O        0.250000000   0.506886090   0.993113910
O        0.006886090   0.750000000   0.493113910
O        0.750000000   0.493113910   0.006886090
O        0.493113910   0.006886090   0.750000000



     Writing output data file CCO_k.save/
     NEW-OLD atomic charge density approx. for the potential

     Check: negative core charge=   -0.000003
     extrapolated charge   63.91329, renormalised to   64.00000

     total cpu time spent up to now is       20.2 secs

     Self-consistent Calculation

     iteration #  1     ecut=    70.00 Ry     beta= 0.70
     CG style diagonalization
     ethr =  1.00E-06,  avg # of iterations =  2.8

     total cpu time spent up to now is       21.7 secs

     total energy              =    -367.43204759 Ry
     Harris-Foulkes estimate   =    -367.58766326 Ry
     estimated scf accuracy    <       0.00038879 Ry

     iteration #  2     ecut=    70.00 Ry     beta= 0.70
     CG style diagonalization
     ethr =  6.07E-07,  avg # of iterations =  4.9

     total cpu time spent up to now is       24.4 secs

     total energy              =    -367.43250196 Ry
     Harris-Foulkes estimate   =    -367.43289739 Ry
     estimated scf accuracy    <       0.00106122 Ry

     iteration #  3     ecut=    70.00 Ry     beta= 0.70
     CG style diagonalization
     ethr =  6.07E-07,  avg # of iterations =  3.8

     total cpu time spent up to now is       26.5 secs

     total energy              =    -367.43255666 Ry
     Harris-Foulkes estimate   =    -367.43258536 Ry
     estimated scf accuracy    <       0.00011136 Ry

     iteration #  4     ecut=    70.00 Ry     beta= 0.70
     CG style diagonalization
     ethr =  1.74E-07,  avg # of iterations =  3.0

     total cpu time spent up to now is       28.3 secs

     total energy              =    -367.43254562 Ry
     Harris-Foulkes estimate   =    -367.43256027 Ry
     estimated scf accuracy    <       0.00005099 Ry

     iteration #  5     ecut=    70.00 Ry     beta= 0.70
     CG style diagonalization
     ethr =  7.97E-08,  avg # of iterations =  3.1

     total cpu time spent up to now is       30.1 secs

     total energy              =    -367.43254390 Ry
     Harris-Foulkes estimate   =    -367.43254879 Ry
     estimated scf accuracy    <       0.00001231 Ry

     iteration #  6     ecut=    70.00 Ry     beta= 0.70
     CG style diagonalization
     ethr =  1.92E-08,  avg # of iterations =  3.6

     total cpu time spent up to now is       32.1 secs

     End of self-consistent calculation

          k = 0.0000 0.0000 0.0000 (  8387 PWs)   bands (ev):

   -33.6788 -33.6661 -17.0776 -17.0686 -15.1134 -15.1134 -14.7448 -14.7448
   -14.6522 -14.5448 -13.8966 -13.8966 -13.3611 -13.3611  -3.3016  -3.0271
    -1.6858  -1.5249  -1.5249  -1.2644  -1.2644  -0.3943   2.3671   2.3671
     2.7990   2.7990   2.9731   2.9731   3.5879   3.5879   3.7892   4.2171

          k = 0.6377 0.3682-0.1870 (  8460 PWs)   bands (ev):

   -33.6720 -33.6720 -17.0550 -17.0550 -15.0014 -15.0014 -14.9879 -14.9879
   -14.6319 -14.6319 -13.5791 -13.5791 -13.5627 -13.5627  -2.9483  -2.9483
    -1.4919  -1.4919  -1.2190  -1.2190  -0.9093  -0.9093   2.1705   2.1705
     2.5558   2.5558   2.8535   2.8535   3.1150   3.1150   4.3269   4.3269

          k = 0.6377-0.3682-0.3741 (  8490 PWs)   bands (ev):

   -33.6741 -33.6699 -17.1564 -16.9456 -15.2012 -15.1984 -14.7273 -14.7006
   -14.6787 -14.5523 -13.9357 -13.8264 -13.3763 -13.3363  -3.1192  -2.7708
    -1.5849  -1.3702  -1.2454  -1.1755  -0.9576  -0.8557   1.9285   2.2486
     2.5229   2.7017   2.7450   2.7568   3.1470   3.2705   4.1402   4.5025

          k =-0.0000 0.0000-0.5611 (  8488 PWs)   bands (ev):

   -33.6724 -33.6724 -17.0756 -17.0756 -14.9658 -14.9658 -14.9658 -14.9658
   -14.5947 -14.5947 -13.5927 -13.5927 -13.5927 -13.5927  -3.2213  -3.2213
    -1.3947  -1.3947  -1.3947  -1.3947  -0.9999  -0.9999   2.5826   2.5826
     2.5826   2.5826   3.2594   3.2594   3.2594   3.2594   3.9812   3.9812

     highest occupied level (ev):     4.5025

!    total energy              =    -367.43254522 Ry
     Harris-Foulkes estimate   =    -367.43254563 Ry
     estimated scf accuracy    <       0.00000052 Ry

     The total energy is the sum of the following terms:

     one-electron contribution =    -147.97943138 Ry
     hartree contribution      =     103.40401379 Ry
     xc contribution           =     -75.27734275 Ry
     ewald contribution        =    -247.57978490 Ry

     convergence has been achieved in   6 iterations

     Forces acting on atoms (cartesian axes, Ry/au):

     atom    1 type  1   force =     0.00000000    0.00000000    0.00000000
     atom    2 type  1   force =     0.00000000    0.00000000    0.00000000
     atom    3 type  2   force =     0.00000000    0.00000000   -0.00000000
     atom    4 type  2   force =     0.00000000    0.00000000    0.00000000
     atom    5 type  3   force =     0.00046720   -0.00080921   -0.00000000
     atom    6 type  3   force =    -0.00093440   -0.00000000   -0.00000000
     atom    7 type  3   force =     0.00046720    0.00080921    0.00000000
     atom    8 type  3   force =     0.00093440   -0.00000000    0.00000000
     atom    9 type  3   force =    -0.00046720   -0.00080921   -0.00000000
     atom   10 type  3   force =    -0.00046720    0.00080921    0.00000000

     Total force =     0.002289     Total SCF correction =     0.000623
     SCF correction compared to forces is large: reduce conv_thr to get better values


     Computing stress (Cartesian axis) and pressure

          total   stress  (Ry/bohr**3)                   (kbar)     P=    1.18
   0.00001080  -0.00000000   0.00000000          1.59     -0.00      0.00
  -0.00000000   0.00001080   0.00000000         -0.00      1.59      0.00
   0.00000000   0.00000000   0.00000239          0.00      0.00      0.35


     number of scf cycles    =   2
     number of bfgs steps    =   1

     enthalpy old            =    -367.4325553862 Ry
     enthalpy new            =    -367.4325452228 Ry

     CASE: enthalpy_new > enthalpy_old

     new trust radius        =       0.0009009304 bohr
     new conv_thr            =       0.0000100000 Ry

     new unit-cell volume =    854.38211 a.u.^3 (   126.60637 Ang^3 )
     density =      2.62548 g/cm^3

CELL_PARAMETERS (alat= 12.16200000)
   0.392177939  -0.226424039   0.891415555
  -0.000000000   0.452848078   0.891415555
  -0.392177939  -0.226424039   0.891415555

ATOMIC_POSITIONS (crystal)
Ca       0.500000000   0.500000000   0.500000000
Ca       0.000000000   0.000000000   0.000000000
C        0.250000000   0.250000000   0.250000000
C        0.750000000   0.750000000   0.750000000
O        0.506895476   0.993104524   0.250000000
O        0.993104524   0.250000000   0.506895476
O        0.250000000   0.506895476   0.993104524
O        0.006895476   0.750000000   0.493104524
O        0.750000000   0.493104524   0.006895476
O        0.493104524   0.006895476   0.750000000



     Writing output data file CCO_k.save/
     NEW-OLD atomic charge density approx. for the potential

     Check: negative core charge=   -0.000003
     extrapolated charge   64.05743, renormalised to   64.00000

     total cpu time spent up to now is       32.5 secs

     Self-consistent Calculation

     iteration #  1     ecut=    70.00 Ry     beta= 0.70
     CG style diagonalization
     ethr =  1.00E-06,  avg # of iterations =  2.2

     total cpu time spent up to now is       33.8 secs

     total energy              =    -367.43239455 Ry
     Harris-Foulkes estimate   =    -367.32977597 Ry
     estimated scf accuracy    <       0.00010160 Ry

     iteration #  2     ecut=    70.00 Ry     beta= 0.70
     CG style diagonalization
     ethr =  1.59E-07,  avg # of iterations =  5.0

     total cpu time spent up to now is       36.5 secs

     total energy              =    -367.43254912 Ry
     Harris-Foulkes estimate   =    -367.43266718 Ry
     estimated scf accuracy    <       0.00033631 Ry

     iteration #  3     ecut=    70.00 Ry     beta= 0.70
     CG style diagonalization
     ethr =  1.59E-07,  avg # of iterations =  3.8

     total cpu time spent up to now is       38.6 secs

     total energy              =    -367.43256040 Ry
     Harris-Foulkes estimate   =    -367.43257189 Ry
     estimated scf accuracy    <       0.00004710 Ry

     iteration #  4     ecut=    70.00 Ry     beta= 0.70
     CG style diagonalization
     ethr =  7.36E-08,  avg # of iterations =  3.0

     total cpu time spent up to now is       40.4 secs

     total energy              =    -367.43255501 Ry
     Harris-Foulkes estimate   =    -367.43256159 Ry
     estimated scf accuracy    <       0.00002201 Ry

     iteration #  5     ecut=    70.00 Ry     beta= 0.70
     CG style diagonalization
     ethr =  3.44E-08,  avg # of iterations =  3.1

     total cpu time spent up to now is       42.2 secs

     End of self-consistent calculation

          k = 0.0000 0.0000 0.0000 (  8387 PWs)   bands (ev):

   -33.6969 -33.6843 -17.0856 -17.0762 -15.1279 -15.1279 -14.7618 -14.7618
   -14.6694 -14.5616 -13.9074 -13.9074 -13.3749 -13.3749  -3.3146  -3.0413
    -1.6931  -1.5356  -1.5356  -1.2763  -1.2763  -0.4038   2.3551   2.3551
     2.7868   2.7868   2.9591   2.9591   3.5742   3.5742   3.7753   4.2024

          k = 0.6375 0.3680-0.1870 (  8460 PWs)   bands (ev):

   -33.6902 -33.6902 -17.0628 -17.0628 -15.0163 -15.0163 -15.0026 -15.0026
   -14.6489 -14.6489 -13.5923 -13.5923 -13.5758 -13.5758  -2.9623  -2.9623
    -1.5024  -1.5024  -1.2306  -1.2306  -0.9187  -0.9187   2.1583   2.1583
     2.5429   2.5429   2.8410   2.8410   3.1024   3.1024   4.3121   4.3121

          k = 0.6375-0.3680-0.3739 (  8490 PWs)   bands (ev):

   -33.6922 -33.6881 -17.1642 -16.9535 -15.2152 -15.2123 -14.7443 -14.7177
   -14.6958 -14.5693 -13.9464 -13.8374 -13.3904 -13.3505  -3.1325  -2.7854
    -1.5958  -1.3810  -1.2555  -1.1875  -0.9680  -0.8647   1.9169   2.2364
     2.5106   2.6899   2.7321   2.7434   3.1340   3.2575   4.1259   4.4872

          k =-0.0000-0.0000-0.5609 (  8488 PWs)   bands (ev):

   -33.6906 -33.6906 -17.0835 -17.0835 -14.9810 -14.9810 -14.9810 -14.9810
   -14.6118 -14.6118 -13.6055 -13.6055 -13.6055 -13.6055  -3.2345  -3.2345
    -1.4060  -1.4060  -1.4060  -1.4060  -1.0087  -1.0087   2.5700   2.5700
     2.5700   2.5700   3.2461   3.2461   3.2461   3.2461   3.9670   3.9670

     highest occupied level (ev):     4.4872

!    total energy              =    -367.43255221 Ry
     Harris-Foulkes estimate   =    -367.43255629 Ry
     estimated scf accuracy    <       0.00000517 Ry

     The total energy is the sum of the following terms:

     one-electron contribution =    -148.10869065 Ry
     hartree contribution      =     103.46381582 Ry
     xc contribution           =     -75.27846754 Ry
     ewald contribution        =    -247.50920983 Ry

     convergence has been achieved in   5 iterations

     Forces acting on atoms (cartesian axes, Ry/au):

     atom    1 type  1   force =    -0.00000000   -0.00000000   -0.00000000
     atom    2 type  1   force =    -0.00000000   -0.00000000    0.00000000
     atom    3 type  2   force =    -0.00000000   -0.00000000    0.00000000
     atom    4 type  2   force =     0.00000000   -0.00000000    0.00000000
     atom    5 type  3   force =     0.00021866   -0.00037873   -0.00000000
     atom    6 type  3   force =    -0.00043732    0.00000000   -0.00000000
     atom    7 type  3   force =     0.00021866    0.00037873    0.00000000
     atom    8 type  3   force =     0.00043732   -0.00000000   -0.00000000
     atom    9 type  3   force =    -0.00021866   -0.00037873   -0.00000000
     atom   10 type  3   force =    -0.00021866    0.00037873    0.00000000

     Total force =     0.001071     Total SCF correction =     0.002478
     SCF correction compared to forces is large: reduce conv_thr to get better values


     Computing stress (Cartesian axis) and pressure

          total   stress  (Ry/bohr**3)                   (kbar)     P=    4.94
   0.00003129  -0.00000000  -0.00000000          4.60     -0.00     -0.00
   0.00000000   0.00003129   0.00000000          0.00      4.60      0.00
   0.00000000   0.00000000   0.00003824          0.00      0.00      5.63


     number of scf cycles    =   3
     number of bfgs steps    =   1

     enthalpy old            =    -367.4325553862 Ry
     enthalpy new            =    -367.4325522071 Ry

     CASE: enthalpy_new > enthalpy_old

     new trust radius        =       0.0003108603 bohr
     new conv_thr            =       0.0000100000 Ry

     new unit-cell volume =    854.63745 a.u.^3 (   126.64420 Ang^3 )
     density =      2.62469 g/cm^3

CELL_PARAMETERS (alat= 12.16200000)
   0.392216738  -0.226446439   0.891505551
  -0.000000000   0.452892878   0.891505551
  -0.392216738  -0.226446439   0.891505551

ATOMIC_POSITIONS (crystal)
Ca       0.500000000   0.500000000   0.500000000
Ca       0.000000000   0.000000000   0.000000000
C        0.250000000   0.250000000   0.250000000
C        0.750000000   0.750000000   0.750000000
O        0.506898600   0.993101400   0.250000000
O        0.993101400   0.250000000   0.506898600
O        0.250000000   0.506898600   0.993101400
O        0.006898600   0.750000000   0.493101400
O        0.750000000   0.493101400   0.006898600
O        0.493101400   0.006898600   0.750000000



     Writing output data file CCO_k.save/
     NEW-OLD atomic charge density approx. for the potential

     Check: negative core charge=   -0.000003
     extrapolated charge   64.01912, renormalised to   64.00000

     total cpu time spent up to now is       42.6 secs

     Self-consistent Calculation

     iteration #  1     ecut=    70.00 Ry     beta= 0.70
     CG style diagonalization
     ethr =  1.00E-06,  avg # of iterations =  2.0

     Threshold (ethr) on eigenvalues was too large:
     Diagonalizing with lowered threshold

     CG style diagonalization
     ethr =  7.37E-08,  avg # of iterations =  2.4

     total cpu time spent up to now is       45.0 secs

     total energy              =    -367.43251741 Ry
     Harris-Foulkes estimate   =    -367.39834312 Ry
     estimated scf accuracy    <       0.00004673 Ry

     iteration #  2     ecut=    70.00 Ry     beta= 0.70
     CG style diagonalization
     ethr =  7.30E-08,  avg # of iterations =  4.6

     total cpu time spent up to now is       47.6 secs

     total energy              =    -367.43254858 Ry
     Harris-Foulkes estimate   =    -367.43258210 Ry
     estimated scf accuracy    <       0.00007935 Ry

     iteration #  3     ecut=    70.00 Ry     beta= 0.70
     CG style diagonalization
     ethr =  7.30E-08,  avg # of iterations =  3.8

     total cpu time spent up to now is       49.7 secs

     End of self-consistent calculation

          k = 0.0000 0.0000 0.0000 (  8387 PWs)   bands (ev):

   -33.7004 -33.6878 -17.0860 -17.0764 -15.1305 -15.1305 -14.7651 -14.7651
   -14.6728 -14.5649 -13.9085 -13.9085 -13.3770 -13.3770  -3.3170  -3.0441
    -1.6939  -1.5372  -1.5372  -1.2781  -1.2781  -0.4051   2.3532   2.3532
     2.7847   2.7847   2.9568   2.9568   3.5718   3.5718   3.7728   4.1996

          k = 0.6374 0.3680-0.1869 (  8460 PWs)   bands (ev):

   -33.6936 -33.6936 -17.0631 -17.0631 -15.0190 -15.0190 -15.0053 -15.0053
   -14.6523 -14.6523 -13.5942 -13.5942 -13.5777 -13.5777  -2.9650  -2.9650
    -1.5039  -1.5039  -1.2324  -1.2324  -0.9199  -0.9199   2.1563   2.1563
     2.5407   2.5407   2.8388   2.8388   3.1001   3.1001   4.3094   4.3094

          k = 0.6374-0.3680-0.3739 (  8490 PWs)   bands (ev):

   -33.6957 -33.6916 -17.1645 -16.9537 -15.2176 -15.2147 -14.7477 -14.7211
   -14.6992 -14.5726 -13.9476 -13.8386 -13.3925 -13.3526  -3.1351  -2.7883
    -1.5974  -1.3826  -1.2570  -1.1893  -0.9695  -0.8659   1.9150   2.2344
     2.5085   2.6879   2.7299   2.7412   3.1317   3.2552   4.1234   4.4844

          k =-0.0000-0.0000-0.5608 (  8488 PWs)   bands (ev):

   -33.6941 -33.6941 -17.0838 -17.0838 -14.9838 -14.9838 -14.9838 -14.9838
   -14.6151 -14.6151 -13.6073 -13.6073 -13.6073 -13.6073  -3.2370  -3.2370
    -1.4077  -1.4077  -1.4077  -1.4077  -1.0099  -1.0099   2.5679   2.5679
     2.5679   2.5679   3.2438   3.2438   3.2438   3.2438   3.9643   3.9643

     highest occupied level (ev):     4.4844

!    total energy              =    -367.43255505 Ry
     Harris-Foulkes estimate   =    -367.43255751 Ry
     estimated scf accuracy    <       0.00000310 Ry

     The total energy is the sum of the following terms:

     one-electron contribution =    -148.13897414 Ry
     hartree contribution      =     103.46704520 Ry
     xc contribution           =     -75.27489697 Ry
     ewald contribution        =    -247.48572913 Ry

     convergence has been achieved in   3 iterations

     Forces acting on atoms (cartesian axes, Ry/au):

     atom    1 type  1   force =     0.00000000    0.00000000    0.00000000
     atom    2 type  1   force =     0.00000000   -0.00000000   -0.00000000
     atom    3 type  2   force =    -0.00000000    0.00000000    0.00000000
     atom    4 type  2   force =     0.00000000    0.00000000    0.00000000
     atom    5 type  3   force =     0.00012583   -0.00021795   -0.00000000
     atom    6 type  3   force =    -0.00025167    0.00000000   -0.00000000
     atom    7 type  3   force =     0.00012583    0.00021795    0.00000000
     atom    8 type  3   force =     0.00025167   -0.00000000    0.00000000
     atom    9 type  3   force =    -0.00012583   -0.00021795   -0.00000000
     atom   10 type  3   force =    -0.00012583    0.00021795    0.00000000

     Total force =     0.000616     Total SCF correction =     0.002145
     SCF correction compared to forces is large: reduce conv_thr to get better values


     Computing stress (Cartesian axis) and pressure

          total   stress  (Ry/bohr**3)                   (kbar)     P=    3.28
   0.00001967   0.00000000   0.00000000          2.89      0.00      0.00
  -0.00000000   0.00001967   0.00000000         -0.00      2.89      0.00
  -0.00000000   0.00000000   0.00002745         -0.00      0.00      4.04


     number of scf cycles    =   4
     number of bfgs steps    =   1

     enthalpy old            =    -367.4325553862 Ry
     enthalpy new            =    -367.4325550464 Ry

     CASE: enthalpy_new > enthalpy_old

     new trust radius        =       0.0001364454 bohr
     new conv_thr            =       0.0000100000 Ry

     new unit-cell volume =    854.71292 a.u.^3 (   126.65539 Ang^3 )
     density =      2.62446 g/cm^3

CELL_PARAMETERS (alat= 12.16200000)
   0.392228204  -0.226453059   0.891532148
  -0.000000000   0.452906118   0.891532148
  -0.392228204  -0.226453059   0.891532148

ATOMIC_POSITIONS (crystal)
Ca       0.500000000   0.500000000   0.500000000
Ca       0.000000000   0.000000000   0.000000000
C        0.250000000   0.250000000   0.250000000
C        0.750000000   0.750000000   0.750000000
O        0.506899523   0.993100477   0.250000000
O        0.993100477   0.250000000   0.506899523
O        0.250000000   0.506899523   0.993100477
O        0.006899523   0.750000000   0.493100477
O        0.750000000   0.493100477   0.006899523
O        0.493100477   0.006899523   0.750000000



     Writing output data file CCO_k.save/
     NEW-OLD atomic charge density approx. for the potential

     Check: negative core charge=   -0.000003
     extrapolated charge   64.00565, renormalised to   64.00000

     total cpu time spent up to now is       50.2 secs

     Self-consistent Calculation

     iteration #  1     ecut=    70.00 Ry     beta= 0.70
     CG style diagonalization
     ethr =  1.00E-06,  avg # of iterations =  2.0

     Threshold (ethr) on eigenvalues was too large:
     Diagonalizing with lowered threshold

     CG style diagonalization
     ethr =  1.76E-08,  avg # of iterations =  2.7

     total cpu time spent up to now is       52.7 secs

     total energy              =    -367.43254926 Ry
     Harris-Foulkes estimate   =    -367.42244484 Ry
     estimated scf accuracy    <       0.00001152 Ry

     iteration #  2     ecut=    70.00 Ry     beta= 0.70
     CG style diagonalization
     ethr =  1.80E-08,  avg # of iterations =  4.4

     total cpu time spent up to now is       55.2 secs

     total energy              =    -367.43255463 Ry
     Harris-Foulkes estimate   =    -367.43256147 Ry
     estimated scf accuracy    <       0.00001516 Ry

     iteration #  3     ecut=    70.00 Ry     beta= 0.70
     CG style diagonalization
     ethr =  1.80E-08,  avg # of iterations =  3.8

     total cpu time spent up to now is       57.3 secs

     End of self-consistent calculation

          k = 0.0000 0.0000 0.0000 (  8387 PWs)   bands (ev):

   -33.6996 -33.6870 -17.0831 -17.0735 -15.1294 -15.1294 -14.7646 -14.7646
   -14.6723 -14.5642 -13.9058 -13.9058 -13.3747 -13.3747  -3.3154  -3.0425
    -1.6921  -1.5351  -1.5351  -1.2761  -1.2761  -0.4030   2.3551   2.3551
     2.7866   2.7866   2.9588   2.9588   3.5738   3.5738   3.7745   4.2015

          k = 0.6374 0.3680-0.1869 (  8460 PWs)   bands (ev):

   -33.6928 -33.6928 -17.0602 -17.0602 -15.0180 -15.0180 -15.0043 -15.0043
   -14.6516 -14.6516 -13.5919 -13.5919 -13.5753 -13.5753  -2.9633  -2.9633
    -1.5019  -1.5019  -1.2303  -1.2303  -0.9180  -0.9180   2.1581   2.1581
     2.5427   2.5427   2.8408   2.8408   3.1021   3.1021   4.3114   4.3114

          k = 0.6374-0.3680-0.3739 (  8490 PWs)   bands (ev):

   -33.6949 -33.6908 -17.1617 -16.9507 -15.2164 -15.2136 -14.7471 -14.7205
   -14.6987 -14.5719 -13.9448 -13.8358 -13.3904 -13.3504  -3.1334  -2.7866
    -1.5953  -1.3805  -1.2550  -1.1873  -0.9675  -0.8639   1.9168   2.2362
     2.5104   2.6898   2.7318   2.7432   3.1336   3.2572   4.1253   4.4865

          k =-0.0000-0.0000-0.5608 (  8488 PWs)   bands (ev):

   -33.6933 -33.6933 -17.0809 -17.0809 -14.9829 -14.9829 -14.9829 -14.9829
   -14.6145 -14.6145 -13.6049 -13.6049 -13.6049 -13.6049  -3.2354  -3.2354
    -1.4056  -1.4056  -1.4056  -1.4056  -1.0079  -1.0079   2.5699   2.5699
     2.5699   2.5699   3.2459   3.2459   3.2459   3.2459   3.9661   3.9661

     highest occupied level (ev):     4.4865

!    total energy              =    -367.43255662 Ry
     Harris-Foulkes estimate   =    -367.43255677 Ry
     estimated scf accuracy    <       0.00000019 Ry

     The total energy is the sum of the following terms:

     one-electron contribution =    -148.14112101 Ry
     hartree contribution      =     103.45905155 Ry
     xc contribution           =     -75.27169637 Ry
     ewald contribution        =    -247.47879079 Ry

     convergence has been achieved in   3 iterations

     Forces acting on atoms (cartesian axes, Ry/au):

     atom    1 type  1   force =     0.00000000   -0.00000000    0.00000000
     atom    2 type  1   force =     0.00000000    0.00000000    0.00000000
     atom    3 type  2   force =    -0.00000000    0.00000000   -0.00000000
     atom    4 type  2   force =     0.00000000    0.00000000   -0.00000000
     atom    5 type  3   force =    -0.00002884    0.00004995    0.00000000
     atom    6 type  3   force =     0.00005767    0.00000000   -0.00000000
     atom    7 type  3   force =    -0.00002884   -0.00004995   -0.00000000
     atom    8 type  3   force =    -0.00005767   -0.00000000    0.00000000
     atom    9 type  3   force =     0.00002884    0.00004995    0.00000000
     atom   10 type  3   force =     0.00002884   -0.00004995   -0.00000000

     Total force =     0.000141     Total SCF correction =     0.000748
     SCF correction compared to forces is large: reduce conv_thr to get better values


     Computing stress (Cartesian axis) and pressure

          total   stress  (Ry/bohr**3)                   (kbar)     P=    1.04
   0.00000508  -0.00000000   0.00000000          0.75     -0.00      0.00
  -0.00000000   0.00000508   0.00000000         -0.00      0.75      0.00
  -0.00000000   0.00000000   0.00001100         -0.00      0.00      1.62


     number of scf cycles    =   5
     number of bfgs steps    =   1

     enthalpy old            =    -367.4325553862 Ry
     enthalpy new            =    -367.4325566170 Ry

     CASE: enthalpy_new < enthalpy_old

     new trust radius        =       0.0004093421 bohr
     new conv_thr            =       0.0000001000 Ry

     new unit-cell volume =    854.71608 a.u.^3 (   126.65585 Ang^3 )
     density =      2.62445 g/cm^3

CELL_PARAMETERS (alat= 12.16200000)
   0.392215201  -0.226445552   0.891594562
  -0.000000000   0.452891104   0.891594562
  -0.392215201  -0.226445552   0.891594562

ATOMIC_POSITIONS (crystal)
Ca       0.500000000   0.500000000   0.500000000
Ca       0.000000000   0.000000000   0.000000000
C        0.250000000   0.250000000   0.250000000
C        0.750000000   0.750000000   0.750000000
O        0.506891287   0.993108713   0.250000000
O        0.993108713   0.250000000   0.506891287
O        0.250000000   0.506891287   0.993108713
O        0.006891287   0.750000000   0.493108713
O        0.750000000   0.493108713   0.006891287
O        0.493108713   0.006891287   0.750000000



     Writing output data file CCO_k.save/
     NEW-OLD atomic charge density approx. for the potential

     Check: negative core charge=   -0.000003
     extrapolated charge   64.00024, renormalised to   64.00000

     total cpu time spent up to now is       57.7 secs

     Self-consistent Calculation

     iteration #  1     ecut=    70.00 Ry     beta= 0.70
     CG style diagonalization
     ethr =  1.00E-06,  avg # of iterations =  2.0

     Threshold (ethr) on eigenvalues was too large:
     Diagonalizing with lowered threshold

     CG style diagonalization
     c_bands:  1 eigenvalues not converged
     ethr =  9.76E-11,  avg # of iterations =  5.6

     total cpu time spent up to now is       61.8 secs

     total energy              =    -367.43255691 Ry
     Harris-Foulkes estimate   =    -367.43213304 Ry
     estimated scf accuracy    <       0.00000026 Ry

     iteration #  2     ecut=    70.00 Ry     beta= 0.70
     CG style diagonalization
     ethr =  4.11E-10,  avg # of iterations =  4.2

     total cpu time spent up to now is       64.1 secs

     total energy              =    -367.43255699 Ry
     Harris-Foulkes estimate   =    -367.43255713 Ry
     estimated scf accuracy    <       0.00000031 Ry

     iteration #  3     ecut=    70.00 Ry     beta= 0.70
     CG style diagonalization
     ethr =  4.11E-10,  avg # of iterations =  3.8

     total cpu time spent up to now is       66.2 secs

     End of self-consistent calculation

          k = 0.0000 0.0000 0.0000 (  8387 PWs)   bands (ev):

   -33.6993 -33.6867 -17.0831 -17.0734 -15.1291 -15.1291 -14.7644 -14.7644
   -14.6720 -14.5639 -13.9051 -13.9051 -13.3742 -13.3742  -3.3143  -3.0414
    -1.6919  -1.5344  -1.5344  -1.2753  -1.2753  -0.4029   2.3560   2.3560
     2.7877   2.7877   2.9598   2.9598   3.5747   3.5747   3.7757   4.2027

          k = 0.6374 0.3680-0.1869 (  8460 PWs)   bands (ev):

   -33.6925 -33.6925 -17.0601 -17.0601 -15.0177 -15.0177 -15.0039 -15.0039
   -14.6514 -14.6514 -13.5914 -13.5914 -13.5748 -13.5748  -2.9621  -2.9621
    -1.5012  -1.5012  -1.2295  -1.2295  -0.9177  -0.9177   2.1590   2.1590
     2.5436   2.5436   2.8416   2.8416   3.1029   3.1029   4.3128   4.3128

          k = 0.6374-0.3680-0.3739 (  8490 PWs)   bands (ev):

   -33.6946 -33.6905 -17.1616 -16.9506 -15.2160 -15.2132 -14.7469 -14.7203
   -14.6984 -14.5717 -13.9442 -13.8352 -13.3899 -13.3499  -3.1322  -2.7854
    -1.5946  -1.3798  -1.2544  -1.1866  -0.9670  -0.8637   1.9176   2.2371
     2.5112   2.6907   2.7327   2.7442   3.1345   3.2580   4.1267   4.4879

          k = 0.0000 0.0000-0.5608 (  8488 PWs)   bands (ev):

   -33.6930 -33.6930 -17.0808 -17.0808 -14.9826 -14.9826 -14.9826 -14.9826
   -14.6143 -14.6143 -13.6043 -13.6043 -13.6043 -13.6043  -3.2343  -3.2343
    -1.4049  -1.4049  -1.4049  -1.4049  -1.0078  -1.0078   2.5708   2.5708
     2.5708   2.5708   3.2469   3.2469   3.2469   3.2469   3.9674   3.9674

     highest occupied level (ev):     4.4879

!    total energy              =    -367.43255704 Ry
     Harris-Foulkes estimate   =    -367.43255704 Ry
     estimated scf accuracy    <          4.3E-10 Ry

     The total energy is the sum of the following terms:

     one-electron contribution =    -148.15419763 Ry
     hartree contribution      =     103.46358862 Ry
     xc contribution           =     -75.27164642 Ry
     ewald contribution        =    -247.47030160 Ry

     convergence has been achieved in   3 iterations

     Forces acting on atoms (cartesian axes, Ry/au):

     atom    1 type  1   force =    -0.00000000    0.00000000   -0.00000000
     atom    2 type  1   force =    -0.00000000    0.00000000   -0.00000000
     atom    3 type  2   force =     0.00000000    0.00000000   -0.00000000
     atom    4 type  2   force =    -0.00000000   -0.00000000   -0.00000000
     atom    5 type  3   force =     0.00002184   -0.00003783   -0.00000000
     atom    6 type  3   force =    -0.00004368   -0.00000000   -0.00000000
     atom    7 type  3   force =     0.00002184    0.00003783    0.00000000
     atom    8 type  3   force =     0.00004368    0.00000000    0.00000000
     atom    9 type  3   force =    -0.00002184   -0.00003783   -0.00000000
     atom   10 type  3   force =    -0.00002184    0.00003783    0.00000000

     Total force =     0.000107     Total SCF correction =     0.000077
     SCF correction compared to forces is large: reduce conv_thr to get better values


     Computing stress (Cartesian axis) and pressure

          total   stress  (Ry/bohr**3)                   (kbar)     P=    0.64
   0.00000324   0.00000000  -0.00000000          0.48      0.00     -0.00
   0.00000000   0.00000324   0.00000000          0.00      0.48      0.00
   0.00000000   0.00000000   0.00000654          0.00      0.00      0.96


     number of scf cycles    =   6
     number of bfgs steps    =   2

     enthalpy old            =    -367.4325566170 Ry
     enthalpy new            =    -367.4325570409 Ry

     CASE: enthalpy_new < enthalpy_old

     new trust radius        =       0.0005236255 bohr
     new conv_thr            =       0.0000001000 Ry

     new unit-cell volume =    854.72051 a.u.^3 (   126.65651 Ang^3 )
     density =      2.62444 g/cm^3

CELL_PARAMETERS (alat= 12.16200000)
   0.392198656  -0.226435999   0.891674407
  -0.000000000   0.452871999   0.891674407
  -0.392198656  -0.226435999   0.891674407

ATOMIC_POSITIONS (crystal)
Ca       0.500000000   0.500000000   0.500000000
Ca      -0.000000000   0.000000000   0.000000000
C        0.250000000   0.250000000   0.250000000
C        0.750000000   0.750000000   0.750000000
O        0.506895121   0.993104879   0.250000000
O        0.993104879   0.250000000   0.506895121
O        0.250000000   0.506895121   0.993104879
O        0.006895121   0.750000000   0.493104879
O        0.750000000   0.493104879   0.006895121
O        0.493104879   0.006895121   0.750000000



     Writing output data file CCO_k.save/
     NEW-OLD atomic charge density approx. for the potential

     Check: negative core charge=   -0.000003
     extrapolated charge   64.00033, renormalised to   64.00000

     total cpu time spent up to now is       66.7 secs

     Self-consistent Calculation

     iteration #  1     ecut=    70.00 Ry     beta= 0.70
     CG style diagonalization
     ethr =  1.00E-06,  avg # of iterations =  2.0

     Threshold (ethr) on eigenvalues was too large:
     Diagonalizing with lowered threshold

     CG style diagonalization
     ethr =  8.86E-12,  avg # of iterations =  7.0

     total cpu time spent up to now is       71.3 secs

     End of self-consistent calculation

          k = 0.0000 0.0000 0.0000 (  8387 PWs)   bands (ev):

   -33.6992 -33.6867 -17.0835 -17.0737 -15.1290 -15.1290 -14.7643 -14.7643
   -14.6720 -14.5639 -13.9052 -13.9052 -13.3744 -13.3744  -3.3143  -3.0412
    -1.6920  -1.5345  -1.5345  -1.2754  -1.2754  -0.4033   2.3560   2.3560
     2.7880   2.7880   2.9600   2.9600   3.5747   3.5747   3.7758   4.2028

          k = 0.6374 0.3680-0.1869 (  8460 PWs)   bands (ev):

   -33.6925 -33.6925 -17.0604 -17.0604 -15.0177 -15.0177 -15.0040 -15.0040
   -14.6514 -14.6514 -13.5915 -13.5915 -13.5749 -13.5749  -2.9619  -2.9619
    -1.5013  -1.5013  -1.2295  -1.2295  -0.9180  -0.9180   2.1590   2.1590
     2.5438   2.5438   2.8416   2.8416   3.1028   3.1028   4.3131   4.3131

          k = 0.6374-0.3680-0.3738 (  8490 PWs)   bands (ev):

   -33.6945 -33.6904 -17.1619 -16.9510 -15.2160 -15.2132 -14.7469 -14.7203
   -14.6984 -14.5717 -13.9443 -13.8353 -13.3899 -13.3500  -3.1320  -2.7852
    -1.5946  -1.3798  -1.2545  -1.1866  -0.9672  -0.8640   1.9176   2.2372
     2.5112   2.6907   2.7329   2.7443   3.1345   3.2579   4.1270   4.4882

          k = 0.0000 0.0000-0.5607 (  8488 PWs)   bands (ev):

   -33.6929 -33.6929 -17.0812 -17.0812 -14.9825 -14.9825 -14.9825 -14.9825
   -14.6142 -14.6142 -13.6044 -13.6044 -13.6044 -13.6044  -3.2342  -3.2342
    -1.4049  -1.4049  -1.4049  -1.4049  -1.0081  -1.0081   2.5710   2.5710
     2.5710   2.5710   3.2470   3.2470   3.2470   3.2470   3.9675   3.9675

     highest occupied level (ev):     4.4882

!    total energy              =    -367.43255728 Ry
     Harris-Foulkes estimate   =    -367.43196394 Ry
     estimated scf accuracy    <          7.7E-09 Ry

     The total energy is the sum of the following terms:

     one-electron contribution =    -148.16284297 Ry
     hartree contribution      =     103.46732116 Ry
     xc contribution           =     -75.27179736 Ry
     ewald contribution        =    -247.46523811 Ry

     convergence has been achieved in   1 iterations

     Forces acting on atoms (cartesian axes, Ry/au):

     atom    1 type  1   force =     0.00000000    0.00000000   -0.00000000
     atom    2 type  1   force =    -0.00000000   -0.00000000   -0.00000000
     atom    3 type  2   force =    -0.00000000   -0.00000000    0.00000000
     atom    4 type  2   force =     0.00000000   -0.00000000    0.00000000
     atom    5 type  3   force =     0.00005116   -0.00008861   -0.00000000
     atom    6 type  3   force =    -0.00010231   -0.00000000    0.00000000
     atom    7 type  3   force =     0.00005116    0.00008861    0.00000000
     atom    8 type  3   force =     0.00010231    0.00000000    0.00000000
     atom    9 type  3   force =    -0.00005116   -0.00008861   -0.00000000
     atom   10 type  3   force =    -0.00005116    0.00008861    0.00000000

     Total force =     0.000251     Total SCF correction =     0.000292
     SCF correction compared to forces is large: reduce conv_thr to get better values


     Computing stress (Cartesian axis) and pressure

          total   stress  (Ry/bohr**3)                   (kbar)     P=    0.61
   0.00000339  -0.00000000  -0.00000000          0.50     -0.00     -0.00
   0.00000000   0.00000339   0.00000000          0.00      0.50      0.00
   0.00000000   0.00000000   0.00000558          0.00      0.00      0.82


     number of scf cycles    =   7
     number of bfgs steps    =   3

     enthalpy old            =    -367.4325570409 Ry
     enthalpy new            =    -367.4325572812 Ry

     CASE: enthalpy_new < enthalpy_old

     new trust radius        =       0.0007853700 bohr
     new conv_thr            =       0.0000001000 Ry

     new unit-cell volume =    854.73161 a.u.^3 (   126.65816 Ang^3 )
     density =      2.62441 g/cm^3

CELL_PARAMETERS (alat= 12.16200000)
   0.392174866  -0.226422264   0.891794174
  -0.000000000   0.452844529   0.891794174
  -0.392174866  -0.226422264   0.891794174

ATOMIC_POSITIONS (crystal)
Ca       0.500000000   0.500000000   0.500000000
Ca      -0.000000000   0.000000000   0.000000000
C        0.250000000   0.250000000   0.250000000
C        0.750000000   0.750000000   0.750000000
O        0.506909503   0.993090497   0.250000000
O        0.993090497   0.250000000   0.506909503
O        0.250000000   0.506909503   0.993090497
O        0.006909503   0.750000000   0.493090497
O        0.750000000   0.493090497   0.006909503
O        0.493090497   0.006909503   0.750000000



     Writing output data file CCO_k.save/
     NEW-OLD atomic charge density approx. for the potential

     Check: negative core charge=   -0.000003
     extrapolated charge   64.00083, renormalised to   64.00000

     total cpu time spent up to now is       71.8 secs

     Self-consistent Calculation

     iteration #  1     ecut=    70.00 Ry     beta= 0.70
     CG style diagonalization
     ethr =  1.00E-06,  avg # of iterations =  2.0

     Threshold (ethr) on eigenvalues was too large:
     Diagonalizing with lowered threshold

     CG style diagonalization
     ethr =  7.90E-11,  avg # of iterations =  5.6

     total cpu time spent up to now is       75.8 secs

     End of self-consistent calculation

          k = 0.0000 0.0000 0.0000 (  8387 PWs)   bands (ev):

   -33.6989 -33.6864 -17.0835 -17.0736 -15.1288 -15.1288 -14.7641 -14.7641
   -14.6717 -14.5635 -13.9050 -13.9050 -13.3742 -13.3742  -3.3143  -3.0412
    -1.6921  -1.5344  -1.5344  -1.2753  -1.2753  -0.4036   2.3560   2.3560
     2.7885   2.7885   2.9602   2.9602   3.5746   3.5746   3.7757   4.2027

          k = 0.6375 0.3680-0.1869 (  8460 PWs)   bands (ev):

   -33.6922 -33.6922 -17.0604 -17.0604 -15.0175 -15.0175 -15.0038 -15.0038
   -14.6512 -14.6512 -13.5913 -13.5913 -13.5747 -13.5747  -2.9618  -2.9618
    -1.5011  -1.5011  -1.2293  -1.2293  -0.9181  -0.9181   2.1590   2.1590
     2.5440   2.5440   2.8416   2.8416   3.1027   3.1027   4.3133   4.3133

          k = 0.6375-0.3680-0.3738 (  8490 PWs)   bands (ev):

   -33.6943 -33.6901 -17.1618 -16.9509 -15.2158 -15.2131 -14.7467 -14.7201
   -14.6981 -14.5715 -13.9442 -13.8353 -13.3897 -13.3497  -3.1318  -2.7851
    -1.5944  -1.3796  -1.2543  -1.1866  -0.9671  -0.8642   1.9176   2.2372
     2.5112   2.6908   2.7330   2.7445   3.1344   3.2576   4.1272   4.4884

          k = 0.0000 0.0000-0.5607 (  8488 PWs)   bands (ev):

   -33.6927 -33.6927 -17.0811 -17.0811 -14.9823 -14.9823 -14.9823 -14.9823
   -14.6139 -14.6139 -13.6043 -13.6043 -13.6043 -13.6043  -3.2341  -3.2341
    -1.4049  -1.4049  -1.4049  -1.4049  -1.0083  -1.0083   2.5712   2.5712
     2.5712   2.5712   3.2471   3.2471   3.2471   3.2471   3.9674   3.9674

     highest occupied level (ev):     4.4884

!    total energy              =    -367.43255760 Ry
     Harris-Foulkes estimate   =    -367.43106925 Ry
     estimated scf accuracy    <       0.00000003 Ry

     The total energy is the sum of the following terms:

     one-electron contribution =    -148.16941485 Ry
     hartree contribution      =     103.46919044 Ry
     xc contribution           =     -75.27149845 Ry
     ewald contribution        =    -247.46083475 Ry

     convergence has been achieved in   1 iterations

     Forces acting on atoms (cartesian axes, Ry/au):

     atom    1 type  1   force =    -0.00000000    0.00000000   -0.00000000
     atom    2 type  1   force =     0.00000000    0.00000000   -0.00000000
     atom    3 type  2   force =    -0.00000000    0.00000000    0.00000000
     atom    4 type  2   force =     0.00000000    0.00000000    0.00000000
     atom    5 type  3   force =     0.00003413   -0.00005911   -0.00000000
     atom    6 type  3   force =    -0.00006826   -0.00000000    0.00000000
     atom    7 type  3   force =     0.00003413    0.00005911    0.00000000
     atom    8 type  3   force =     0.00006826    0.00000000   -0.00000000
     atom    9 type  3   force =    -0.00003413   -0.00005911   -0.00000000
     atom   10 type  3   force =    -0.00003413    0.00005911    0.00000000

     Total force =     0.000167     Total SCF correction =     0.000839
     SCF correction compared to forces is large: reduce conv_thr to get better values


     Computing stress (Cartesian axis) and pressure

          total   stress  (Ry/bohr**3)                   (kbar)     P=    0.33
   0.00000196   0.00000000  -0.00000000          0.29      0.00     -0.00
   0.00000000   0.00000196   0.00000000          0.00      0.29      0.00
  -0.00000000   0.00000000   0.00000278         -0.00      0.00      0.41


     bfgs converged in   8 scf cycles and   4 bfgs steps
     (criteria: energy <  1.0E-04 Ry, force <  1.0E-03Ry/Bohr, cell <  5.0E-01kbar)

     End of BFGS Geometry Optimization

     Final enthalpy =    -367.4325576041 Ry
Begin final coordinates
     new unit-cell volume =    854.73161 a.u.^3 (   126.65816 Ang^3 )
     density =      2.62441 g/cm^3

CELL_PARAMETERS (alat= 12.16200000)
   0.392174866  -0.226422264   0.891794174
  -0.000000000   0.452844529   0.891794174
  -0.392174866  -0.226422264   0.891794174

ATOMIC_POSITIONS (crystal)
Ca       0.500000000   0.500000000   0.500000000
Ca      -0.000000000   0.000000000   0.000000000
C        0.250000000   0.250000000   0.250000000
C        0.750000000   0.750000000   0.750000000
O        0.506909503   0.993090497   0.250000000
O        0.993090497   0.250000000   0.506909503
O        0.250000000   0.506909503   0.993090497
O        0.006909503   0.750000000   0.493090497
O        0.750000000   0.493090497   0.006909503
O        0.493090497   0.006909503   0.750000000
End final coordinates



     Writing output data file CCO_k.save/

     A final scf calculation at the relaxed structure.
     The G-vectors are recalculated for the final unit cell
     Results may differ from those at the preceding step.
 
     Parallelization info
     --------------------
     sticks:   dense  smooth     PW     G-vecs:    dense   smooth      PW
     Min           7       7      2                  218      218      31
     Max           8       8      3                  230      230      36
     Sum        2387    2387    659                67695    67695    9835
 


     bravais-lattice index     =            5
     lattice parameter (alat)  =      12.1620  a.u.
     unit-cell volume          =     854.7316 (a.u.)^3
     number of atoms/cell      =           10
     number of atomic types    =            3
     number of electrons       =        64.00
     number of Kohn-Sham states=           32
     kinetic-energy cutoff     =      70.0000  Ry
     charge density cutoff     =     280.0000  Ry
     convergence threshold     =      1.0E-07
     mixing beta               =       0.7000
     number of iterations used =            8  plain     mixing
     Exchange-correlation      = SLA  PW   PBE  PBE ( 1  4  3  4 0 0)

     celldm(1)=  12.162000  celldm(2)=   0.000000  celldm(3)=   0.000000
     celldm(4)=   0.692300  celldm(5)=   0.000000  celldm(6)=   0.000000

     crystal axes: (cart. coord. in units of alat)
               a(1) = (   0.392175  -0.226422   0.891794 )  
               a(2) = (  -0.000000   0.452845   0.891794 )  
               a(3) = (  -0.392175  -0.226422   0.891794 )  

     reciprocal axes: (cart. coord. in units 2 pi/alat)
               b(1) = (  1.274941 -0.736088  0.373778 )  
               b(2) = ( -0.000000  1.472176  0.373778 )  
               b(3) = ( -1.274941 -0.736088  0.373778 )  


     PseudoPot. # 1 for Ca read from file:
     ./Ca_PBE.UPF
     MD5 check sum: 403a4c14b9e4d4dfdc3024c9a3812218
     Pseudo is Ultrasoft + core correction, Zval = 10.0
     Generated by new atomic code, or converted to UPF format
     Using radial grid of  845 points,  6 beta functions with: 
                l(1) =   0
                l(2) =   0
                l(3) =   1
                l(4) =   1
                l(5) =   2
                l(6) =   2
     Q(r) pseudized with  8 coefficients,  rinner =    1.500   1.500   1.500
                                                       1.500   1.500

     PseudoPot. # 2 for C  read from file:
     ./C_PBE.UPF
     MD5 check sum: d1aef80898a10debaa0f26306b886e00
     Pseudo is Ultrasoft + core correction, Zval =  4.0
     Generated by new atomic code, or converted to UPF format
     Using radial grid of  721 points,  4 beta functions with: 
                l(1) =   0
                l(2) =   0
                l(3) =   1
                l(4) =   1
     Q(r) pseudized with  8 coefficients,  rinner =    1.100   1.100   1.100


     PseudoPot. # 3 for O  read from file:
     ./O_PBE.UPF
     MD5 check sum: 734c27235a0248c51dbae37a1fbe46ec
     Pseudo is Ultrasoft + core correction, Zval =  6.0
     Generated by new atomic code, or converted to UPF format
     Using radial grid of  737 points,  5 beta functions with: 
                l(1) =   0
                l(2) =   0
                l(3) =   1
                l(4) =   1
                l(5) =   2
     Q(r) pseudized with  8 coefficients,  rinner =    0.900   0.900   0.900
                                                       0.900   0.900

     atomic species   valence    mass     pseudopotential
        Ca            10.00    40.07800     Ca( 1.00)
        C              4.00    12.01070     C ( 1.00)
        O              6.00    16.00000     O ( 1.00)

     12 Sym. Ops., with inversion, found ( 6 have fractional translation)



   Cartesian axes

     site n.     atom                  positions (alat units)
         1           Ca  tau(   1) = (  -0.0000000  -0.0000000   1.3376913  )
         2           Ca  tau(   2) = (  -0.0000000   0.0000000  -0.0000000  )
         3           C   tau(   3) = (  -0.0000000  -0.0000000   0.6688456  )
         4           C   tau(   4) = (  -0.0000000  -0.0000000   2.0065369  )
         5           O   tau(   5) = (   0.1007534   0.2783344   1.5606398  )
         6           O   tau(   6) = (   0.1906680  -0.2264223   1.5606398  )
         7           O   tau(   7) = (  -0.2914214  -0.0519122   1.5606398  )
         8           O   tau(   8) = (  -0.1906680   0.2264223   1.1147427  )
         9           O   tau(   9) = (   0.2914214   0.0519122   1.1147427  )
        10           O   tau(  10) = (  -0.1007534  -0.2783344   1.1147427  )

     number of k points=     4
                       cart. coord. in units 2pi/alat
        k(    1) = (   0.0000000   0.0000000   0.0000000), wk =   0.2500000
        k(    2) = (   0.6374707   0.3680439  -0.1868892), wk =   0.7500000
        k(    3) = (   0.6374707  -0.3680439  -0.3737783), wk =   0.7500000
        k(    4) = (   0.0000000   0.0000000  -0.5606675), wk =   0.2500000

     Dense  grid:    67695 G-vectors     FFT dimensions: (  72,  72,  72)

     Estimated max dynamical RAM per process >      16.95 MB

     Estimated total dynamical RAM >       4.97 GB
     Message from routine sym_rho_init:
     some processors have no G-vectors for symmetrization
     Message from routine sym_rho_init:
     some processors have no G-vectors for symmetrization
     Message from routine sym_rho_init:
     some processors have no G-vectors for symmetrization
     Message from routine sym_rho_init:
     some processors have no G-vectors for symmetrization
     Message from routine sym_rho_init:
     some processors have no G-vectors for symmetrization
     Message from routine sym_rho_init:
     some processors have no G-vectors for symmetrization
     Message from routine sym_rho_init:
     some processors have no G-vectors for symmetrization
     Message from routine sym_rho_init:
     some processors have no G-vectors for symmetrization
     Message from routine sym_rho_init:
     some processors have no G-vectors for symmetrization
     Message from routine sym_rho_init:
     some processors have no G-vectors for symmetrization
     Message from routine sym_rho_init:
     some processors have no G-vectors for symmetrization
     Message from routine sym_rho_init:
     some processors have no G-vectors for symmetrization
     Message from routine sym_rho_init:
     some processors have no G-vectors for symmetrization
     Message from routine sym_rho_init:
     some processors have no G-vectors for symmetrization
     Message from routine sym_rho_init:
     some processors have no G-vectors for symmetrization
     Message from routine sym_rho_init:
     some processors have no G-vectors for symmetrization
     Message from routine sym_rho_init:
     some processors have no G-vectors for symmetrization
     Message from routine sym_rho_init:
     some processors have no G-vectors for symmetrization
     Message from routine sym_rho_init:
     some processors have no G-vectors for symmetrization
     Message from routine sym_rho_init:
     some processors have no G-vectors for symmetrization
     Message from routine sym_rho_init:
     some processors have no G-vectors for symmetrization
     Message from routine sym_rho_init:
     some processors have no G-vectors for symmetrization
     Message from routine sym_rho_init:
     some processors have no G-vectors for symmetrization
     Message from routine sym_rho_init:
     some processors have no G-vectors for symmetrization
     Message from routine sym_rho_init:
     some processors have no G-vectors for symmetrization
     Message from routine sym_rho_init:
     some processors have no G-vectors for symmetrization
     Message from routine sym_rho_init:
     some processors have no G-vectors for symmetrization
     Message from routine sym_rho_init:
     some processors have no G-vectors for symmetrization
     Message from routine sym_rho_init:
     some processors have no G-vectors for symmetrization
     Message from routine sym_rho_init:
     some processors have no G-vectors for symmetrization
     Message from routine sym_rho_init:
     some processors have no G-vectors for symmetrization
     Message from routine sym_rho_init:
     some processors have no G-vectors for symmetrization
     Message from routine sym_rho_init:
     some processors have no G-vectors for symmetrization
     Message from routine sym_rho_init:
     some processors have no G-vectors for symmetrization
     Message from routine sym_rho_init:
     some processors have no G-vectors for symmetrization
     Message from routine sym_rho_init:
     some processors have no G-vectors for symmetrization
     Message from routine sym_rho_init:
     some processors have no G-vectors for symmetrization
     Message from routine sym_rho_init:
     some processors have no G-vectors for symmetrization
     Message from routine sym_rho_init:
     some processors have no G-vectors for symmetrization
     Message from routine sym_rho_init:
     some processors have no G-vectors for symmetrization
     Message from routine sym_rho_init:
     some processors have no G-vectors for symmetrization
     Message from routine sym_rho_init:
     some processors have no G-vectors for symmetrization
     Message from routine sym_rho_init:
     some processors have no G-vectors for symmetrization
     Message from routine sym_rho_init:
     some processors have no G-vectors for symmetrization
     Message from routine sym_rho_init:
     some processors have no G-vectors for symmetrization
     Message from routine sym_rho_init:
     some processors have no G-vectors for symmetrization
     Message from routine sym_rho_init:
     some processors have no G-vectors for symmetrization
     Message from routine sym_rho_init:
     some processors have no G-vectors for symmetrization
     Message from routine sym_rho_init:
     some processors have no G-vectors for symmetrization
     Message from routine sym_rho_init:
     some processors have no G-vectors for symmetrization
[...]
     Message from routine sym_rho_init:
     some processors have no G-vectors for symmetrization
     Message from routine sym_rho_init:
     some processors have no G-vectors for symmetrization
     Message from routine sym_rho_init:
     some processors have no G-vectors for symmetrization
     Message from routine sym_rho_init:
     some processors have no G-vectors for symmetrization
     Message from routine sym_rho_init:
     some processors have no G-vectors for symmetrization
     Message from routine sym_rho_init:
     some processors have no G-vectors for symmetrization
     Message from routine sym_rho_init:
     some processors have no G-vectors for symmetrization
     Message from routine sym_rho_init:
     some processors have no G-vectors for symmetrization
     Message from routine sym_rho_init:
     some processors have no G-vectors for symmetrization
     Message from routine sym_rho_init:
     some processors have no G-vectors for symmetrization
     Message from routine sym_rho_init:
     some processors have no G-vectors for symmetrization
     Message from routine sym_rho_init:
     some processors have no G-vectors for symmetrization
     Message from routine sym_rho_init:
     some processors have no G-vectors for symmetrization
     Message from routine sym_rho_init:
     some processors have no G-vectors for symmetrization
     Message from routine sym_rho_init:
     some processors have no G-vectors for symmetrization
     Message from routine sym_rho_init:
     some processors have no G-vectors for symmetrization
     Message from routine sym_rho_init:
     some processors have no G-vectors for symmetrization
     Message from routine sym_rho_init:
     some processors have no G-vectors for symmetrization
     Message from routine sym_rho_init:
     some processors have no G-vectors for symmetrization
     Message from routine sym_rho_init:
     some processors have no G-vectors for symmetrization
     Message from routine sym_rho_init:
     some processors have no G-vectors for symmetrization
     Message from routine sym_rho_init:
     some processors have no G-vectors for symmetrization
     Message from routine sym_rho_init:
     some processors have no G-vectors for symmetrization
     Message from routine sym_rho_init:
     some processors have no G-vectors for symmetrization
     Message from routine sym_rho_init:
     some processors have no G-vectors for symmetrization
     Message from routine sym_rho_init:
     some processors have no G-vectors for symmetrization
     Message from routine sym_rho_init:
     some processors have no G-vectors for symmetrization
     Message from routine sym_rho_init:
     some processors have no G-vectors for symmetrization
     Message from routine sym_rho_init:
     some processors have no G-vectors for symmetrization
     Message from routine sym_rho_init:
     some processors have no G-vectors for symmetrization
     Message from routine sym_rho_init:
     some processors have no G-vectors for symmetrization
     Message from routine sym_rho_init:
     some processors have no G-vectors for symmetrization
     Message from routine sym_rho_init:
     some processors have no G-vectors for symmetrization
     Message from routine sym_rho_init:
     some processors have no G-vectors for symmetrization
     Message from routine sym_rho_init:
     some processors have no G-vectors for symmetrization
     Message from routine sym_rho_init:
     some processors have no G-vectors for symmetrization
     Message from routine sym_rho_init:
     some processors have no G-vectors for symmetrization
     Message from routine sym_rho_init:
     some processors have no G-vectors for symmetrization
     Message from routine sym_rho_init:
     some processors have no G-vectors for symmetrization
     Message from routine sym_rho_init:
     some processors have no G-vectors for symmetrization
     Message from routine sym_rho_init:
     some processors have no G-vectors for symmetrization
     Message from routine sym_rho_init:
     some processors have no G-vectors for symmetrization
     Message from routine sym_rho_init:
     some processors have no G-vectors for symmetrization
     Message from routine sym_rho_init:
     some processors have no G-vectors for symmetrization
     Message from routine sym_rho_init:
     some processors have no G-vectors for symmetrization
     Message from routine sym_rho_init:
     some processors have no G-vectors for symmetrization
     Message from routine sym_rho_init:
     some processors have no G-vectors for symmetrization
     Message from routine sym_rho_init:
     some processors have no G-vectors for symmetrization
     Message from routine sym_rho_init:
     some processors have no G-vectors for symmetrization
     Message from routine sym_rho_init:
     some processors have no G-vectors for symmetrization
     Message from routine sym_rho_init:
     some processors have no G-vectors for symmetrization
     Message from routine sym_rho_init:
     some processors have no G-vectors for symmetrization
     Message from routine sym_rho_init:
     some processors have no G-vectors for symmetrization
     Message from routine sym_rho_init:
     some processors have no G-vectors for symmetrization
     Message from routine sym_rho_init:
     some processors have no G-vectors for symmetrization
     Message from routine sym_rho_init:
     some processors have no G-vectors for symmetrization
     Message from routine sym_rho_init:
     some processors have no G-vectors for symmetrization
     Message from routine sym_rho_init:
     some processors have no G-vectors for symmetrization
     Message from routine sym_rho_init:
     some processors have no G-vectors for symmetrization
     Message from routine sym_rho_init:
     some processors have no G-vectors for symmetrization
     Message from routine sym_rho_init:
     some processors have no G-vectors for symmetrization
     Message from routine sym_rho_init:
     some processors have no G-vectors for symmetrization
     Message from routine sym_rho_init:
     some processors have no G-vectors for symmetrization
     Message from routine sym_rho_init:
     some processors have no G-vectors for symmetrization
     Message from routine sym_rho_init:
     some processors have no G-vectors for symmetrization
     Message from routine sym_rho_init:
     some processors have no G-vectors for symmetrization
     Message from routine sym_rho_init:
     some processors have no G-vectors for symmetrization
     Message from routine sym_rho_init:
     some processors have no G-vectors for symmetrization
     Message from routine sym_rho_init:
     some processors have no G-vectors for symmetrization
     Message from routine sym_rho_init:
     some processors have no G-vectors for symmetrization
     Message from routine sym_rho_init:
     some processors have no G-vectors for symmetrization
     Message from routine sym_rho_init:
     some processors have no G-vectors for symmetrization
     Message from routine sym_rho_init:
     some processors have no G-vectors for symmetrization
     Message from routine sym_rho_init:
     some processors have no G-vectors for symmetrization
     Message from routine sym_rho_init:
     some processors have no G-vectors for symmetrization
     Message from routine sym_rho_init:
     some processors have no G-vectors for symmetrization
     Message from routine sym_rho_init:
     some processors have no G-vectors for symmetrization
     Message from routine sym_rho_init:
     some processors have no G-vectors for symmetrization
     Message from routine sym_rho_init:
     some processors have no G-vectors for symmetrization
     Message from routine sym_rho_init:
     some processors have no G-vectors for symmetrization
     Message from routine sym_rho_init:
     some processors have no G-vectors for symmetrization
     Message from routine sym_rho_init:
     some processors have no G-vectors for symmetrization
     Message from routine sym_rho_init:
     some processors have no G-vectors for symmetrization
     Message from routine sym_rho_init:
     some processors have no G-vectors for symmetrization
     Message from routine sym_rho_init:
     some processors have no G-vectors for symmetrization
     Message from routine sym_rho_init:
     some processors have no G-vectors for symmetrization
     Message from routine sym_rho_init:
     some processors have no G-vectors for symmetrization
     Message from routine sym_rho_init:
     some processors have no G-vectors for symmetrization
     Message from routine sym_rho_init:
     some processors have no G-vectors for symmetrization
     Message from routine sym_rho_init:
     some processors have no G-vectors for symmetrization
     Message from routine sym_rho_init:
     some processors have no G-vectors for symmetrization
     Message from routine sym_rho_init:
     some processors have no G-vectors for symmetrization
     Message from routine sym_rho_init:
     some processors have no G-vectors for symmetrization
     Message from routine sym_rho_init:
     some processors have no G-vectors for symmetrization
     Message from routine sym_rho_init:
     some processors have no G-vectors for symmetrization
     Message from routine sym_rho_init:
     some processors have no G-vectors for symmetrization
     Message from routine sym_rho_init:
     some processors have no G-vectors for symmetrization
     Message from routine sym_rho_init:
     some processors have no G-vectors for symmetrization
     Message from routine sym_rho_init:
     some processors have no G-vectors for symmetrization
     Message from routine sym_rho_init:
     some processors have no G-vectors for symmetrization
     Message from routine sym_rho_init:
     some processors have no G-vectors for symmetrization
     Message from routine sym_rho_init:
     some processors have no G-vectors for symmetrization
     Message from routine sym_rho_init:
     some processors have no G-vectors for symmetrization
     Message from routine sym_rho_init:
     some processors have no G-vectors for symmetrization
     Message from routine sym_rho_init:
     some processors have no G-vectors for symmetrization
     Message from routine sym_rho_init:
     some processors have no G-vectors for symmetrization
     Message from routine sym_rho_init:
     some processors have no G-vectors for symmetrization
     Message from routine sym_rho_init:
     some processors have no G-vectors for symmetrization
     Message from routine sym_rho_init:
     some processors have no G-vectors for symmetrization
     Message from routine sym_rho_init:
     some processors have no G-vectors for symmetrization

     Check: negative core charge=   -0.000003

     Initial potential from superposition of free atoms

     starting charge   63.98899, renormalised to   64.00000
     Starting wfcs are   52 randomized atomic wfcs

     total cpu time spent up to now is       77.4 secs

     Self-consistent Calculation

     iteration #  1     ecut=    70.00 Ry     beta= 0.70
     CG style diagonalization
     c_bands:  5 eigenvalues not converged
     c_bands:  2 eigenvalues not converged
     c_bands:  3 eigenvalues not converged
     c_bands:  1 eigenvalues not converged
     ethr =  1.00E-06,  avg # of iterations = 11.2

     total cpu time spent up to now is       83.1 secs

     total energy              =    -366.72947631 Ry
     Harris-Foulkes estimate   =    -367.90661148 Ry
     estimated scf accuracy    <       1.69015749 Ry

     iteration #  2     ecut=    70.00 Ry     beta= 0.70
     CG style diagonalization
     ethr =  2.64E-03,  avg # of iterations =  4.3

     total cpu time spent up to now is       85.5 secs

     total energy              =    -367.11155416 Ry
     Harris-Foulkes estimate   =    -367.88107198 Ry
     estimated scf accuracy    <       1.57492082 Ry

     iteration #  3     ecut=    70.00 Ry     beta= 0.70
     CG style diagonalization
     ethr =  2.46E-03,  avg # of iterations =  3.8

     total cpu time spent up to now is       87.6 secs

     total energy              =    -367.42008900 Ry
     Harris-Foulkes estimate   =    -367.42328379 Ry
     estimated scf accuracy    <       0.01361512 Ry

     iteration #  4     ecut=    70.00 Ry     beta= 0.70
     CG style diagonalization
     ethr =  2.13E-05,  avg # of iterations =  4.2

     total cpu time spent up to now is       89.9 secs

     total energy              =    -367.43206432 Ry
     Harris-Foulkes estimate   =    -367.43316837 Ry
     estimated scf accuracy    <       0.00294695 Ry

     iteration #  5     ecut=    70.00 Ry     beta= 0.70
     CG style diagonalization
     ethr =  4.60E-06,  avg # of iterations =  3.6

     total cpu time spent up to now is       92.0 secs

     total energy              =    -367.43251970 Ry
     Harris-Foulkes estimate   =    -367.43253355 Ry
     estimated scf accuracy    <       0.00010992 Ry

     iteration #  6     ecut=    70.00 Ry     beta= 0.70
     CG style diagonalization
     ethr =  1.72E-07,  avg # of iterations =  4.0

     total cpu time spent up to now is       94.2 secs

     total energy              =    -367.43255441 Ry
     Harris-Foulkes estimate   =    -367.43255603 Ry
     estimated scf accuracy    <       0.00000532 Ry

     iteration #  7     ecut=    70.00 Ry     beta= 0.70
     CG style diagonalization
     ethr =  8.31E-09,  avg # of iterations =  4.1

     total cpu time spent up to now is       96.5 secs

     total energy              =    -367.43255637 Ry
     Harris-Foulkes estimate   =    -367.43255651 Ry
     estimated scf accuracy    <       0.00000028 Ry

     iteration #  8     ecut=    70.00 Ry     beta= 0.70
     CG style diagonalization
     ethr =  4.37E-10,  avg # of iterations =  4.3

     total cpu time spent up to now is       98.8 secs

     End of self-consistent calculation

          k = 0.0000 0.0000 0.0000 (  8387 PWs)   bands (ev):

   -33.6998 -33.6873 -17.0843 -17.0744 -15.1296 -15.1296 -14.7649 -14.7649
   -14.6725 -14.5643 -13.9058 -13.9058 -13.3751 -13.3751  -3.3148  -3.0418
    -1.6926  -1.5350  -1.5350  -1.2759  -1.2759  -0.4043   2.3554   2.3554
     2.7879   2.7879   2.9596   2.9596   3.5740   3.5740   3.7752   4.2021

          k = 0.6375 0.3680-0.1869 (  8452 PWs)   bands (ev):

   -33.6931 -33.6931 -17.0612 -17.0612 -15.0183 -15.0183 -15.0046 -15.0046
   -14.6520 -14.6520 -13.5921 -13.5921 -13.5756 -13.5756  -2.9623  -2.9623
    -1.5017  -1.5017  -1.2300  -1.2300  -0.9187  -0.9187   2.1585   2.1585
     2.5434   2.5434   2.8410   2.8410   3.1021   3.1021   4.3127   4.3127

          k = 0.6375-0.3680-0.3738 (  8490 PWs)   bands (ev):

   -33.6952 -33.6910 -17.1626 -16.9517 -15.2166 -15.2139 -14.7475 -14.7209
   -14.6989 -14.5723 -13.9450 -13.8361 -13.3906 -13.3506  -3.1324  -2.7857
    -1.5950  -1.3803  -1.2550  -1.1873  -0.9677  -0.8648   1.9171   2.2366
     2.5106   2.6902   2.7324   2.7439   3.1337   3.2570   4.1266   4.4877

          k = 0.0000 0.0000-0.5607 (  8482 PWs)   bands (ev):

   -33.6935 -33.6935 -17.0819 -17.0819 -14.9831 -14.9831 -14.9831 -14.9831
   -14.6147 -14.6147 -13.6051 -13.6051 -13.6051 -13.6051  -3.2347  -3.2347
    -1.4055  -1.4055  -1.4055  -1.4055  -1.0089  -1.0089   2.5706   2.5706
     2.5706   2.5706   3.2465   3.2465   3.2465   3.2465   3.9668   3.9668

     highest occupied level (ev):     4.4877

!    total energy              =    -367.43255650 Ry
     Harris-Foulkes estimate   =    -367.43255653 Ry
     estimated scf accuracy    <       0.00000004 Ry

     The total energy is the sum of the following terms:

     one-electron contribution =    -148.17254550 Ry
     hartree contribution      =     103.47324567 Ry
     xc contribution           =     -75.27242192 Ry
     ewald contribution        =    -247.46083475 Ry

     convergence has been achieved in   8 iterations

     Forces acting on atoms (cartesian axes, Ry/au):

     atom    1 type  1   force =     0.00000000   -0.00000000   -0.00000000
     atom    2 type  1   force =     0.00000000   -0.00000000    0.00000000
     atom    3 type  2   force =    -0.00000000    0.00000000    0.00000000
     atom    4 type  2   force =     0.00000000   -0.00000000   -0.00000000
     atom    5 type  3   force =     0.00004546   -0.00007874   -0.00000000
     atom    6 type  3   force =    -0.00009092   -0.00000000   -0.00000000
     atom    7 type  3   force =     0.00004546    0.00007874    0.00000000
     atom    8 type  3   force =     0.00009092    0.00000000    0.00000000
     atom    9 type  3   force =    -0.00004546   -0.00007874   -0.00000000
     atom   10 type  3   force =    -0.00004546    0.00007874    0.00000000

     Total force =     0.000223     Total SCF correction =     0.000001


     Computing stress (Cartesian axis) and pressure

          total   stress  (Ry/bohr**3)                   (kbar)     P=    1.06
   0.00000659   0.00000000  -0.00000000          0.97      0.00     -0.00
   0.00000000   0.00000659   0.00000000          0.00      0.97      0.00
   0.00000000   0.00000000   0.00000853          0.00      0.00      1.25


     Writing output data file CCO_k.save/
 
     init_run     :      3.70s CPU      4.16s WALL (       2 calls)
     electrons    :     82.40s CPU     90.17s WALL (       9 calls)
     update_pot   :      0.43s CPU      0.45s WALL (       7 calls)
     forces       :      0.81s CPU      0.84s WALL (       9 calls)
     stress       :      1.20s CPU      1.23s WALL (       9 calls)

     Called by init_run:
     wfcinit      :      2.27s CPU      2.60s WALL (       2 calls)
     potinit      :      0.18s CPU      0.20s WALL (       2 calls)
     hinit0       :      0.85s CPU      0.93s WALL (       2 calls)

     Called by electrons:
     c_bands      :     74.61s CPU     81.52s WALL (      42 calls)
     sum_band     :      6.24s CPU      6.46s WALL (      42 calls)
     v_of_rho     :      1.08s CPU      1.12s WALL (      46 calls)
     newd         :      0.37s CPU      0.39s WALL (      46 calls)
     mix_rho      :      0.13s CPU      0.14s WALL (      42 calls)

     Called by c_bands:
     init_us_2    :      0.07s CPU      0.08s WALL (     416 calls)
     ccgdiagg     :     58.97s CPU     63.20s WALL (     168 calls)
     wfcrot       :     17.78s CPU     20.46s WALL (     120 calls)

     Called by sum_band:
     sum_band:bec :      0.04s CPU      0.05s WALL (     168 calls)
     addusdens    :      0.14s CPU      0.14s WALL (      42 calls)

     Called by *cgdiagg:
     h_psi        :     51.39s CPU     53.90s WALL (   17315 calls)
     s_psi        :      1.49s CPU      1.69s WALL (   34510 calls)
     cdiaghg      :      6.40s CPU      8.69s WALL (     120 calls)

     Called by h_psi:
     h_psi:pot    :     50.95s CPU     53.40s WALL (   17315 calls)
     h_psi:calbec :      4.97s CPU      5.33s WALL (   17315 calls)
     vloc_psi     :     44.25s CPU     46.22s WALL (   17315 calls)
     add_vuspsi   :      1.15s CPU      1.27s WALL (   17315 calls)
     hs_1psi      :     44.82s CPU     47.32s WALL (   17195 calls)
     s_1psi       :      4.20s CPU      4.66s WALL (   17195 calls)

     General routines
     calbec       :      7.87s CPU      8.61s WALL (   34858 calls)
     fft          :      1.70s CPU      1.75s WALL (     743 calls)
     ffts         :      0.08s CPU      0.08s WALL (      42 calls)
     fftw         :     47.76s CPU     49.81s WALL (   47766 calls)
 
     Parallel routines
     fft_scatt_xy :      1.79s CPU      1.84s WALL (   48551 calls)
     fft_scatt_yz :     40.02s CPU     41.88s WALL (   48551 calls)
 
     PWSCF        :   1m33.92s CPU   1m46.84s WALL

 
   This run was terminated on:  22:15: 2   3May2022            

=------------------------------------------------------------------------------=
   JOB DONE.
=------------------------------------------------------------------------------=
