
     Program PWSCF v.6.4.1 starts on 24Apr2022 at 16: 2:19 

     This program is part of the open-source Quantum ESPRESSO suite
     for quantum simulation of materials; please cite
         "P. Giannozzi et al., J. Phys.:Condens. Matter 21 395502 (2009);
         "P. Giannozzi et al., J. Phys.:Condens. Matter 29 465901 (2017);
          URL http://www.quantum-espresso.org", 
     in publications or presentations arising from this work. More details at
     http://www.quantum-espresso.org/quote

     Parallel version (MPI & OpenMP), running on     120 processor cores
     Number of MPI processes:               120
     Threads/MPI process:                     1

     MPI processes distributed on     2 nodes
     R & G space division:  proc/nbgrp/npool/nimage =     120
     Waiting for input...
     Reading input from standard input

     Current dimensions of program PWSCF are:
     Max number of different atomic species (ntypx) = 10
     Max number of k-points (npk) =  40000
     Max angular momentum in pseudopotentials (lmaxx) =  3

     Subspace diagonalization in iterative solution of the eigenvalue problem:
     one sub-group per band group will be used
     scalapack distributed-memory algorithm (size of sub-group:  7*  7 procs)

 
     Parallelization info
     --------------------
     sticks:   dense  smooth     PW     G-vecs:    dense   smooth      PW
     Min          16      16      4                  484      484      72
     Max          17      17      5                  491      491      80
     Sum        1981    1981    583                58383    58383    9185
 


     bravais-lattice index     =            5
     lattice parameter (alat)  =      12.0000  a.u.
     unit-cell volume          =    1221.8805 (a.u.)^3
     number of atoms/cell      =           10
     number of atomic types    =            3
     number of electrons       =        64.00
     number of Kohn-Sham states=           32
     kinetic-energy cutoff     =      50.0000  Ry
     charge density cutoff     =     200.0000  Ry
     convergence threshold     =      1.0E-05
     mixing beta               =       0.7000
     number of iterations used =            8  plain     mixing
     Exchange-correlation      = SLA  PW   PBE  PBE ( 1  4  3  4 0 0)
     nstep                     =           50


     celldm(1)=  12.000000  celldm(2)=   0.000000  celldm(3)=   0.000000
     celldm(4)=   0.500000  celldm(5)=   0.000000  celldm(6)=   0.000000

     crystal axes: (cart. coord. in units of alat)
               a(1) = (   0.500000  -0.288675   0.816497 )  
               a(2) = (   0.000000   0.577350   0.816497 )  
               a(3) = (  -0.500000  -0.288675   0.816497 )  

     reciprocal axes: (cart. coord. in units 2 pi/alat)
               b(1) = (  1.000000 -0.577350  0.408248 )  
               b(2) = (  0.000000  1.154701  0.408248 )  
               b(3) = ( -1.000000 -0.577350  0.408248 )  


     PseudoPot. # 1 for Ca read from file:
     ./Ca_PBE.UPF
     MD5 check sum: 403a4c14b9e4d4dfdc3024c9a3812218
     Pseudo is Ultrasoft + core correction, Zval = 10.0
     Generated by new atomic code, or converted to UPF format
     Using radial grid of  845 points,  6 beta functions with: 
                l(1) =   0
                l(2) =   0
                l(3) =   1
                l(4) =   1
                l(5) =   2
                l(6) =   2
     Q(r) pseudized with  8 coefficients,  rinner =    1.500   1.500   1.500
                                                       1.500   1.500

     PseudoPot. # 2 for C  read from file:
     ./C_PBE.UPF
     MD5 check sum: d1aef80898a10debaa0f26306b886e00
     Pseudo is Ultrasoft + core correction, Zval =  4.0
     Generated by new atomic code, or converted to UPF format
     Using radial grid of  721 points,  4 beta functions with: 
                l(1) =   0
                l(2) =   0
                l(3) =   1
                l(4) =   1
     Q(r) pseudized with  8 coefficients,  rinner =    1.100   1.100   1.100


     PseudoPot. # 3 for O  read from file:
     ./O_PBE.UPF
     MD5 check sum: 734c27235a0248c51dbae37a1fbe46ec
     Pseudo is Ultrasoft + core correction, Zval =  6.0
     Generated by new atomic code, or converted to UPF format
     Using radial grid of  737 points,  5 beta functions with: 
                l(1) =   0
                l(2) =   0
                l(3) =   1
                l(4) =   1
                l(5) =   2
     Q(r) pseudized with  8 coefficients,  rinner =    0.900   0.900   0.900
                                                       0.900   0.900

     atomic species   valence    mass     pseudopotential
        Ca            10.00    40.07800     Ca( 1.00)
        C              4.00    12.01070     C ( 1.00)
        O              6.00    16.00000     O ( 1.00)

     12 Sym. Ops., with inversion, found ( 6 have fractional translation)



   Cartesian axes

     site n.     atom                  positions (alat units)
         1           Ca  tau(   1) = (   0.0000000  -0.0000000   1.2247449  )
         2           Ca  tau(   2) = (   0.0000000   0.0000000   0.0000000  )
         3           C   tau(   3) = (   0.0000000  -0.0000000   0.6123724  )
         4           C   tau(   4) = (  -0.0000000  -0.0000000   1.8371173  )
         5           O   tau(   5) = (   0.1284501   0.3548681   1.4288690  )
         6           O   tau(   6) = (   0.2430998  -0.2886751   1.4288690  )
         7           O   tau(   7) = (  -0.3715499  -0.0661930   1.4288690  )
         8           O   tau(   8) = (  -0.2430998   0.2886751   1.0206207  )
         9           O   tau(   9) = (   0.3715499   0.0661930   1.0206207  )
        10           O   tau(  10) = (  -0.1284501  -0.3548681   1.0206207  )

     number of k points=    44
                       cart. coord. in units 2pi/alat
        k(    1) = (   0.0000000   0.0000000   0.0000000), wk =   0.0058309
        k(    2) = (  -0.1428571  -0.0824786   0.0583212), wk =   0.0349854
        k(    3) = (  -0.2857143  -0.1649572   0.1166424), wk =   0.0349854
        k(    4) = (  -0.4285714  -0.2474358   0.1749636), wk =   0.0349854
        k(    5) = (  -0.1428571   0.0824786   0.1166424), wk =   0.0349854
        k(    6) = (  -0.2857143   0.0000000   0.1749636), wk =   0.0699708
        k(    7) = (  -0.4285714  -0.0824786   0.2332847), wk =   0.0699708
        k(    8) = (   0.4285714   0.4123930  -0.1166424), wk =   0.0699708
        k(    9) = (   0.2857143   0.3299144  -0.0583212), wk =   0.0699708
        k(   10) = (   0.1428571   0.2474358   0.0000000), wk =   0.0349854
        k(   11) = (  -0.2857143   0.1649572   0.2332847), wk =   0.0349854
        k(   12) = (  -0.4285714   0.0824786   0.2916059), wk =   0.0699708
        k(   13) = (   0.4285714   0.5773503  -0.0583212), wk =   0.0699708
        k(   14) = (   0.2857143   0.4948717   0.0000000), wk =   0.0349854
        k(   15) = (  -0.4285714   0.2474358   0.3499271), wk =   0.0349854
        k(   16) = (   0.4285714   0.7423075   0.0000000), wk =   0.0349854
        k(   17) = (  -0.0000000   0.0000000   0.1749636), wk =   0.0116618
        k(   18) = (  -0.1428571  -0.0824786   0.2332847), wk =   0.0349854
        k(   19) = (  -0.2857143  -0.1649572   0.2916059), wk =   0.0349854
        k(   20) = (   0.5714286   0.3299144  -0.0583212), wk =   0.0349854
        k(   21) = (   0.4285714   0.2474358   0.0000000), wk =   0.0349854
        k(   22) = (   0.2857143   0.1649572   0.0583212), wk =   0.0349854
        k(   23) = (  -0.1428571   0.0824786   0.2916059), wk =   0.0349854
        k(   24) = (  -0.2857143   0.0000000   0.3499271), wk =   0.0699708
        k(   25) = (   0.5714286   0.4948717   0.0000000), wk =   0.0699708
        k(   26) = (   0.4285714   0.4123930   0.0583212), wk =   0.0699708
        k(   27) = (   0.2857143   0.3299144   0.1166424), wk =   0.0699708
        k(   28) = (  -0.2857143   0.1649572   0.4082483), wk =   0.0349854
        k(   29) = (   0.5714286   0.6598289   0.0583212), wk =   0.0699708
        k(   30) = (   0.4285714   0.5773503   0.1166424), wk =   0.0699708
        k(   31) = (   0.2857143   0.4948717   0.1749636), wk =   0.0699708
        k(   32) = (   0.5714286  -0.3299144  -0.2916059), wk =   0.0349854
        k(   33) = (   0.4285714  -0.4123930  -0.2332847), wk =   0.0699708
        k(   34) = (   0.4285714  -0.2474358  -0.1749636), wk =   0.0349854
        k(   35) = (  -0.0000000   0.0000000   0.3499271), wk =   0.0116618
        k(   36) = (  -0.1428571  -0.0824786   0.4082483), wk =   0.0349854
        k(   37) = (   0.7142857   0.4123930   0.0583212), wk =   0.0349854
        k(   38) = (   0.5714286   0.3299144   0.1166424), wk =   0.0349854
        k(   39) = (  -0.1428571   0.0824786   0.4665695), wk =   0.0349854
        k(   40) = (   0.7142857   0.5773503   0.1166424), wk =   0.0699708
        k(   41) = (   0.5714286   0.4948717   0.1749636), wk =   0.0699708
        k(   42) = (   0.7142857  -0.4123930  -0.2332847), wk =   0.0349854
        k(   43) = (  -0.0000000   0.0000000   0.5248907), wk =   0.0116618
        k(   44) = (   0.8571429   0.4948717   0.1749636), wk =   0.0349854

     Dense  grid:    58383 G-vectors     FFT dimensions: (  60,  60,  60)

     Estimated max dynamical RAM per process >      16.56 MB

     Estimated total dynamical RAM >       1.94 GB
     Message from routine sym_rho_init:
     some processors have no G-vectors for symmetrization
     Message from routine sym_rho_init:
     some processors have no G-vectors for symmetrization
     Message from routine sym_rho_init:
     some processors have no G-vectors for symmetrization
     Message from routine sym_rho_init:
     some processors have no G-vectors for symmetrization

     Check: negative core charge=   -0.000002

     Initial potential from superposition of free atoms

     starting charge   63.98899, renormalised to   64.00000
     Starting wfcs are   52 randomized atomic wfcs

     total cpu time spent up to now is        7.6 secs

     Self-consistent Calculation

     iteration #  1     ecut=    50.00 Ry     beta= 0.70
     CG style diagonalization
     ethr =  1.00E-02,  avg # of iterations =  2.2

     total cpu time spent up to now is       16.8 secs

     total energy              =    -365.13598467 Ry
     Harris-Foulkes estimate   =    -366.89781270 Ry
     estimated scf accuracy    <       2.39218662 Ry

     iteration #  2     ecut=    50.00 Ry     beta= 0.70
     CG style diagonalization
     ethr =  3.74E-03,  avg # of iterations =  4.8

     total cpu time spent up to now is       36.9 secs

     total energy              =    -364.97527926 Ry
     Harris-Foulkes estimate   =    -368.33122413 Ry
     estimated scf accuracy    <       9.64760737 Ry

     iteration #  3     ecut=    50.00 Ry     beta= 0.70
     CG style diagonalization
     ethr =  3.74E-03,  avg # of iterations =  4.3

     total cpu time spent up to now is       54.7 secs

     total energy              =    -366.40176026 Ry
     Harris-Foulkes estimate   =    -366.42587574 Ry
     estimated scf accuracy    <       0.05258753 Ry

     iteration #  4     ecut=    50.00 Ry     beta= 0.70
     CG style diagonalization
     ethr =  8.22E-05,  avg # of iterations =  4.3

     total cpu time spent up to now is       72.6 secs

     total energy              =    -366.43486565 Ry
     Harris-Foulkes estimate   =    -366.43798955 Ry
     estimated scf accuracy    <       0.00984478 Ry

     iteration #  5     ecut=    50.00 Ry     beta= 0.70
     CG style diagonalization
     ethr =  1.54E-05,  avg # of iterations =  3.8

     total cpu time spent up to now is       88.6 secs

     total energy              =    -366.43764997 Ry
     Harris-Foulkes estimate   =    -366.43766024 Ry
     estimated scf accuracy    <       0.00016371 Ry

     iteration #  6     ecut=    50.00 Ry     beta= 0.70
     CG style diagonalization
     ethr =  2.56E-07,  avg # of iterations =  5.2

     total cpu time spent up to now is      110.0 secs

     total energy              =    -366.43785123 Ry
     Harris-Foulkes estimate   =    -366.43789301 Ry
     estimated scf accuracy    <       0.00009844 Ry

     iteration #  7     ecut=    50.00 Ry     beta= 0.70
     CG style diagonalization
     ethr =  1.54E-07,  avg # of iterations =  3.9

     total cpu time spent up to now is      126.2 secs

     total energy              =    -366.43787986 Ry
     Harris-Foulkes estimate   =    -366.43788531 Ry
     estimated scf accuracy    <       0.00001857 Ry

     iteration #  8     ecut=    50.00 Ry     beta= 0.70
     CG style diagonalization
     ethr =  2.90E-08,  avg # of iterations =  3.5

     total cpu time spent up to now is      140.8 secs

     End of self-consistent calculation

          k = 0.0000 0.0000 0.0000 (  7391 PWs)   bands (ev):

   -38.5916 -38.5898 -19.5844 -19.5610 -19.5030 -19.5030 -19.4779 -19.4779
   -15.9209 -15.6380 -14.6376 -14.6376 -14.4892 -14.4892  -6.2869  -6.1402
    -2.5704  -2.5704  -2.4850  -2.4850  -1.7019  -0.5835   0.2953   0.2953
     0.4591   0.4591   0.5571   0.5571   0.8601   1.4276   1.4955   1.4955

          k =-0.1429-0.0825 0.0583 (  7339 PWs)   bands (ev):

   -38.5915 -38.5899 -19.5832 -19.5621 -19.5020 -19.5020 -19.4796 -19.4792
   -15.9012 -15.6549 -14.6304 -14.6249 -14.5035 -14.4983  -6.2818  -6.1374
    -2.5835  -2.5626  -2.4818  -2.4654  -1.6462  -0.6662   0.3004   0.3075
     0.3687   0.3764   0.6043   0.6272   0.9231   1.3898   1.4414   1.4795

          k =-0.2857-0.1650 0.1166 (  7291 PWs)   bands (ev):

   -38.5913 -38.5901 -19.5798 -19.5653 -19.4993 -19.4993 -19.4842 -19.4831
   -15.8521 -15.6947 -14.6114 -14.6004 -14.5345 -14.5218  -6.2602  -6.1413
    -2.6010  -2.5396  -2.4845  -2.4322  -1.4927  -0.8452   0.1824   0.2212
     0.3216   0.3694   0.6881   0.7464   1.0088   1.2431   1.4011   1.4494

          k =-0.4286-0.2474 0.1750 (  7288 PWs)   bands (ev):

   -38.5909 -38.5905 -19.5750 -19.5699 -19.4952 -19.4948 -19.4895 -19.4885
   -15.7945 -15.7421 -14.5886 -14.5840 -14.5578 -14.5492  -6.2175  -6.1696
    -2.5921  -2.5549  -2.4592  -2.4265  -1.2789  -1.0531   0.0760   0.1018
     0.3646   0.3941   0.7725   0.8023   1.0393   1.0984   1.4038   1.4261

          k =-0.1429 0.0825 0.1166 (  7311 PWs)   bands (ev):

   -38.5915 -38.5899 -19.5830 -19.5627 -19.5041 -19.4992 -19.4822 -19.4773
   -15.8967 -15.6588 -14.6343 -14.6166 -14.5127 -14.4940  -6.2814  -6.1394
    -2.5998  -2.5443  -2.4827  -2.4613  -1.6321  -0.6882   0.2956   0.3120
     0.3691   0.4138   0.5515   0.6711   0.9322   1.3820   1.4176   1.4624

          k =-0.2857 0.0000 0.1750 (  7312 PWs)   bands (ev):

   -38.5913 -38.5901 -19.5808 -19.5653 -19.5041 -19.4951 -19.4870 -19.4783
   -15.8598 -15.6880 -14.6248 -14.5936 -14.5409 -14.5071  -6.2675  -6.1407
    -2.6155  -2.5275  -2.4871  -2.4284  -1.5224  -0.8260   0.2324   0.2676
     0.3322   0.3906   0.6101   0.7634   1.0030   1.2665   1.3638   1.4415

          k =-0.4286-0.0825 0.2333 (  7316 PWs)   bands (ev):

   -38.5910 -38.5904 -19.5769 -19.5693 -19.5018 -19.4929 -19.4899 -19.4821
   -15.8092 -15.7268 -14.6120 -14.5797 -14.5614 -14.5268  -6.2310  -6.1600
    -2.6002  -2.5557  -2.4678  -2.4080  -1.3453  -0.9975   0.1039   0.1356
     0.3807   0.4124   0.7044   0.8101   1.0440   1.1325   1.3550   1.4272

          k = 0.4286 0.4124-0.1166 (  7308 PWs)   bands (ev):

   -38.5908 -38.5906 -19.5736 -19.5722 -19.4984 -19.4970 -19.4874 -19.4850
   -15.7696 -15.7615 -14.6029 -14.5934 -14.5486 -14.5408  -6.2017  -6.1805
    -2.6121  -2.5507  -2.4373  -2.4232  -1.1890  -1.1426   0.0475   0.0750
     0.3852   0.4342   0.7348   0.8048   1.0667   1.1085   1.3671   1.4161

          k = 0.2857 0.3299-0.0583 (  7282 PWs)   bands (ev):

   -38.5911 -38.5903 -19.5778 -19.5676 -19.5017 -19.4931 -19.4911 -19.4810
   -15.8197 -15.7189 -14.6131 -14.5847 -14.5547 -14.5251  -6.2460  -6.1424
    -2.6367  -2.5137  -2.4541  -2.4317  -1.3922  -0.9489   0.0757   0.1568
     0.3339   0.4178   0.6680   0.8229   1.0443   1.2286   1.3598   1.4200

          k = 0.1429 0.2474 0.0000 (  7327 PWs)   bands (ev):

   -38.5914 -38.5900 -19.5813 -19.5639 -19.5030 -19.4981 -19.4847 -19.4789
   -15.8703 -15.6797 -14.6260 -14.6007 -14.5316 -14.5061  -6.2727  -6.1322
    -2.6197  -2.5345  -2.4594  -2.4543  -1.5596  -0.7781   0.2165   0.2778
     0.3054   0.3670   0.6088   0.7452   0.9941   1.3568   1.3845   1.4398

          k =-0.2857 0.1650 0.2333 (  7291 PWs)   bands (ev):

   -38.5913 -38.5902 -19.5804 -19.5673 -19.5066 -19.4911 -19.4903 -19.4759
   -15.8391 -15.7028 -14.6277 -14.5718 -14.5679 -14.5053  -6.2676  -6.1353
    -2.6563  -2.4951  -2.4846  -2.4001  -1.4769  -0.9073   0.2330   0.2788
     0.3798   0.3928   0.5442   0.8456   1.0234   1.2465   1.2671   1.4136

          k =-0.4286 0.0825 0.2916 (  7276 PWs)   bands (ev):

   -38.5911 -38.5903 -19.5784 -19.5703 -19.5066 -19.4954 -19.4858 -19.4769
   -15.8043 -15.7267 -14.6244 -14.5948 -14.5509 -14.5148  -6.2479  -6.1421
    -2.6578  -2.5278  -2.4549  -2.3739  -1.3698  -1.0168   0.1458   0.1931
     0.4224   0.4473   0.5964   0.8534   1.0222   1.1698   1.2586   1.4068

          k = 0.4286 0.5774-0.0583 (  7289 PWs)   bands (ev):

   -38.5908 -38.5906 -19.5751 -19.5732 -19.5038 -19.4992 -19.4824 -19.4807
   -15.7725 -15.7511 -14.6206 -14.6101 -14.5379 -14.5248  -6.2062  -6.1733
    -2.6089  -2.5911  -2.4299  -2.3796  -1.2281  -1.1223   0.0665   0.0732
     0.4457   0.5049   0.6799   0.7402   1.1090   1.1115   1.2776   1.4129

          k = 0.2857 0.4949 0.0000 (  7278 PWs)   bands (ev):

   -38.5909 -38.5905 -19.5756 -19.5712 -19.5018 -19.4982 -19.4864 -19.4806
   -15.7813 -15.7461 -14.6147 -14.6062 -14.5374 -14.5314  -6.2154  -6.1634
    -2.6392  -2.5361  -2.4281  -2.4139  -1.2523  -1.0826   0.0206   0.0813
     0.3851   0.4925   0.6707   0.7939   1.0757   1.2099   1.2845   1.4157

          k =-0.4286 0.2474 0.3499 (  7259 PWs)   bands (ev):

   -38.5910 -38.5904 -19.5787 -19.5719 -19.5087 -19.4972 -19.4827 -19.4749
   -15.7890 -15.7357 -14.6312 -14.6076 -14.5353 -14.5175  -6.2552  -6.1298
    -2.6955  -2.4913  -2.4651  -2.3431  -1.3542  -1.0716   0.1734   0.2347
     0.4200   0.5245   0.5478   0.8353   0.9768   1.1554   1.2475   1.3846

          k = 0.4286 0.7423 0.0000 (  7268 PWs)   bands (ev):

   -38.5909 -38.5905 -19.5775 -19.5729 -19.5077 -19.4987 -19.4814 -19.4763
   -15.7780 -15.7431 -14.6313 -14.6132 -14.5282 -14.5230  -6.2386  -6.1418
    -2.6741  -2.5392  -2.4369  -2.3449  -1.3026  -1.0994   0.1202   0.1613
     0.4591   0.5733   0.6048   0.7120   1.0442   1.1427   1.2393   1.3970

          k =-0.0000 0.0000 0.1750 (  7339 PWs)   bands (ev):

   -38.5915 -38.5899 -19.5836 -19.5625 -19.5018 -19.5018 -19.4792 -19.4792
   -15.9064 -15.6517 -14.6303 -14.6303 -14.4966 -14.4966  -6.2826  -6.1503
    -2.5633  -2.5633  -2.4853  -2.4853  -1.6483  -0.6498   0.2994   0.2994
     0.4427   0.4427   0.6062   0.6062   0.8802   1.3875   1.4448   1.4448

          k =-0.1429-0.0825 0.2333 (  7327 PWs)   bands (ev):

   -38.5914 -38.5900 -19.5819 -19.5645 -19.5025 -19.4979 -19.4836 -19.4792
   -15.8799 -15.6739 -14.6223 -14.6134 -14.5156 -14.5072  -6.2727  -6.1543
    -2.5683  -2.5502  -2.5042  -2.4528  -1.5665  -0.7606   0.2939   0.3141
     0.3433   0.4516   0.5955   0.7088   0.9468   1.2929   1.3727   1.4376

          k =-0.2857-0.1650 0.2916 (  7282 PWs)   bands (ev):

   -38.5911 -38.5903 -19.5785 -19.5681 -19.5012 -19.4928 -19.4897 -19.4817
   -15.8316 -15.7109 -14.6099 -14.5890 -14.5442 -14.5288  -6.2413  -6.1658
    -2.5716  -2.5391  -2.5137  -2.4195  -1.4112  -0.9361   0.1966   0.2085
     0.3666   0.4140   0.6748   0.8166   1.0166   1.1334   1.3447   1.4136

          k = 0.5714 0.3299-0.0583 (  7308 PWs)   bands (ev):

   -38.5908 -38.5906 -19.5739 -19.5724 -19.4987 -19.4957 -19.4875 -19.4854
   -15.7807 -15.7523 -14.6051 -14.5712 -14.5651 -14.5418  -6.1979  -6.1907
    -2.6213  -2.5119  -2.4733  -2.4177  -1.2191  -1.1263   0.0864   0.1210
     0.3825   0.4260   0.7120   0.8726   1.0451   1.0751   1.3510   1.3934

          k = 0.4286 0.2474 0.0000 (  7316 PWs)   bands (ev):

   -38.5910 -38.5904 -19.5767 -19.5691 -19.5017 -19.4931 -19.4906 -19.4817
   -15.8008 -15.7346 -14.6092 -14.5779 -14.5633 -14.5307  -6.2395  -6.1458
    -2.6538  -2.4904  -2.4456  -2.4364  -1.3321  -1.0217   0.0739   0.1465
     0.3360   0.4239   0.6711   0.8676   1.0388   1.1968   1.3684   1.3721

          k = 0.2857 0.1650 0.0583 (  7312 PWs)   bands (ev):

   -38.5913 -38.5901 -19.5805 -19.5651 -19.5042 -19.4953 -19.4875 -19.4782
   -15.8548 -15.6918 -14.6252 -14.5869 -14.5486 -14.5078  -6.2695  -6.1302
    -2.6416  -2.5163  -2.4562  -2.4399  -1.5175  -0.8364   0.1924   0.2550
     0.3190   0.3655   0.5980   0.7979   1.0189   1.3308   1.3829   1.3879

          k =-0.1429 0.0825 0.2916 (  7312 PWs)   bands (ev):

   -38.5913 -38.5901 -19.5814 -19.5659 -19.5036 -19.4948 -19.4864 -19.4781
   -15.8673 -15.6851 -14.6244 -14.5987 -14.5327 -14.5038  -6.2710  -6.1594
    -2.5974  -2.5171  -2.5015  -2.4477  -1.5268  -0.8154   0.3007   0.3128
     0.3980   0.4252   0.5945   0.7569   0.9716   1.2682   1.2950   1.4088

          k =-0.2857 0.0000 0.3499 (  7290 PWs)   bands (ev):

   -38.5911 -38.5903 -19.5793 -19.5688 -19.5039 -19.4917 -19.4897 -19.4785
   -15.8308 -15.7119 -14.6186 -14.5761 -14.5613 -14.5148  -6.2517  -6.1637
    -2.6049  -2.5372  -2.4813  -2.4139  -1.4195  -0.9481   0.2472   0.2584
     0.3789   0.4704   0.6024   0.8482   1.0223   1.1360   1.2591   1.3899

          k = 0.5714 0.4949 0.0000 (  7291 PWs)   bands (ev):

   -38.5909 -38.5905 -19.5760 -19.5723 -19.5023 -19.4974 -19.4848 -19.4810
   -15.7892 -15.7414 -14.6169 -14.5864 -14.5553 -14.5266  -6.2090  -6.1847
    -2.6085  -2.5617  -2.4483  -2.3995  -1.2730  -1.0896   0.1268   0.1484
     0.4491   0.4538   0.6597   0.8449   1.0701   1.0822   1.2633   1.3821

          k = 0.4286 0.4124 0.0583 (  7291 PWs)   bands (ev):

   -38.5909 -38.5905 -19.5755 -19.5719 -19.5024 -19.4982 -19.4852 -19.4807
   -15.7749 -15.7526 -14.6167 -14.5988 -14.5432 -14.5306  -6.2207  -6.1609
    -2.6543  -2.5170  -2.4303  -2.4115  -1.2426  -1.1136   0.0546   0.1160
     0.3950   0.4756   0.6600   0.8391   1.0481   1.1999   1.2770   1.3781

          k = 0.2857 0.3299 0.1166 (  7290 PWs)   bands (ev):

   -38.5911 -38.5903 -19.5785 -19.5681 -19.5046 -19.4929 -19.4901 -19.4784
   -15.8178 -15.7186 -14.6208 -14.5847 -14.5569 -14.5174  -6.2520  -6.1360
    -2.6572  -2.5052  -2.4542  -2.4120  -1.4022  -0.9588   0.0966   0.1805
     0.3501   0.4237   0.6220   0.8483   1.0449   1.2571   1.3214   1.3876

          k =-0.2857 0.1650 0.4082 (  7276 PWs)   bands (ev):

   -38.5911 -38.5903 -19.5790 -19.5708 -19.5061 -19.4948 -19.4856 -19.4767
   -15.8094 -15.7270 -14.6193 -14.5869 -14.5568 -14.5148  -6.2540  -6.1550
    -2.6509  -2.5089  -2.4739  -2.3835  -1.3768  -1.0240   0.2375   0.2921
     0.4181   0.4596   0.6021   0.9225   0.9359   1.1641   1.1760   1.3670

          k = 0.5714 0.6598 0.0583 (  7269 PWs)   bands (ev):

   -38.5909 -38.5905 -19.5774 -19.5729 -19.5059 -19.4982 -19.4823 -19.4774
   -15.7837 -15.7429 -14.6216 -14.6056 -14.5407 -14.5213  -6.2336  -6.1594
    -2.6485  -2.5499  -2.4382  -2.3673  -1.2983  -1.0990   0.1608   0.1894
     0.4744   0.5293   0.6283   0.7647   1.0298   1.1388   1.2102   1.3625

          k = 0.4286 0.5774 0.1166 (  7308 PWs)   bands (ev):

   -38.5907 -38.5907 -19.5748 -19.5743 -19.5033 -19.5012 -19.4807 -19.4803
   -15.7646 -15.7570 -14.6207 -14.6161 -14.5322 -14.5264  -6.1959  -6.1840
    -2.6083  -2.6009  -2.4115  -2.3842  -1.1985  -1.1607   0.0740   0.0793
     0.4834   0.5419   0.6647   0.6987   1.1044   1.1210   1.2784   1.3703

          k = 0.2857 0.4949 0.1750 (  7291 PWs)   bands (ev):

   -38.5909 -38.5905 -19.5755 -19.5718 -19.5026 -19.4984 -19.4849 -19.4807
   -15.7789 -15.7474 -14.6169 -14.6068 -14.5391 -14.5279  -6.2130  -6.1660
    -2.6275  -2.5606  -2.4235  -2.4032  -1.2463  -1.0934   0.0365   0.0776
     0.4243   0.4700   0.6778   0.7770   1.0819   1.1512   1.3490   1.3822

          k = 0.5714-0.3299-0.2916 (  7268 PWs)   bands (ev):

   -38.5909 -38.5905 -19.5777 -19.5731 -19.5074 -19.4984 -19.4815 -19.4762
   -15.7766 -15.7468 -14.6311 -14.6054 -14.5311 -14.5253  -6.2454  -6.1415
    -2.6886  -2.4970  -2.4574  -2.3508  -1.3034  -1.1165   0.1571   0.2226
     0.4468   0.5519   0.5858   0.7917   0.9762   1.1669   1.2478   1.3349

          k = 0.4286-0.4124-0.2333 (  7269 PWs)   bands (ev):

   -38.5909 -38.5905 -19.5770 -19.5725 -19.5062 -19.4986 -19.4825 -19.4774
   -15.7774 -15.7457 -14.6273 -14.6090 -14.5329 -14.5245  -6.2339  -6.1469
    -2.6712  -2.5302  -2.4318  -2.3673  -1.2859  -1.1018   0.0932   0.1488
     0.4713   0.4929   0.6015   0.8036   1.0260   1.1903   1.2690   1.3536

          k = 0.4286-0.2474-0.1750 (  7276 PWs)   bands (ev):

   -38.5911 -38.5903 -19.5782 -19.5702 -19.5066 -19.4956 -19.4860 -19.4768
   -15.7982 -15.7318 -14.6237 -14.5968 -14.5464 -14.5194  -6.2530  -6.1314
    -2.6866  -2.4709  -2.4709  -2.3810  -1.3620  -1.0339   0.1229   0.2003
     0.3888   0.4263   0.5921   0.9194   0.9862   1.2540   1.2806   1.3342

          k =-0.0000 0.0000 0.3499 (  7291 PWs)   bands (ev):

   -38.5913 -38.5901 -19.5810 -19.5665 -19.4985 -19.4985 -19.4828 -19.4828
   -15.8663 -15.6901 -14.6098 -14.6098 -14.5173 -14.5173  -6.2689  -6.1773
    -2.5446  -2.5446  -2.4889  -2.4889  -1.4994  -0.8217   0.3135   0.3135
     0.4111   0.4111   0.7311   0.7311   0.9400   1.2860   1.3061   1.3061

          k =-0.1429-0.0825 0.4082 (  7282 PWs)   bands (ev):

   -38.5911 -38.5903 -19.5793 -19.5689 -19.5005 -19.4923 -19.4894 -19.4810
   -15.8377 -15.7128 -14.6089 -14.5867 -14.5424 -14.5229  -6.2536  -6.1846
    -2.5621  -2.5269  -2.5091  -2.4497  -1.4113  -0.9348   0.3023   0.3132
     0.3477   0.4724   0.6637   0.8678   1.0018   1.1405   1.2545   1.3052

          k = 0.7143 0.4124 0.0583 (  7278 PWs)   bands (ev):

   -38.5909 -38.5905 -19.5767 -19.5722 -19.5008 -19.4966 -19.4861 -19.4809
   -15.7985 -15.7383 -14.6129 -14.5703 -14.5623 -14.5316  -6.2146  -6.1978
    -2.6057  -2.5249  -2.4768  -2.4161  -1.2924  -1.0781   0.1944   0.2360
     0.4105   0.5272   0.5986   0.9539   1.0032   1.0757   1.2482   1.2942

          k = 0.5714 0.3299 0.1166 (  7289 PWs)   bands (ev):

   -38.5908 -38.5906 -19.5754 -19.5735 -19.5032 -19.4988 -19.4828 -19.4804
   -15.7640 -15.7631 -14.6221 -14.5917 -14.5430 -14.5324  -6.2249  -6.1635
    -2.6660  -2.4882  -2.4570  -2.3957  -1.2195  -1.1643   0.1099   0.1757
     0.4485   0.4611   0.6235   0.9284   0.9547   1.2003   1.2756   1.2874

          k =-0.1429 0.0825 0.4666 (  7316 PWs)   bands (ev):

   -38.5910 -38.5904 -19.5783 -19.5706 -19.5005 -19.4916 -19.4896 -19.4814
   -15.8199 -15.7294 -14.6029 -14.5741 -14.5592 -14.5256  -6.2499  -6.1910
    -2.5811  -2.5209  -2.4886  -2.4479  -1.3530  -1.0031   0.2989   0.3452
     0.3935   0.3936   0.7451   0.9121   1.0223   1.0834   1.1848   1.2694

          k = 0.7143 0.5774 0.1166 (  7291 PWs)   bands (ev):

   -38.5909 -38.5905 -19.5767 -19.5730 -19.5014 -19.4969 -19.4846 -19.4806
   -15.7905 -15.7481 -14.6051 -14.5850 -14.5531 -14.5312  -6.2264  -6.1949
    -2.5885  -2.5650  -2.4468  -2.4203  -1.2723  -1.1067   0.2492   0.2523
     0.4315   0.4844   0.7005   0.8743   1.0440   1.0922   1.1753   1.2598

          k = 0.5714 0.4949 0.1750 (  7308 PWs)   bands (ev):

   -38.5907 -38.5907 -19.5753 -19.5748 -19.5026 -19.5007 -19.4808 -19.4801
   -15.7651 -15.7612 -14.6190 -14.6026 -14.5370 -14.5307  -6.2111  -6.1835
    -2.6336  -2.5585  -2.4194  -2.3939  -1.1985  -1.1877   0.1410   0.1738
     0.4941   0.5532   0.6087   0.7828   1.0389   1.1507   1.2481   1.2802

          k = 0.7143-0.4124-0.2333 (  7289 PWs)   bands (ev):

   -38.5908 -38.5906 -19.5761 -19.5742 -19.5026 -19.4982 -19.4823 -19.4803
   -15.7731 -15.7609 -14.6101 -14.5919 -14.5449 -14.5329  -6.2294  -6.1838
    -2.6328  -2.5232  -2.4580  -2.3977  -1.2354  -1.1578   0.2133   0.2697
     0.4329   0.5057   0.6971   0.8411   0.9966   1.1658   1.1835   1.2310

          k =-0.0000 0.0000 0.5249 (  7288 PWs)   bands (ev):

   -38.5909 -38.5905 -19.5769 -19.5718 -19.4936 -19.4936 -19.4880 -19.4880
   -15.8089 -15.7461 -14.5801 -14.5801 -14.5471 -14.5471  -6.2448  -6.2120
    -2.5209  -2.5209  -2.5005  -2.5005  -1.2866  -1.0481   0.3393   0.3393
     0.3742   0.3742   0.9095   0.9095   1.0361   1.1137   1.1137   1.1584

          k = 0.8571 0.4949 0.1750 (  7308 PWs)   bands (ev):

   -38.5908 -38.5906 -19.5754 -19.5739 -19.4966 -19.4955 -19.4865 -19.4847
   -15.7838 -15.7647 -14.5870 -14.5731 -14.5558 -14.5464  -6.2250  -6.2194
    -2.5604  -2.5376  -2.4774  -2.4561  -1.2123  -1.1442   0.3043   0.3303
     0.3697   0.4208   0.8415   0.9486   1.0431   1.0915   1.1315   1.1390

     highest occupied level (ev):     1.4955

!    total energy              =    -366.43788134 Ry
     Harris-Foulkes estimate   =    -366.43788265 Ry
     estimated scf accuracy    <       0.00000167 Ry

     The total energy is the sum of the following terms:

     one-electron contribution =    -167.19396739 Ry
     hartree contribution      =     105.90358086 Ry
     xc contribution           =     -72.68142205 Ry
     ewald contribution        =    -232.46607275 Ry

     convergence has been achieved in   8 iterations

     Forces acting on atoms (cartesian axes, Ry/au):

     atom    1 type  1   force =     0.00000000    0.00000000    0.00000000
     atom    2 type  1   force =     0.00000000    0.00000000    0.00000000
     atom    3 type  2   force =     0.00000000   -0.00000000   -0.00000000
     atom    4 type  2   force =    -0.00000000   -0.00000000   -0.00000000
     atom    5 type  3   force =    -0.12158114    0.21058470    0.00000000
     atom    6 type  3   force =     0.24316227   -0.00000000    0.00000000
     atom    7 type  3   force =    -0.12158114   -0.21058470   -0.00000000
     atom    8 type  3   force =    -0.24316227    0.00000000   -0.00000000
     atom    9 type  3   force =     0.12158114    0.21058470    0.00000000
     atom   10 type  3   force =     0.12158114   -0.21058470   -0.00000000

     Total force =     0.595623     Total SCF correction =     0.001642


     Computing stress (Cartesian axis) and pressure

          total   stress  (Ry/bohr**3)                   (kbar)     P= -286.65
  -0.00282328   0.00000000  -0.00000000       -415.32      0.00     -0.00
  -0.00000000  -0.00282328  -0.00000000         -0.00   -415.32     -0.00
  -0.00000000  -0.00000000  -0.00019932         -0.00     -0.00    -29.32


     BFGS Geometry Optimization

     number of scf cycles    =   1
     number of bfgs steps    =   0

     enthalpy new            =    -366.4378813411 Ry

     new trust radius        =       0.4934447225 bohr
     new conv_thr            =       0.0000100000 Ry

     new unit-cell volume =   1050.22252 a.u.^3 (   155.62692 Ang^3 )
     density =      2.13589 g/cm^3

CELL_PARAMETERS (alat= 12.00000000)
   0.464708985  -0.268299857   0.812427897
   0.000000000   0.536599715   0.812427897
  -0.464708985  -0.268299857   0.812427897

ATOMIC_POSITIONS (crystal)
Ca       0.500000000   0.500000000   0.500000000
Ca       0.000000000   0.000000000   0.000000000
C        0.250000000   0.250000000   0.250000000
C        0.750000000   0.750000000   0.750000000
O        0.486636722   1.013363278   0.250000000
O        1.013363278   0.250000000   0.486636722
O        0.250000000   0.486636722   1.013363278
O       -0.013363278   0.750000000   0.513363278
O        0.750000000   0.513363278  -0.013363278
O        0.513363278  -0.013363278   0.750000000



     Writing output data file CCO_k.save/
     NEW-OLD atomic charge density approx. for the potential

     Check: negative core charge=   -0.000002
     extrapolated charge   53.54105, renormalised to   64.00000

     total cpu time spent up to now is      142.3 secs

     Self-consistent Calculation

     iteration #  1     ecut=    50.00 Ry     beta= 0.70
     CG style diagonalization
     c_bands:  2 eigenvalues not converged
     c_bands:  4 eigenvalues not converged
     c_bands:  4 eigenvalues not converged
     c_bands:  4 eigenvalues not converged
     c_bands:  4 eigenvalues not converged
     c_bands:  5 eigenvalues not converged
     c_bands:  5 eigenvalues not converged
     c_bands:  4 eigenvalues not converged
     c_bands:  3 eigenvalues not converged
     c_bands:  3 eigenvalues not converged
     c_bands:  2 eigenvalues not converged
     c_bands:  4 eigenvalues not converged
     c_bands:  1 eigenvalues not converged
     c_bands:  2 eigenvalues not converged
     c_bands:  4 eigenvalues not converged
     c_bands:  4 eigenvalues not converged
     c_bands:  4 eigenvalues not converged
     c_bands:  4 eigenvalues not converged
     c_bands:  5 eigenvalues not converged
     c_bands:  5 eigenvalues not converged
     c_bands:  4 eigenvalues not converged
     c_bands:  4 eigenvalues not converged
     c_bands:  2 eigenvalues not converged
     c_bands:  4 eigenvalues not converged
     c_bands:  3 eigenvalues not converged
     c_bands:  5 eigenvalues not converged
     c_bands:  4 eigenvalues not converged
     c_bands:  4 eigenvalues not converged
     c_bands:  2 eigenvalues not converged
     c_bands:  4 eigenvalues not converged
     c_bands:  5 eigenvalues not converged
     c_bands:  2 eigenvalues not converged
     c_bands:  4 eigenvalues not converged
     c_bands:  4 eigenvalues not converged
     c_bands:  2 eigenvalues not converged
     c_bands:  1 eigenvalues not converged
     ethr =  1.00E-06,  avg # of iterations = 13.3

     total cpu time spent up to now is      196.0 secs

     total energy              =    -360.78292697 Ry
     Harris-Foulkes estimate   =    -388.25573535 Ry
     estimated scf accuracy    <       5.66822585 Ry

     iteration #  2     ecut=    50.00 Ry     beta= 0.70
     CG style diagonalization
     ethr =  8.86E-03,  avg # of iterations =  5.4

     total cpu time spent up to now is      218.3 secs

     total energy              =    -364.88401977 Ry
     Harris-Foulkes estimate   =    -373.43197910 Ry
     estimated scf accuracy    <      26.23175320 Ry

     iteration #  3     ecut=    50.00 Ry     beta= 0.70
     CG style diagonalization
     ethr =  8.86E-03,  avg # of iterations =  4.2

     total cpu time spent up to now is      235.7 secs

     total energy              =    -367.22977961 Ry
     Harris-Foulkes estimate   =    -367.68402257 Ry
     estimated scf accuracy    <       1.76436399 Ry

     iteration #  4     ecut=    50.00 Ry     beta= 0.70
     CG style diagonalization
     ethr =  2.76E-03,  avg # of iterations =  3.1

     total cpu time spent up to now is      248.9 secs

     total energy              =    -367.20153986 Ry
     Harris-Foulkes estimate   =    -367.34876716 Ry
     estimated scf accuracy    <       0.75638328 Ry

     iteration #  5     ecut=    50.00 Ry     beta= 0.70
     CG style diagonalization
     ethr =  1.18E-03,  avg # of iterations =  3.0

     total cpu time spent up to now is      261.8 secs

     total energy              =    -367.10542255 Ry
     Harris-Foulkes estimate   =    -367.23815885 Ry
     estimated scf accuracy    <       0.34323919 Ry

     iteration #  6     ecut=    50.00 Ry     beta= 0.70
     CG style diagonalization
     ethr =  5.36E-04,  avg # of iterations =  3.7

     total cpu time spent up to now is      277.3 secs

     total energy              =    -367.16807002 Ry
     Harris-Foulkes estimate   =    -367.16943787 Ry
     estimated scf accuracy    <       0.00334240 Ry

     iteration #  7     ecut=    50.00 Ry     beta= 0.70
     CG style diagonalization
     ethr =  5.22E-06,  avg # of iterations =  5.3

     total cpu time spent up to now is      299.1 secs

     total energy              =    -367.17417015 Ry
     Harris-Foulkes estimate   =    -367.17531959 Ry
     estimated scf accuracy    <       0.00228216 Ry

     iteration #  8     ecut=    50.00 Ry     beta= 0.70
     CG style diagonalization
     ethr =  3.57E-06,  avg # of iterations =  3.9

     total cpu time spent up to now is      315.6 secs

     total energy              =    -367.17460777 Ry
     Harris-Foulkes estimate   =    -367.17473796 Ry
     estimated scf accuracy    <       0.00021560 Ry

     iteration #  9     ecut=    50.00 Ry     beta= 0.70
     CG style diagonalization
     ethr =  3.37E-07,  avg # of iterations =  4.2

     total cpu time spent up to now is      333.2 secs

     total energy              =    -367.17468829 Ry
     Harris-Foulkes estimate   =    -367.17471154 Ry
     estimated scf accuracy    <       0.00008793 Ry

     iteration # 10     ecut=    50.00 Ry     beta= 0.70
     CG style diagonalization
     ethr =  1.37E-07,  avg # of iterations =  3.3

     total cpu time spent up to now is      347.1 secs

     total energy              =    -367.17468652 Ry
     Harris-Foulkes estimate   =    -367.17469478 Ry
     estimated scf accuracy    <       0.00002056 Ry

     iteration # 11     ecut=    50.00 Ry     beta= 0.70
     CG style diagonalization
     ethr =  3.21E-08,  avg # of iterations =  3.7

     total cpu time spent up to now is      362.5 secs

     End of self-consistent calculation

          k = 0.0000 0.0000 0.0000 (  7391 PWs)   bands (ev):

   -36.9762 -36.9721 -18.0265 -17.9539 -17.9273 -17.9273 -17.8821 -17.8821
   -16.9918 -16.7295 -14.5026 -14.5026 -14.3197 -14.3197  -4.6820  -4.5866
    -2.3000  -2.3000  -2.2702  -2.2702  -1.9395  -0.8447   1.1858   1.1858
     1.4655   1.4655   1.4823   1.4823   2.3914   2.4988   2.4988   2.8509

          k =-0.1537-0.0887 0.0586 (  7339 PWs)   bands (ev):

   -36.9760 -36.9723 -18.0201 -17.9567 -17.9321 -17.9263 -17.8912 -17.8852
   -16.9581 -16.7482 -14.4937 -14.4862 -14.3403 -14.3297  -4.6522  -4.5924
    -2.3333  -2.3048  -2.2607  -2.2447  -1.8705  -0.9067   1.1856   1.1993
     1.3564   1.3577   1.5563   1.5621   2.3762   2.4336   2.5385   2.8178

          k =-0.3074-0.1775 0.1172 (  7291 PWs)   bands (ev):

   -36.9754 -36.9728 -18.0049 -17.9639 -17.9438 -17.9260 -17.9025 -17.8950
   -16.8895 -16.7842 -14.4703 -14.4552 -14.3821 -14.3565  -4.5941  -4.5938
    -2.3789  -2.2954  -2.2684  -2.2084  -1.6936  -1.0530   1.1408   1.1797
     1.2089   1.2345   1.6647   1.6954   2.2776   2.2954   2.6578   2.7592

          k =-0.4611-0.2662 0.1758 (  7288 PWs)   bands (ev):

   -36.9746 -36.9736 -17.9877 -17.9731 -17.9470 -17.9342 -17.9067 -17.9051
   -16.8369 -16.8104 -14.4439 -14.4380 -14.4062 -14.3894  -4.5756  -4.5638
    -2.3850  -2.3401  -2.2359  -2.2025  -1.4642  -1.2404   1.0127   1.0486
     1.2217   1.2454   1.7618   1.7835   2.1798   2.1818   2.7279   2.7360

          k =-0.1537 0.0887 0.1172 (  7311 PWs)   bands (ev):

   -36.9759 -36.9723 -18.0198 -17.9606 -17.9357 -17.9204 -17.8959 -17.8808
   -16.9525 -16.7524 -14.4949 -14.4790 -14.3481 -14.3278  -4.6513  -4.5974
    -2.3458  -2.2945  -2.2615  -2.2361  -1.8551  -0.9225   1.1893   1.1977
     1.3374   1.4162   1.4853   1.6204   2.3442   2.4642   2.5113   2.8058

          k =-0.3074 0.0000 0.1758 (  7312 PWs)   bands (ev):

   -36.9755 -36.9727 -18.0097 -17.9720 -17.9428 -17.9163 -17.9065 -17.8841
   -16.8995 -16.7809 -14.4811 -14.4517 -14.3827 -14.3449  -4.6068  -4.6020
    -2.3777  -2.2952  -2.2649  -2.2013  -1.7276  -1.0331   1.1515   1.2023
     1.2361   1.3246   1.5571   1.7274   2.2255   2.3748   2.6189   2.7549

          k =-0.4611-0.0887 0.2345 (  7316 PWs)   bands (ev):

   -36.9748 -36.9734 -17.9957 -17.9792 -17.9491 -17.9304 -17.9043 -17.8921
   -16.8485 -16.8027 -14.4657 -14.4346 -14.4063 -14.3691  -4.5823  -4.5702
    -2.3783  -2.3434  -2.2470  -2.1844  -1.5310  -1.1863   1.0252   1.0761
     1.2490   1.2920   1.6680   1.7927   2.1335   2.2599   2.7091   2.7330

          k = 0.4611 0.4437-0.1172 (  7308 PWs)   bands (ev):

   -36.9742 -36.9740 -17.9843 -17.9806 -17.9543 -17.9414 -17.9024 -17.8953
   -16.8241 -16.8152 -14.4584 -14.4454 -14.3945 -14.3842  -4.5733  -4.5511
    -2.4091  -2.3326  -2.2220  -2.1977  -1.3740  -1.3224   0.9633   1.0062
     1.2526   1.2924   1.7136   1.7906   2.1561   2.1963   2.7240   2.7484

          k = 0.3074 0.3550-0.0586 (  7282 PWs)   bands (ev):

   -36.9750 -36.9732 -17.9948 -17.9687 -17.9614 -17.9254 -17.9099 -17.8885
   -16.8474 -16.8069 -14.4668 -14.4433 -14.3998 -14.3646  -4.5933  -4.5537
    -2.4267  -2.2812  -2.2401  -2.2049  -1.5863  -1.1419   0.9930   1.1122
     1.2142   1.2866   1.6393   1.7973   2.1885   2.2805   2.7182   2.7314

          k = 0.1537 0.2662 0.0000 (  7327 PWs)   bands (ev):

   -36.9756 -36.9726 -18.0096 -17.9603 -17.9484 -17.9193 -17.9068 -17.8841
   -16.9080 -16.7759 -14.4849 -14.4587 -14.3753 -14.3408  -4.6031  -4.5977
    -2.3887  -2.2906  -2.2412  -2.2255  -1.7701  -0.9960   1.1490   1.2102
     1.2108   1.3030   1.5625   1.6922   2.2911   2.3866   2.6227   2.7712

          k =-0.3074 0.1775 0.2345 (  7291 PWs)   bands (ev):

   -36.9753 -36.9729 -18.0061 -17.9921 -17.9470 -17.9128 -17.9029 -17.8776
   -16.8668 -16.8031 -14.4802 -14.4270 -14.4119 -14.3464  -4.6174  -4.5760
    -2.4209  -2.2819  -2.2577  -2.1626  -1.6787  -1.0956   1.1079   1.2190
     1.2904   1.3281   1.4963   1.8224   2.0833   2.3965   2.6473   2.7029

          k =-0.4611 0.0887 0.2931 (  7276 PWs)   bands (ev):

   -36.9749 -36.9733 -18.0045 -17.9977 -17.9522 -17.9231 -17.8940 -17.8797
   -16.8282 -16.8209 -14.4770 -14.4405 -14.4011 -14.3586  -4.6095  -4.5425
    -2.4299  -2.3166  -2.2455  -2.1369  -1.5583  -1.1925   1.0102   1.1428
     1.3111   1.3491   1.5523   1.8184   2.0254   2.3265   2.6759   2.7230

          k = 0.4611 0.6212-0.0586 (  7289 PWs)   bands (ev):

   -36.9743 -36.9739 -17.9989 -17.9876 -17.9595 -17.9398 -17.8887 -17.8864
   -16.8173 -16.8160 -14.4738 -14.4594 -14.3841 -14.3691  -4.5705  -4.5472
    -2.3952  -2.3773  -2.2298  -2.1466  -1.4047  -1.3004   0.9539   0.9877
     1.3351   1.3756   1.6403   1.6957   2.1253   2.2406   2.7130   2.7449

          k = 0.3074 0.5325 0.0000 (  7278 PWs)   bands (ev):

   -36.9745 -36.9737 -17.9916 -17.9773 -17.9643 -17.9427 -17.8983 -17.8853
   -16.8186 -16.8173 -14.4650 -14.4643 -14.3812 -14.3746  -4.5767  -4.5391
    -2.4392  -2.3055  -2.2258  -2.1847  -1.4387  -1.2612   0.9188   1.0052
     1.2684   1.3562   1.6394   1.7659   2.1818   2.2160   2.7166   2.7580

          k =-0.4611 0.2662 0.3517 (  7259 PWs)   bands (ev):

   -36.9748 -36.9734 -18.0236 -17.9963 -17.9529 -17.9196 -17.8868 -17.8750
   -16.8432 -16.7995 -14.4880 -14.4458 -14.3849 -14.3632  -4.6294  -4.5077
    -2.4712  -2.2793  -2.2604  -2.1006  -1.5429  -1.2344   0.9909   1.2106
     1.3224   1.3968   1.5111   1.7615   1.9855   2.3363   2.6186   2.7589

          k = 0.4611 0.7987 0.0000 (  7268 PWs)   bands (ev):

   -36.9746 -36.9736 -18.0202 -17.9927 -17.9564 -17.9271 -17.8845 -17.8778
   -16.8385 -16.7967 -14.4877 -14.4540 -14.3744 -14.3699  -4.6113  -4.5109
    -2.4499  -2.3335  -2.2368  -2.1044  -1.4845  -1.2646   0.9541   1.1038
     1.3710   1.4497   1.5470   1.6462   2.0558   2.2975   2.6410   2.7695

          k =-0.0000 0.0000 0.1758 (  7339 PWs)   bands (ev):

   -36.9760 -36.9723 -18.0248 -17.9601 -17.9253 -17.9253 -17.8846 -17.8846
   -16.9759 -16.7404 -14.4935 -14.4935 -14.3286 -14.3286  -4.6843  -4.5993
    -2.2962  -2.2962  -2.2690  -2.2690  -1.8773  -0.8943   1.1952   1.1952
     1.4030   1.4030   1.5738   1.5738   2.4072   2.4469   2.4469   2.8197

          k =-0.1537-0.0887 0.2345 (  7327 PWs)   bands (ev):

   -36.9756 -36.9726 -18.0186 -17.9676 -17.9279 -17.9220 -17.8943 -17.8878
   -16.9383 -16.7612 -14.4793 -14.4760 -14.3476 -14.3472  -4.6585  -4.6056
    -2.3096  -2.3028  -2.2832  -2.2347  -1.7795  -0.9803   1.2004   1.2077
     1.3007   1.4108   1.5316   1.6888   2.3145   2.3657   2.5273   2.7792

          k =-0.3074-0.1775 0.2931 (  7282 PWs)   bands (ev):

   -36.9750 -36.9732 -18.0073 -17.9764 -17.9314 -17.9227 -17.9093 -17.8936
   -16.8813 -16.7861 -14.4618 -14.4479 -14.3785 -14.3775  -4.6121  -4.5890
    -2.3451  -2.3130  -2.2774  -2.2080  -1.6004  -1.1306   1.1444   1.1516
     1.2399   1.3000   1.6221   1.8054   2.1552   2.2640   2.6413   2.7434

          k = 0.6148 0.3550-0.0586 (  7308 PWs)   bands (ev):

   -36.9742 -36.9740 -17.9965 -17.9810 -17.9447 -17.9207 -17.9171 -17.8954
   -16.8447 -16.7996 -14.4596 -14.4202 -14.4098 -14.3895  -4.5923  -4.5504
    -2.4163  -2.2917  -2.2340  -2.2141  -1.3949  -1.3126   1.0043   1.0718
     1.2446   1.2792   1.6856   1.8842   2.0687   2.2035   2.6913   2.7482

          k = 0.4611 0.2662 0.0000 (  7316 PWs)   bands (ev):

   -36.9748 -36.9734 -17.9898 -17.9867 -17.9543 -17.9159 -17.9145 -17.8915
   -16.8252 -16.8229 -14.4647 -14.4246 -14.4161 -14.3725  -4.5997  -4.5362
    -2.4477  -2.2636  -2.2297  -2.2100  -1.5238  -1.2040   0.9801   1.1115
     1.2050   1.2800   1.6492   1.8695   2.1048   2.2670   2.6993   2.7429

          k = 0.3074 0.1775 0.0586 (  7312 PWs)   bands (ev):

   -36.9755 -36.9727 -18.0053 -17.9719 -17.9498 -17.9152 -17.9095 -17.8834
   -16.8844 -16.7903 -14.4817 -14.4429 -14.3946 -14.3449  -4.6036  -4.5808
    -2.4144  -2.2867  -2.2278  -2.2131  -1.7238  -1.0421   1.1192   1.1796
     1.2478   1.2640   1.5574   1.7579   2.2217   2.3837   2.6519   2.7419

          k =-0.1537 0.0887 0.2931 (  7312 PWs)   bands (ev):

   -36.9755 -36.9727 -18.0172 -17.9761 -17.9334 -17.9115 -17.9014 -17.8819
   -16.9230 -16.7732 -14.4796 -14.4589 -14.3690 -14.3423  -4.6550  -4.6181
    -2.3441  -2.2783  -2.2778  -2.2177  -1.7365  -1.0234   1.1962   1.2219
     1.3336   1.3758   1.5629   1.7326   2.2235   2.3981   2.5075   2.7482

          k =-0.3074 0.0000 0.3517 (  7290 PWs)   bands (ev):

   -36.9751 -36.9732 -18.0097 -17.9882 -17.9383 -17.9148 -17.9027 -17.8840
   -16.8771 -16.7955 -14.4694 -14.4329 -14.4015 -14.3580  -4.6150  -4.6118
    -2.3618  -2.3153  -2.2597  -2.1855  -1.6126  -1.1359   1.1485   1.2045
     1.2692   1.3952   1.5520   1.8296   2.0751   2.3163   2.6112   2.7117

          k = 0.6148 0.5325 0.0000 (  7291 PWs)   bands (ev):

   -36.9744 -36.9738 -18.0027 -17.9910 -17.9434 -17.9314 -17.8974 -17.8880
   -16.8442 -16.8021 -14.4683 -14.4290 -14.4085 -14.3718  -4.5885  -4.5708
    -2.3979  -2.3295  -2.2349  -2.1788  -1.4489  -1.2709   1.0452   1.0651
     1.3135   1.3517   1.6176   1.8217   2.0678   2.2203   2.6791   2.7250

          k = 0.4611 0.4437 0.0586 (  7291 PWs)   bands (ev):

   -36.9744 -36.9738 -17.9985 -17.9882 -17.9535 -17.9334 -17.8983 -17.8866
   -16.8316 -16.8062 -14.4731 -14.4441 -14.3930 -14.3737  -4.5930  -4.5306
    -2.4513  -2.2909  -2.2086  -2.1974  -1.4287  -1.2866   0.9438   1.0549
     1.2714   1.3403   1.6325   1.8193   2.0987   2.2342   2.6863   2.7584

          k = 0.3074 0.3550 0.1172 (  7290 PWs)   bands (ev):

   -36.9751 -36.9732 -17.9967 -17.9866 -17.9549 -17.9230 -17.9048 -17.8828
   -16.8401 -16.8134 -14.4745 -14.4391 -14.4034 -14.3583  -4.6030  -4.5438
    -2.4414  -2.2867  -2.2279  -2.1863  -1.5970  -1.1458   0.9913   1.1382
     1.2333   1.3087   1.5849   1.8276   2.1228   2.3245   2.7014   2.7265

          k =-0.3074 0.1775 0.4103 (  7276 PWs)   bands (ev):

   -36.9749 -36.9733 -18.0069 -18.0048 -17.9444 -17.9158 -17.8929 -17.8791
   -16.8419 -16.8209 -14.4678 -14.4285 -14.4102 -14.3608  -4.6297  -4.5783
    -2.4159  -2.2786  -2.2695  -2.1439  -1.5679  -1.1976   1.1011   1.2540
     1.3265   1.3595   1.5577   1.8919   1.9112   2.3270   2.6565   2.6569

          k = 0.6148 0.7099 0.0586 (  7269 PWs)   bands (ev):

   -36.9746 -36.9736 -18.0125 -17.9991 -17.9490 -17.9260 -17.8870 -17.8806
   -16.8289 -16.8157 -14.4726 -14.4475 -14.3906 -14.3682  -4.6102  -4.5487
    -2.4215  -2.3359  -2.2325  -2.1311  -1.4794  -1.2679   1.0226   1.1265
     1.3883   1.4158   1.5700   1.7030   2.0354   2.2693   2.6556   2.7178

          k = 0.4611 0.6212 0.1172 (  7308 PWs)   bands (ev):

   -36.9742 -36.9740 -18.0006 -17.9948 -17.9529 -17.9430 -17.8860 -17.8844
   -16.8162 -16.8156 -14.4716 -14.4653 -14.3783 -14.3719  -4.5635  -4.5552
    -2.4026  -2.3817  -2.2036  -2.1565  -1.3726  -1.3365   0.9699   0.9779
     1.3728   1.4137   1.6219   1.6465   2.1495   2.2066   2.7146   2.7303

          k = 0.3074 0.5325 0.1758 (  7291 PWs)   bands (ev):

   -36.9744 -36.9738 -17.9915 -17.9859 -17.9578 -17.9443 -17.8941 -17.8864
   -16.8183 -16.8168 -14.4709 -14.4592 -14.3842 -14.3711  -4.5751  -4.5413
    -2.4188  -2.3486  -2.2040  -2.1823  -1.4290  -1.2721   0.9302   0.9994
     1.3016   1.3442   1.6438   1.7436   2.1535   2.2357   2.7175   2.7523

          k = 0.6148-0.3550-0.2931 (  7268 PWs)   bands (ev):

   -36.9746 -36.9736 -18.0245 -17.9950 -17.9513 -17.9211 -17.8856 -17.8783
   -16.8479 -16.7927 -14.4871 -14.4419 -14.3830 -14.3704  -4.6285  -4.5124
    -2.4692  -2.2703  -2.2613  -2.1129  -1.4885  -1.2779   0.9898   1.1889
     1.3359   1.4488   1.5204   1.7209   2.0068   2.2939   2.6124   2.7584

          k = 0.4611-0.4437-0.2345 (  7269 PWs)   bands (ev):

   -36.9746 -36.9736 -18.0141 -17.9919 -17.9544 -17.9296 -17.8884 -17.8803
   -16.8367 -16.7993 -14.4838 -14.4507 -14.3820 -14.3688  -4.6065  -4.5161
    -2.4562  -2.3196  -2.2206  -2.1355  -1.4695  -1.2691   0.9476   1.0907
     1.3620   1.3670   1.5672   1.7427   2.0625   2.2789   2.6525   2.7655

          k = 0.4611-0.2662-0.1758 (  7276 PWs)   bands (ev):

   -36.9749 -36.9733 -18.0096 -17.9942 -17.9526 -17.9194 -17.8969 -17.8802
   -16.8344 -16.8116 -14.4799 -14.4394 -14.3973 -14.3631  -4.6188  -4.5160
    -2.4712  -2.2724  -2.2358  -2.1488  -1.5544  -1.2054   0.9802   1.1750
     1.2662   1.3061   1.5588   1.9368   1.9522   2.3297   2.6492   2.7521

          k =-0.0000 0.0000 0.3517 (  7291 PWs)   bands (ev):

   -36.9754 -36.9728 -18.0192 -17.9757 -17.9194 -17.9194 -17.8913 -17.8913
   -16.9335 -16.7719 -14.4678 -14.4678 -14.3537 -14.3537  -4.6874  -4.6298
    -2.2866  -2.2866  -2.2673  -2.2673  -1.7087  -1.0334   1.2204   1.2204
     1.3477   1.3477   1.7155   1.7155   2.3050   2.3050   2.4544   2.7380

          k =-0.1537-0.0887 0.4103 (  7282 PWs)   bands (ev):

   -36.9750 -36.9732 -18.0146 -17.9843 -17.9247 -17.9101 -17.9061 -17.8882
   -16.8995 -16.7901 -14.4597 -14.4452 -14.3777 -14.3674  -4.6639  -4.6282
    -2.3149  -2.2956  -2.2648  -2.2329  -1.6075  -1.1293   1.2169   1.2430
     1.2573   1.3988   1.6279   1.8578   2.1333   2.2732   2.5306   2.7046

          k = 0.7685 0.4437 0.0586 (  7278 PWs)   bands (ev):

   -36.9745 -36.9737 -18.0117 -17.9897 -17.9323 -17.9209 -17.9035 -17.8874
   -16.8637 -16.7971 -14.4617 -14.4191 -14.4060 -14.3808  -4.6277  -4.5865
    -2.3867  -2.2795  -2.2452  -2.2125  -1.4701  -1.2607   1.1124   1.1707
     1.2934   1.4243   1.5507   1.9669   1.9748   2.2005   2.6163   2.7093

          k = 0.6148 0.3550 0.1172 (  7289 PWs)   bands (ev):

   -36.9743 -36.9739 -18.0132 -17.9897 -17.9477 -17.9223 -17.8974 -17.8858
   -16.8484 -16.7930 -14.4770 -14.4288 -14.3975 -14.3779  -4.6155  -4.5279
    -2.4579  -2.2498  -2.2455  -2.1807  -1.4038  -1.3311   0.9871   1.1327
     1.3240   1.3261   1.5908   1.9022   1.9791   2.2349   2.6406   2.7529

          k =-0.1537 0.0887 0.4689 (  7316 PWs)   bands (ev):

   -36.9748 -36.9734 -18.0109 -17.9931 -17.9275 -17.9090 -17.9018 -17.8881
   -16.8789 -16.8081 -14.4511 -14.4298 -14.3984 -14.3707  -4.6562  -4.6430
    -2.3361  -2.2889  -2.2601  -2.2136  -1.5458  -1.1903   1.2044   1.2739
     1.3132   1.3148   1.7205   1.8994   2.0284   2.2524   2.5500   2.6650

          k = 0.7685 0.6212 0.1172 (  7291 PWs)   bands (ev):

   -36.9744 -36.9738 -18.0076 -18.0008 -17.9318 -17.9228 -17.8933 -17.8865
   -16.8476 -16.8187 -14.4504 -14.4271 -14.4059 -14.3797  -4.6212  -4.6200
    -2.3529  -2.3386  -2.2234  -2.1931  -1.4538  -1.2846   1.1562   1.1779
     1.3373   1.3985   1.6519   1.8292   2.0386   2.1933   2.6218   2.6594

          k = 0.6148 0.5325 0.1758 (  7308 PWs)   bands (ev):

   -36.9742 -36.9740 -18.0108 -17.9976 -17.9426 -17.9322 -17.8879 -17.8842
   -16.8370 -16.8064 -14.4688 -14.4442 -14.3885 -14.3776  -4.6030  -4.5592
    -2.4188  -2.3345  -2.1992  -2.1737  -1.3765  -1.3571   1.0291   1.0975
     1.3811   1.4404   1.5646   1.7252   2.0929   2.1892   2.6554   2.7158

          k = 0.7685-0.4437-0.2345 (  7289 PWs)   bands (ev):

   -36.9743 -36.9739 -18.0130 -17.9996 -17.9385 -17.9204 -17.8899 -17.8856
   -16.8421 -16.8167 -14.4580 -14.4297 -14.3983 -14.3823  -4.6343  -4.5830
    -2.4077  -2.2826  -2.2508  -2.1667  -1.4173  -1.3287   1.0996   1.2148
     1.3283   1.4238   1.6231   1.7980   2.0155   2.2076   2.6199   2.6777

          k =-0.0000 0.0000 0.5275 (  7288 PWs)   bands (ev):

   -36.9746 -36.9737 -18.0090 -17.9938 -17.9108 -17.9108 -17.9007 -17.9007
   -16.8770 -16.8197 -14.4309 -14.4309 -14.3902 -14.3902  -4.6819  -4.6617
    -2.2760  -2.2760  -2.2690  -2.2690  -1.4785  -1.2388   1.2563   1.2563
     1.2993   1.2993   1.9003   1.9003   2.1087   2.1087   2.5319   2.6326

          k = 0.9222 0.5325 0.1758 (  7308 PWs)   bands (ev):

   -36.9742 -36.9740 -18.0064 -17.9998 -17.9191 -17.9164 -17.8983 -17.8932
   -16.8527 -16.8314 -14.4317 -14.4138 -14.4083 -14.3963  -4.6600  -4.6476
    -2.3255  -2.2951  -2.2467  -2.2268  -1.3965  -1.3289   1.2247   1.2544
     1.2818   1.3408   1.8080   1.9280   2.0463   2.1078   2.5840   2.6206

     highest occupied level (ev):     2.8509

!    total energy              =    -367.17468976 Ry
     Harris-Foulkes estimate   =    -367.17469092 Ry
     estimated scf accuracy    <       0.00000156 Ry

     The total energy is the sum of the following terms:

     one-electron contribution =    -166.20563737 Ry
     hartree contribution      =     108.18724715 Ry
     xc contribution           =     -74.05068472 Ry
     ewald contribution        =    -235.10561483 Ry

     convergence has been achieved in  11 iterations

     Forces acting on atoms (cartesian axes, Ry/au):

     atom    1 type  1   force =     0.00000000    0.00000000    0.00000000
     atom    2 type  1   force =    -0.00000000    0.00000000   -0.00000000
     atom    3 type  2   force =     0.00000000   -0.00000000    0.00000000
     atom    4 type  2   force =    -0.00000000   -0.00000000    0.00000000
     atom    5 type  3   force =    -0.06970549    0.12073346    0.00000000
     atom    6 type  3   force =     0.13941099    0.00000000   -0.00000000
     atom    7 type  3   force =    -0.06970549   -0.12073346   -0.00000000
     atom    8 type  3   force =    -0.13941099   -0.00000000    0.00000000
     atom    9 type  3   force =     0.06970549    0.12073346    0.00000000
     atom   10 type  3   force =     0.06970549   -0.12073346   -0.00000000

     Total force =     0.341486     Total SCF correction =     0.002556


     Computing stress (Cartesian axis) and pressure

          total   stress  (Ry/bohr**3)                   (kbar)     P= -208.61
  -0.00204820  -0.00000000   0.00000000       -301.30     -0.00      0.00
  -0.00000000  -0.00204820  -0.00000000         -0.00   -301.30     -0.00
   0.00000000  -0.00000000  -0.00015788          0.00     -0.00    -23.22


     number of scf cycles    =   2
     number of bfgs steps    =   1

     enthalpy old            =    -366.4378813411 Ry
     enthalpy new            =    -367.1746897606 Ry

     CASE: enthalpy_new < enthalpy_old

     new trust radius        =       0.7383206175 bohr
     new conv_thr            =       0.0000100000 Ry

     new unit-cell volume =    818.26699 a.u.^3 (   121.25466 Ang^3 )
     density =      2.74136 g/cm^3

CELL_PARAMETERS (alat= 12.00000000)
   0.411772462  -0.237736942   0.806206083
   0.000000000   0.475473884   0.806206083
  -0.411772462  -0.237736942   0.806206083

ATOMIC_POSITIONS (crystal)
Ca       0.500000000   0.500000000   0.500000000
Ca      -0.000000000   0.000000000   0.000000000
C        0.250000000   0.250000000   0.250000000
C        0.750000000   0.750000000   0.750000000
O        0.462385625   1.037614375   0.250000000
O        1.037614375   0.250000000   0.462385625
O        0.250000000   0.462385625   1.037614375
O       -0.037614375   0.750000000   0.537614375
O        0.750000000   0.537614375  -0.037614375
O        0.537614375  -0.037614375   0.750000000



     Writing output data file CCO_k.save/
     NEW-OLD atomic charge density approx. for the potential

     Check: negative core charge=   -0.000003

     negative rho (up, down):  1.841E-03 0.000E+00
     extrapolated charge   45.86093, renormalised to   64.00000

     total cpu time spent up to now is      363.9 secs

     Self-consistent Calculation

     iteration #  1     ecut=    50.00 Ry     beta= 0.70
     CG style diagonalization
     c_bands:  4 eigenvalues not converged
     c_bands:  4 eigenvalues not converged
     c_bands:  2 eigenvalues not converged
     ethr =  1.00E-06,  avg # of iterations = 20.3

     negative rho (up, down):  2.830E-04 0.000E+00

     total cpu time spent up to now is      444.2 secs

     total energy              =    -354.01495637 Ry
     Harris-Foulkes estimate   =    -406.14070928 Ry
     estimated scf accuracy    <      10.94899610 Ry

     iteration #  2     ecut=    50.00 Ry     beta= 0.70
     CG style diagonalization
     ethr =  1.00E-02,  avg # of iterations =  6.2

     total cpu time spent up to now is      469.7 secs

     total energy              =    -360.21929876 Ry
     Harris-Foulkes estimate   =    -377.02603024 Ry
     estimated scf accuracy    <      53.04222494 Ry

     iteration #  3     ecut=    50.00 Ry     beta= 0.70
     CG style diagonalization
     ethr =  1.00E-02,  avg # of iterations =  4.7

     total cpu time spent up to now is      489.7 secs

     total energy              =    -366.58006932 Ry
     Harris-Foulkes estimate   =    -367.79149021 Ry
     estimated scf accuracy    <       3.24028987 Ry

     iteration #  4     ecut=    50.00 Ry     beta= 0.70
     CG style diagonalization
     ethr =  5.06E-03,  avg # of iterations =  3.4

     total cpu time spent up to now is      503.8 secs

     total energy              =    -366.54082426 Ry
     Harris-Foulkes estimate   =    -366.90174913 Ry
     estimated scf accuracy    <       1.05097152 Ry

     iteration #  5     ecut=    50.00 Ry     beta= 0.70
     CG style diagonalization
     ethr =  1.64E-03,  avg # of iterations =  3.4

     total cpu time spent up to now is      518.1 secs

     total energy              =    -366.61047614 Ry
     Harris-Foulkes estimate   =    -366.66411414 Ry
     estimated scf accuracy    <       0.16624513 Ry

     iteration #  6     ecut=    50.00 Ry     beta= 0.70
     CG style diagonalization
     ethr =  2.60E-04,  avg # of iterations =  3.6

     total cpu time spent up to now is      533.3 secs

     total energy              =    -366.62511605 Ry
     Harris-Foulkes estimate   =    -366.63373980 Ry
     estimated scf accuracy    <       0.02421886 Ry

     iteration #  7     ecut=    50.00 Ry     beta= 0.70
     CG style diagonalization
     ethr =  3.78E-05,  avg # of iterations =  3.6

     total cpu time spent up to now is      548.6 secs

     total energy              =    -366.62868674 Ry
     Harris-Foulkes estimate   =    -366.62972150 Ry
     estimated scf accuracy    <       0.00319642 Ry

     iteration #  8     ecut=    50.00 Ry     beta= 0.70
     CG style diagonalization
     ethr =  4.99E-06,  avg # of iterations =  3.7

     total cpu time spent up to now is      564.2 secs

     total energy              =    -366.62905234 Ry
     Harris-Foulkes estimate   =    -366.62938598 Ry
     estimated scf accuracy    <       0.00061378 Ry

     iteration #  9     ecut=    50.00 Ry     beta= 0.70
     CG style diagonalization
     ethr =  9.59E-07,  avg # of iterations =  3.9

     total cpu time spent up to now is      580.5 secs

     total energy              =    -366.62919119 Ry
     Harris-Foulkes estimate   =    -366.62921888 Ry
     estimated scf accuracy    <       0.00004552 Ry

     iteration # 10     ecut=    50.00 Ry     beta= 0.70
     CG style diagonalization
     ethr =  7.11E-08,  avg # of iterations =  4.0

     total cpu time spent up to now is      597.4 secs

     End of self-consistent calculation

          k = 0.0000 0.0000 0.0000 (  7391 PWs)   bands (ev):

   -33.8343 -33.8202 -19.3230 -19.2033 -15.2653 -15.2653 -14.8767 -14.8652
   -14.8652 -14.8263 -14.8263 -14.8200 -14.2696 -14.2696  -2.8336  -2.3285
    -1.8621  -1.6903  -1.4063  -1.4063  -1.2055  -1.2055   2.9010   2.9010
     3.1875   3.1875   3.3913   3.3913   4.3342   4.3342   5.5629   5.9623

          k =-0.1735-0.1002 0.0591 (  7339 PWs)   bands (ev):

   -33.8335 -33.8208 -19.3213 -19.2067 -15.2700 -15.2186 -15.0816 -14.9493
   -14.8483 -14.8199 -14.7270 -14.6197 -14.3373 -14.2783  -2.7855  -2.2646
    -1.9183  -1.7228  -1.3743  -1.3709  -1.2281  -1.2010   2.8952   2.9095
     3.1718   3.2277   3.2905   3.3868   4.2533   4.2678   5.6451   5.9202

          k =-0.3469-0.2003 0.1181 (  7291 PWs)   bands (ev):

   -33.8314 -33.8226 -19.3111 -19.2214 -15.2804 -15.1903 -15.1621 -15.0088
   -14.8393 -14.7961 -14.6385 -14.4692 -14.4581 -14.3080  -2.6614  -2.2109
    -1.9539  -1.7678  -1.3216  -1.3137  -1.2581  -1.1924   2.8692   2.8986
     2.9700   3.0518   3.4517   3.4618   4.0821   4.1222   5.7986   5.8499

          k =-0.5204-0.3005 0.1772 (  7288 PWs)   bands (ev):

   -33.8285 -33.8254 -19.2858 -19.2509 -15.2327 -15.2009 -15.1814 -15.1003
   -14.8212 -14.7900 -14.5559 -14.4523 -14.4444 -14.3712  -2.5051  -2.3419
    -1.8447  -1.7850  -1.2874  -1.2779  -1.2530  -1.2168   2.7364   2.7783
     2.9498   2.9541   3.5740   3.5824   3.9587   3.9852   5.8390   5.8636

          k =-0.1735 0.1002 0.1181 (  7311 PWs)   bands (ev):

   -33.8333 -33.8210 -19.3202 -19.2081 -15.2516 -15.2368 -15.0436 -15.0315
   -14.8233 -14.8232 -14.6811 -14.6330 -14.3179 -14.3076  -2.7825  -2.2957
    -1.8859  -1.7230  -1.3867  -1.3596  -1.2356  -1.1921   2.9035   2.9068
     3.1645   3.2011   3.3239   3.4109   4.1863   4.3015   5.6500   5.9081

          k =-0.3469 0.0000 0.1772 (  7312 PWs)   bands (ev):

   -33.8318 -33.8223 -19.3137 -19.2179 -15.2740 -15.2316 -15.0912 -15.0381
   -14.8321 -14.8065 -14.6243 -14.5368 -14.3979 -14.3174  -2.6924  -2.2626
    -1.9024  -1.7644  -1.3741  -1.3072  -1.2351  -1.1893   2.8639   2.9203
     3.0313   3.1518   3.3097   3.5217   4.0197   4.2184   5.7697   5.8491

          k =-0.5204-0.1002 0.2363 (  7316 PWs)   bands (ev):

   -33.8293 -33.8245 -19.2941 -19.2420 -15.2715 -15.2394 -15.1243 -15.0459
   -14.8322 -14.7831 -14.5874 -14.5274 -14.3901 -14.3484  -2.5505  -2.3154
    -1.8657  -1.7791  -1.3520  -1.2454  -1.2232  -1.2118   2.7436   2.8309
     2.9501   3.0243   3.4368   3.5983   3.9192   4.0920   5.8389   5.8567

          k = 0.5204 0.5008-0.1181 (  7308 PWs)   bands (ev):

   -33.8273 -33.8265 -19.2759 -19.2621 -15.2613 -15.2003 -15.1667 -15.0829
   -14.8148 -14.8061 -14.5513 -14.4828 -14.4162 -14.3674  -2.4383  -2.3916
    -1.8259  -1.7981  -1.2996  -1.2892  -1.2337  -1.1817   2.6628   2.7371
     2.9554   2.9970   3.5018   3.5756   3.9567   4.0201   5.8365   5.8936

          k = 0.3469 0.4006-0.0591 (  7282 PWs)   bands (ev):

   -33.8301 -33.8238 -19.3046 -19.2305 -15.2982 -15.2147 -15.1559 -14.9931
   -14.8218 -14.7824 -14.6550 -14.4992 -14.3784 -14.3523  -2.5747  -2.2194
    -1.9177  -1.8091  -1.3452  -1.2942  -1.2152  -1.1766   2.6960   2.8627
     2.9567   3.0217   3.4159   3.5830   3.9597   4.1130   5.8110   5.8946

          k = 0.1735 0.3005 0.0000 (  7327 PWs)   bands (ev):

   -33.8323 -33.8218 -19.3186 -19.2122 -15.2546 -15.2455 -15.0711 -15.0640
   -14.8225 -14.8220 -14.5982 -14.5676 -14.3923 -14.3135  -2.7036  -2.1135
    -2.0431  -1.7713  -1.3470  -1.3420  -1.2291  -1.1895   2.8535   2.9147
     3.0285   3.1724   3.3107   3.4529   4.0970   4.2209   5.7719   5.8597

          k =-0.3469 0.2003 0.2363 (  7291 PWs)   bands (ev):

   -33.8312 -33.8229 -19.3141 -19.2189 -15.3044 -15.2474 -15.0659 -15.0320
   -14.8291 -14.8047 -14.5703 -14.5531 -14.3746 -14.3679  -2.6474  -2.2690
    -1.8570  -1.8087  -1.4335  -1.2923  -1.2167  -1.1485   2.7889   2.9354
     3.0702   3.1378   3.2771   3.6330   3.8341   4.2328   5.7849   5.8412

          k =-0.5204 0.1002 0.2953 (  7276 PWs)   bands (ev):

   -33.8297 -33.8242 -19.3044 -19.2317 -15.3299 -15.2568 -15.0997 -14.9414
   -14.8267 -14.7857 -14.6687 -14.5152 -14.3851 -14.3397  -2.5470  -2.2971
    -1.8422  -1.8184  -1.4480  -1.2645  -1.1871  -1.1377   2.6640   2.9192
     3.0036   3.1052   3.3305   3.5791   3.8367   4.1664   5.7614   5.9204

          k = 0.5204 0.7011-0.0591 (  7289 PWs)   bands (ev):

   -33.8277 -33.8261 -19.2805 -19.2582 -15.2772 -15.2173 -15.1636 -15.0557
   -14.8101 -14.7971 -14.5755 -14.4624 -14.4283 -14.3615  -2.4349  -2.3747
    -1.8205  -1.8174  -1.3864  -1.2780  -1.1660  -1.1515   2.6300   2.7095
     3.0264   3.0709   3.4036   3.4546   3.9731   4.0863   5.8396   5.9016

          k = 0.3469 0.6009 0.0000 (  7278 PWs)   bands (ev):

   -33.8282 -33.8256 -19.2868 -19.2513 -15.2910 -15.2139 -15.1657 -15.0147
   -14.8100 -14.8088 -14.6207 -14.4738 -14.4016 -14.3496  -2.4722  -2.3231
    -1.8395  -1.8206  -1.3293  -1.2933  -1.2159  -1.1388   2.5984   2.7398
     2.9814   3.0365   3.4170   3.5201   4.0016   4.0622   5.8278   5.9250

          k =-0.5204 0.3005 0.3544 (  7259 PWs)   bands (ev):

   -33.8295 -33.8243 -19.3092 -19.2275 -15.3849 -15.3023 -14.9265 -14.8719
   -14.8350 -14.7896 -14.7137 -14.6786 -14.3452 -14.3007  -2.5033  -2.2890
    -1.9068  -1.7628  -1.5134  -1.2705  -1.1623  -1.0982   2.5772   2.9943
     3.0734   3.0911   3.3164   3.4683   3.8554   4.1596   5.6832   5.9950

          k = 0.5204 0.9014 0.0000 (  7268 PWs)   bands (ev):

   -33.8288 -33.8250 -19.3002 -19.2378 -15.3486 -15.2982 -14.9990 -14.9649
   -14.7942 -14.7935 -14.6777 -14.5957 -14.3461 -14.3303  -2.4631  -2.3183
    -1.8914  -1.7711  -1.4838  -1.2669  -1.1514  -1.1085   2.5567   2.8670
     3.1092   3.1117   3.3376   3.3780   3.9322   4.1268   5.7222   5.9871

          k = 0.0000 0.0000 0.1772 (  7339 PWs)   bands (ev):

   -33.8336 -33.8208 -19.3176 -19.2097 -15.2572 -15.2572 -14.9563 -14.9563
   -14.8731 -14.8219 -14.7274 -14.7274 -14.2854 -14.2854  -2.8261  -2.4087
    -1.7920  -1.6756  -1.3952  -1.3952  -1.2144  -1.2144   2.9131   2.9131
     3.1535   3.1535   3.4512   3.4512   4.2856   4.2856   5.5732   5.9337

          k =-0.1735-0.1002 0.2363 (  7327 PWs)   bands (ev):

   -33.8324 -33.8219 -19.3120 -19.2176 -15.2864 -15.1749 -15.1421 -14.9075
   -14.8606 -14.8161 -14.7597 -14.5420 -14.3797 -14.2787  -2.7706  -2.4016
    -1.8001  -1.7017  -1.3717  -1.3434  -1.2285  -1.2236   2.9176   2.9238
     3.0997   3.1990   3.3212   3.5367   4.1484   4.2253   5.6511   5.8900

          k =-0.3469-0.2003 0.2953 (  7282 PWs)   bands (ev):

   -33.8302 -33.8239 -19.2966 -19.2375 -15.2924 -15.2315 -15.0969 -14.9985
   -14.8514 -14.7885 -14.6565 -14.4934 -14.4425 -14.2966  -2.6329  -2.3714
    -1.8431  -1.7306  -1.3246  -1.2775  -1.2490  -1.2295   2.8747   2.9250
     3.0019   3.0142   3.3742   3.6367   3.9674   4.0857   5.7672   5.8614

          k = 0.6939 0.4006-0.0591 (  7308 PWs)   bands (ev):

   -33.8273 -33.8265 -19.2693 -19.2681 -15.2932 -15.1752 -15.1614 -15.0635
   -14.8324 -14.7895 -14.5493 -14.4966 -14.4553 -14.3327  -2.4582  -2.4161
    -1.8567  -1.7360  -1.3161  -1.3001  -1.2367  -1.1847   2.7008   2.8406
     2.9283   2.9977   3.4717   3.7207   3.8310   4.0204   5.7918   5.9007

          k = 0.5204 0.3005 0.0000 (  7316 PWs)   bands (ev):

   -33.8293 -33.8245 -19.3002 -19.2360 -15.2773 -15.2767 -15.0990 -15.0245
   -14.8088 -14.7858 -14.6425 -14.4882 -14.3816 -14.3665  -2.5282  -2.2710
    -1.8419  -1.8394  -1.3767  -1.2896  -1.2212  -1.1477   2.6530   2.8471
     2.9652   3.0032   3.4393   3.6914   3.8382   4.0932   5.7732   5.9284

          k = 0.3469 0.2003 0.0591 (  7312 PWs)   bands (ev):

   -33.8318 -33.8223 -19.3173 -19.2147 -15.2713 -15.2420 -15.1154 -15.0253
   -14.8215 -14.8131 -14.6026 -14.5140 -14.4114 -14.3346  -2.6656  -2.1122
    -2.0239  -1.7952  -1.3892  -1.3018  -1.2366  -1.1618   2.8286   2.8782
     3.0214   3.1324   3.3133   3.5359   3.9943   4.2161   5.8222   5.8249

          k =-0.1735 0.1002 0.2953 (  7312 PWs)   bands (ev):

   -33.8319 -33.8224 -19.3089 -19.2213 -15.2700 -15.1891 -15.1305 -15.0066
   -14.8286 -14.8232 -14.6759 -14.5346 -14.3655 -14.3224  -2.7623  -2.4450
    -1.7539  -1.7034  -1.3780  -1.3406  -1.2494  -1.1988   2.9171   2.9422
     3.1150   3.1220   3.4196   3.5654   4.0389   4.2423   5.6671   5.8577

          k =-0.3469 0.0000 0.3544 (  7290 PWs)   bands (ev):

   -33.8303 -33.8238 -19.2999 -19.2336 -15.2870 -15.2406 -15.0832 -15.0210
   -14.8367 -14.8004 -14.6283 -14.5188 -14.4004 -14.3302  -2.6619  -2.4187
    -1.7770  -1.7438  -1.3795  -1.2957  -1.2341  -1.1909   2.8700   2.9720
     2.9915   3.1458   3.3432   3.6558   3.8672   4.1608   5.7670   5.8223

          k = 0.6939 0.6009 0.0000 (  7291 PWs)   bands (ev):

   -33.8281 -33.8258 -19.2786 -19.2587 -15.2877 -15.2328 -15.1139 -15.0511
   -14.8280 -14.7855 -14.5650 -14.5271 -14.4194 -14.3372  -2.5076  -2.4095
    -1.8311  -1.7499  -1.3555  -1.3086  -1.1947  -1.1746   2.7565   2.8141
     2.9890   3.0807   3.3864   3.6094   3.8858   4.0608   5.8125   5.8638

          k = 0.5204 0.5008 0.0591 (  7291 PWs)   bands (ev):

   -33.8281 -33.8257 -19.2884 -19.2496 -15.3086 -15.2373 -15.1271 -14.9992
   -14.8204 -14.7975 -14.6202 -14.4864 -14.4162 -14.3364  -2.4644  -2.3471
    -1.8576  -1.7815  -1.3740  -1.3010  -1.2002  -1.1312   2.6046   2.8104
     2.9611   3.0539   3.4183   3.5767   3.9148   4.0710   5.7804   5.9422

          k = 0.3469 0.4006 0.1181 (  7290 PWs)   bands (ev):

   -33.8302 -33.8237 -19.3083 -19.2269 -15.3173 -15.2419 -15.1286 -14.9444
   -14.8184 -14.7871 -14.6905 -14.4935 -14.3872 -14.3417  -2.5717  -2.2136
    -1.9022  -1.8310  -1.4047  -1.2745  -1.2058  -1.1482   2.6686   2.8926
     2.9716   3.0635   3.3523   3.6162   3.8882   4.1600   5.7825   5.9170

          k =-0.3469 0.2003 0.4135 (  7276 PWs)   bands (ev):

   -33.8298 -33.8242 -19.3018 -19.2328 -15.3401 -15.2082 -15.1193 -14.9518
   -14.8416 -14.8003 -14.6275 -14.5021 -14.4219 -14.3336  -2.6152  -2.4071
    -1.8038  -1.7339  -1.4403  -1.2921  -1.2086  -1.1491   2.7788   3.0165
     3.0585   3.0904   3.3803   3.6424   3.7472   4.1685   5.7511   5.8491

          k = 0.6939 0.8012 0.0591 (  7269 PWs)   bands (ev):

   -33.8286 -33.8252 -19.2933 -19.2439 -15.3329 -15.2452 -15.0957 -14.9836
   -14.8081 -14.7900 -14.6269 -14.5333 -14.3926 -14.3387  -2.5142  -2.3849
    -1.8354  -1.7583  -1.4418  -1.2903  -1.1717  -1.1339   2.6791   2.8866
     3.0908   3.1212   3.3631   3.4532   3.8868   4.1097   5.7573   5.9079

          k = 0.5204 0.7011 0.1181 (  7308 PWs)   bands (ev):

   -33.8272 -33.8266 -19.2735 -19.2655 -15.2595 -15.2374 -15.1365 -15.0974
   -14.8007 -14.7959 -14.5364 -14.4945 -14.4084 -14.3815  -2.4147  -2.3994
    -1.8159  -1.8143  -1.3721  -1.3231  -1.1500  -1.1382   2.6557   2.6829
     3.0645   3.0910   3.3913   3.4062   4.0049   4.0561   5.8561   5.8785

          k = 0.3469 0.6009 0.1772 (  7291 PWs)   bands (ev):

   -33.8280 -33.8257 -19.2852 -19.2532 -15.2877 -15.2115 -15.1693 -15.0249
   -14.8148 -14.8020 -14.6070 -14.4678 -14.4125 -14.3517  -2.4602  -2.3408
    -1.8319  -1.8197  -1.3602  -1.2788  -1.1894  -1.1508   2.6078   2.7309
     2.9974   3.0421   3.4142   3.5019   3.9824   4.0794   5.8305   5.9187

          k = 0.6939-0.4006-0.2953 (  7268 PWs)   bands (ev):

   -33.8288 -33.8250 -19.3017 -19.2356 -15.3876 -15.2795 -14.9889 -14.8496
   -14.8228 -14.7938 -14.7265 -14.6453 -14.3632 -14.2905  -2.4859  -2.3448
    -1.9029  -1.7202  -1.4950  -1.2827  -1.1658  -1.1029   2.5888   2.9636
     3.0920   3.1152   3.3093   3.4585   3.8837   4.1136   5.6871   5.9856

          k = 0.5204-0.5008-0.2363 (  7269 PWs)   bands (ev):

   -33.8286 -33.8252 -19.2971 -19.2410 -15.3384 -15.2825 -15.0519 -14.9524
   -14.8121 -14.7917 -14.6685 -14.5551 -14.3703 -14.3257  -2.4666  -2.3238
    -1.8821  -1.7735  -1.4526  -1.2810  -1.1647  -1.1109   2.5687   2.8543
     3.0351   3.1002   3.3545   3.4712   3.9226   4.1100   5.7380   5.9752

          k = 0.5204-0.3005-0.1772 (  7276 PWs)   bands (ev):

   -33.8297 -33.8242 -19.3086 -19.2276 -15.3472 -15.3014 -14.9852 -14.9557
   -14.7974 -14.7787 -14.7297 -14.5750 -14.3477 -14.3318  -2.5229  -2.2523
    -1.8840  -1.8155  -1.4664  -1.2790  -1.1831  -1.1101   2.5989   2.9308
     3.0073   3.0574   3.3438   3.6596   3.7863   4.1538   5.7158   5.9750

          k = 0.0000 0.0000 0.3544 (  7291 PWs)   bands (ev):

   -33.8316 -33.8228 -19.3021 -19.2274 -15.2326 -15.2326 -15.0512 -15.0512
   -14.8636 -14.8279 -14.6107 -14.6107 -14.3317 -14.3317  -2.8022  -2.5519
    -1.6809  -1.6398  -1.3649  -1.3649  -1.2397  -1.2397   2.9451   2.9451
     3.0951   3.0951   3.5872   3.5872   4.1521   4.1521   5.6071   5.8576

          k =-0.1735-0.1002 0.4135 (  7282 PWs)   bands (ev):

   -33.8303 -33.8240 -19.2936 -19.2382 -15.2841 -15.1965 -15.1255 -14.9668
   -14.8587 -14.8294 -14.6667 -14.4669 -14.4417 -14.3075  -2.7369  -2.5478
    -1.6977  -1.6669  -1.3580  -1.3034  -1.2547  -1.2406   2.9487   2.9576
     3.0388   3.1266   3.4576   3.7179   3.9693   4.1126   5.6738   5.8288

          k = 0.8673 0.5008 0.0591 (  7278 PWs)   bands (ev):

   -33.8283 -33.8257 -19.2761 -19.2595 -15.3263 -15.2146 -15.1106 -14.9372
   -14.8549 -14.8004 -14.6676 -14.4963 -14.4393 -14.2982  -2.5836  -2.4914
    -1.7924  -1.6928  -1.3589  -1.2882  -1.2361  -1.1950   2.8374   2.9270
     3.0286   3.1262   3.3223   3.7764   3.8135   4.0274   5.7416   5.8600

          k = 0.6939 0.4006 0.1181 (  7289 PWs)   bands (ev):

   -33.8277 -33.8261 -19.2875 -19.2502 -15.3557 -15.2355 -15.0793 -14.9397
   -14.8419 -14.7882 -14.6366 -14.5674 -14.4019 -14.3017  -2.4634  -2.4020
    -1.8810  -1.7102  -1.4182  -1.3018  -1.1939  -1.1288   2.6323   2.9169
     2.9973   3.0563   3.3724   3.6394   3.8412   4.0578   5.7273   5.9516

          k =-0.1735 0.1002 0.4725 (  7316 PWs)   bands (ev):

   -33.8295 -33.8247 -19.2889 -19.2433 -15.2718 -15.1975 -15.1306 -15.0161
   -14.8404 -14.8377 -14.6080 -14.4475 -14.4446 -14.3487  -2.7234  -2.5815
    -1.6746  -1.6624  -1.3539  -1.3134  -1.2698  -1.2193   2.9397   2.9988
     3.0456   3.0688   3.5713   3.7472   3.8452   4.1051   5.7023   5.7869

          k = 0.8673 0.7011 0.1181 (  7291 PWs)   bands (ev):

   -33.8282 -33.8259 -19.2793 -19.2556 -15.2841 -15.2656 -15.0526 -15.0261
   -14.8318 -14.8153 -14.5919 -14.5447 -14.3799 -14.3521  -2.6127  -2.5356
    -1.7213  -1.7176  -1.3581  -1.3232  -1.2140  -1.1980   2.8875   2.9299
     3.0513   3.1162   3.4567   3.6224   3.8808   4.0371   5.7724   5.7922

          k = 0.6939 0.6009 0.1772 (  7308 PWs)   bands (ev):

   -33.8272 -33.8266 -19.2770 -19.2607 -15.3188 -15.2251 -15.1163 -15.0184
   -14.8081 -14.7922 -14.5954 -14.5201 -14.4173 -14.3349  -2.4734  -2.4537
    -1.8260  -1.7374  -1.3900  -1.3280  -1.1753  -1.1422   2.7137   2.8425
     3.0759   3.1312   3.3476   3.4977   3.9458   4.0260   5.7755   5.8870

          k = 0.8673-0.5008-0.2363 (  7289 PWs)   bands (ev):

   -33.8278 -33.8262 -19.2824 -19.2534 -15.3467 -15.1723 -15.1589 -14.8997
   -14.8508 -14.8141 -14.6639 -14.4669 -14.4610 -14.3105  -2.5682  -2.5111
    -1.7895  -1.6817  -1.4096  -1.2939  -1.2180  -1.1626   2.7966   2.9661
     3.0727   3.1251   3.3985   3.5955   3.8582   4.0474   5.7345   5.8543

          k =-0.0000 0.0000 0.5316 (  7288 PWs)   bands (ev):

   -33.8287 -33.8256 -19.2790 -19.2524 -15.1904 -15.1904 -15.1299 -15.1299
   -14.8507 -14.8379 -14.5006 -14.5006 -14.4052 -14.4052  -2.7555  -2.6741
    -1.6147  -1.6082  -1.3227  -1.3227  -1.2780  -1.2780   2.9889   2.9889
     3.0392   3.0392   3.7664   3.7664   3.9659   3.9659   5.6700   5.7597

          k = 1.0408 0.6009 0.1772 (  7308 PWs)   bands (ev):

   -33.8275 -33.8267 -19.2692 -19.2638 -15.2693 -15.2268 -15.0879 -15.0297
   -14.8490 -14.8394 -14.5640 -14.5106 -14.4068 -14.3582  -2.6778  -2.6558
    -1.6612  -1.6413  -1.3392  -1.2846  -1.2802  -1.2466   2.9701   2.9875
     3.0259   3.0622   3.6330   3.7701   3.9003   3.9578   5.7199   5.7591

     highest occupied level (ev):     5.9950

!    total energy              =    -366.62920820 Ry
     Harris-Foulkes estimate   =    -366.62921159 Ry
     estimated scf accuracy    <       0.00000429 Ry

     The total energy is the sum of the following terms:

     one-electron contribution =    -171.67812308 Ry
     hartree contribution      =     116.24482149 Ry
     xc contribution           =     -76.99232038 Ry
     ewald contribution        =    -234.20358623 Ry

     convergence has been achieved in  10 iterations

     Forces acting on atoms (cartesian axes, Ry/au):

     atom    1 type  1   force =     0.00000000    0.00000000    0.00000000
     atom    2 type  1   force =     0.00000000    0.00000000    0.00000000
     atom    3 type  2   force =     0.00000000    0.00000000    0.00000000
     atom    4 type  2   force =     0.00000000    0.00000000    0.00000000
     atom    5 type  3   force =     0.45595508   -0.78973736   -0.00000000
     atom    6 type  3   force =    -0.91191015   -0.00000000    0.00000000
     atom    7 type  3   force =     0.45595508    0.78973736    0.00000000
     atom    8 type  3   force =     0.91191015    0.00000000   -0.00000000
     atom    9 type  3   force =    -0.45595508   -0.78973736   -0.00000000
     atom   10 type  3   force =    -0.45595508    0.78973736    0.00000000

     Total force =     2.233715     Total SCF correction =     0.009700


     Computing stress (Cartesian axis) and pressure

          total   stress  (Ry/bohr**3)                   (kbar)     P=  618.85
   0.00631019   0.00000000  -0.00000000        928.26      0.00     -0.00
  -0.00000000   0.00631019   0.00000000         -0.00    928.26      0.00
  -0.00000000   0.00000000   0.00000024         -0.00      0.00      0.03


     number of scf cycles    =   3
     number of bfgs steps    =   2

     enthalpy old            =    -367.1746897606 Ry
     enthalpy new            =    -366.6292081966 Ry

     CASE: enthalpy_new > enthalpy_old

     new trust radius        =       0.2089256084 bohr
     new conv_thr            =       0.0000100000 Ry

     new unit-cell volume =    981.21539 a.u.^3 (   145.40112 Ang^3 )
     density =      2.28611 g/cm^3

CELL_PARAMETERS (alat= 12.00000000)
   0.449671629  -0.259618036   0.810660504
   0.000000000   0.519236072   0.810660504
  -0.449671629  -0.259618036   0.810660504

ATOMIC_POSITIONS (crystal)
Ca       0.500000000   0.500000000   0.500000000
Ca      -0.000000000   0.000000000   0.000000000
C        0.250000000   0.250000000   0.250000000
C        0.750000000   0.750000000   0.750000000
O        0.479747861   1.020252139   0.250000000
O        1.020252139   0.250000000   0.479747861
O        0.250000000   0.479747861   1.020252139
O       -0.020252139   0.750000000   0.520252139
O        0.750000000   0.520252139  -0.020252139
O        0.520252139  -0.020252139   0.750000000



     Writing output data file CCO_k.save/
     NEW-OLD atomic charge density approx. for the potential

     Check: negative core charge=   -0.000002
     extrapolated charge   74.62652, renormalised to   64.00000

     total cpu time spent up to now is      598.8 secs

     Self-consistent Calculation

     iteration #  1     ecut=    50.00 Ry     beta= 0.70
     CG style diagonalization
     c_bands:  4 eigenvalues not converged
     c_bands:  1 eigenvalues not converged
     c_bands:  1 eigenvalues not converged
     c_bands:  1 eigenvalues not converged
     c_bands:  1 eigenvalues not converged
     c_bands:  1 eigenvalues not converged
     c_bands:  1 eigenvalues not converged
     c_bands:  1 eigenvalues not converged
     ethr =  1.00E-06,  avg # of iterations = 23.9

     total cpu time spent up to now is      692.3 secs

     total energy              =    -350.48649573 Ry
[...]

          k =-0.3595-0.2075 0.1054 (  5091 PWs)   bands (ev):

   -33.6910 -33.6832 -17.1042 -17.0302 -15.1208 -14.9945 -14.9822 -14.8003
   -14.6701 -14.6681 -13.7671 -13.5923 -13.5818 -13.4351  -3.0706  -3.0375
    -1.5402  -1.4273  -1.3047  -1.2854  -1.2686  -0.6547   2.3923   2.4060
     2.5950   2.6100   2.7155   2.8030   3.2597   3.2947   4.1987   4.2313

          k =-0.5392-0.3113 0.1581 (  5093 PWs)   bands (ev):

   -33.6883 -33.6855 -17.0828 -17.0399 -15.0680 -15.0191 -15.0003 -14.9253
   -14.6573 -14.6382 -13.6563 -13.6042 -13.5504 -13.5256  -2.9810  -2.9665
    -1.5308  -1.4536  -1.2459  -1.2336  -1.0338  -0.8186   2.1591   2.2305
     2.5342   2.5690   2.7943   2.8589   3.1179   3.1361   4.2850   4.3194

          k =-0.1797 0.1038 0.1054 (  5117 PWs)   bands (ev):

   -33.6928 -33.6818 -17.0914 -17.0610 -15.0940 -15.0926 -14.8124 -14.7622
   -14.6813 -14.6790 -13.8100 -13.7871 -13.4307 -13.4193  -3.2286  -3.0622
    -1.5946  -1.4931  -1.4811  -1.3112  -1.2590  -0.5037   2.3953   2.4484
     2.6985   2.7136   2.8557   2.9079   3.4114   3.5071   3.9468   4.1998

          k =-0.3595 0.0000 0.1581 (  5096 PWs)   bands (ev):

   -33.6914 -33.6829 -17.1068 -17.0337 -15.1015 -15.0686 -14.8690 -14.7936
   -14.7013 -14.6767 -13.7508 -13.6992 -13.4937 -13.4446  -3.1039  -3.0629
    -1.5191  -1.4417  -1.3947  -1.2848  -1.2456  -0.6333   2.3978   2.4721
     2.5835   2.6379   2.7307   2.8490   3.2361   3.3882   4.1470   4.2120

          k =-0.5392-0.1038 0.2108 (  5093 PWs)   bands (ev):

   -33.6891 -33.6848 -17.0922 -17.0347 -15.1168 -15.0493 -14.9215 -14.8698
   -14.6667 -14.6512 -13.7365 -13.6489 -13.5166 -13.4583  -2.9973  -2.9895
    -1.5091  -1.4344  -1.3249  -1.2323  -1.0775  -0.7660   2.2149   2.3271
     2.5095   2.5474   2.7283   2.8451   3.1084   3.2421   4.2747   4.3082

          k = 0.5392 0.5188-0.1054 (  5119 PWs)   bands (ev):

   -33.6872 -33.6865 -17.0782 -17.0426 -15.1031 -15.0355 -14.9825 -14.8810
   -14.6660 -14.6380 -13.7223 -13.6288 -13.5339 -13.4608  -2.9771  -2.9195
    -1.5304  -1.4496  -1.2716  -1.2104  -0.9295  -0.8762   2.1281   2.2071
     2.4605   2.5318   2.7495   2.8170   3.1328   3.1693   4.3086   4.3660

          k = 0.3595 0.4151-0.0527 (  5100 PWs)   bands (ev):

   -33.6898 -33.6841 -17.1141 -17.0086 -15.1499 -15.0426 -14.9641 -14.7912
   -14.6916 -14.6268 -13.7811 -13.6401 -13.5193 -13.4329  -3.0290  -2.9519
    -1.5549  -1.3776  -1.2904  -1.2304  -1.1678  -0.7408   2.1772   2.3987
     2.4748   2.5684   2.6661   2.8671   3.1510   3.2517   4.2452   4.3425

          k = 0.1797 0.3113 0.0000 (  5097 PWs)   bands (ev):

   -33.6918 -33.6824 -17.1100 -17.0288 -15.0931 -15.0829 -14.8576 -14.8011
   -14.7015 -14.6768 -13.7600 -13.7004 -13.4884 -13.4391  -3.1010  -3.0548
    -1.5485  -1.4352  -1.3853  -1.3295  -1.2379  -0.6015   2.4038   2.5255
     2.5269   2.6726   2.7034   2.8060   3.2904   3.3902   4.1473   4.2209

          k =-0.3595 0.2075 0.2108 (  5096 PWs)   bands (ev):

   -33.6908 -33.6834 -17.1290 -17.0064 -15.1215 -15.0917 -14.8137 -14.7715
   -14.7396 -14.6873 -13.7508 -13.7067 -13.4830 -13.4455  -3.1018  -3.0168
    -1.5089  -1.4106  -1.4022  -1.2259  -1.1981  -0.7076   2.2728   2.4203
     2.5391   2.6869   2.7144   2.9452   3.0822   3.3886   4.1773   4.2400

          k =-0.5392 0.1038 0.2635 (  5102 PWs)   bands (ev):

   -33.6894 -33.6845 -17.1293 -16.9963 -15.1766 -15.0783 -14.8618 -14.7730
   -14.6904 -14.6539 -13.8431 -13.6644 -13.4998 -13.3953  -3.0729  -2.9152
    -1.5246  -1.4106  -1.3374  -1.2105  -1.0543  -0.7853   2.1081   2.3365
     2.4870   2.6447   2.7018   2.8488   3.0645   3.3058   4.2051   4.3730

          k = 0.5392 0.7264-0.0527 (  5112 PWs)   bands (ev):

   -33.6876 -33.6861 -17.0836 -17.0396 -15.1436 -15.0314 -14.9232 -14.8391
   -14.6978 -14.6557 -13.7864 -13.6557 -13.5007 -13.4183  -2.9635  -2.9093
    -1.4900  -1.4606  -1.3397  -1.2005  -0.8960  -0.8421   2.0978   2.1970
     2.4745   2.5095   2.6785   2.7143   3.1557   3.2404   4.3265   4.3930

          k = 0.3595 0.6226 0.0000 (  5091 PWs)   bands (ev):

   -33.6880 -33.6857 -17.0949 -17.0244 -15.1444 -15.0573 -14.9741 -14.7613
   -14.7128 -14.6353 -13.8024 -13.6528 -13.5073 -13.4078  -2.9794  -2.8912
    -1.5547  -1.3580  -1.3397  -1.2074  -0.9831  -0.8058   2.1023   2.2569
     2.4220   2.4854   2.6700   2.7652   3.1999   3.2016   4.3086   4.4132

          k =-0.5392 0.3113 0.3162 (  5094 PWs)   bands (ev):

   -33.6892 -33.6846 -17.1580 -16.9586 -15.2010 -15.1924 -14.7480 -14.7279
   -14.6922 -14.6022 -13.9082 -13.8131 -13.4026 -13.3622  -3.1279  -2.8167
    -1.5831  -1.3778  -1.2716  -1.1922  -0.9985  -0.8455   1.9639   2.2701
     2.4944   2.7264   2.7415   2.7599   3.0966   3.2844   4.1363   4.4578

          k = 0.5392 0.9339 0.0000 (  5102 PWs)   bands (ev):

   -33.6885 -33.6852 -17.1394 -16.9792 -15.1915 -15.1485 -14.7854 -14.7406
   -14.7146 -14.6313 -13.8926 -13.7480 -13.4329 -13.3681  -3.0760  -2.8175
    -1.5523  -1.4196  -1.2921  -1.1895  -0.9360  -0.8361   1.9612   2.2304
     2.5042   2.6499   2.6832   2.7000   3.1543   3.2525   4.1970   4.4706

          k = 0.0000 0.0000 0.1581 (  5119 PWs)   bands (ev):

   -33.6930 -33.6817 -17.0839 -17.0751 -15.1130 -15.1130 -14.7874 -14.7874
   -14.6599 -14.5625 -13.8695 -13.8695 -13.3940 -13.3940  -3.3092  -3.0685
    -1.6166  -1.5210  -1.5210  -1.2873  -1.2873  -0.4593   2.3781   2.3781
     2.7642   2.7642   2.9922   2.9922   3.5403   3.5403   3.7944   4.1763

          k =-0.1797-0.1038 0.2108 (  5120 PWs)   bands (ev):

   -33.6920 -33.6826 -17.0851 -17.0681 -15.1284 -15.0261 -14.9120 -14.7451
   -14.6876 -14.6171 -13.8567 -13.6982 -13.5022 -13.3941  -3.2357  -3.0763
    -1.5481  -1.4901  -1.4159  -1.3109  -1.2930  -0.5629   2.4122   2.4619
     2.6800   2.7280   2.8340   2.9620   3.3910   3.4408   3.9562   4.1812

          k =-0.3595-0.2075 0.2635 (  5095 PWs)   bands (ev):

   -33.6899 -33.6842 -17.0810 -17.0569 -15.1108 -15.0352 -14.9530 -14.7944
   -14.6903 -14.6399 -13.7651 -13.6169 -13.5712 -13.4317  -3.1060  -3.0183
    -1.4919  -1.4505  -1.3350  -1.2862  -1.1717  -0.7125   2.3517   2.4541
     2.5540   2.6073   2.7349   2.8838   3.1815   3.2590   4.1735   4.2431

          k = 0.7189 0.4151-0.0527 (  5105 PWs)   bands (ev):

   -33.6873 -33.6865 -17.0851 -17.0395 -15.1091 -15.0283 -14.9657 -14.8876
   -14.6735 -14.6260 -13.7022 -13.6441 -13.5397 -13.4663  -3.0371  -2.9131
    -1.5300  -1.4439  -1.2933  -1.2095  -0.9544  -0.8665   2.1295   2.2431
     2.4940   2.6121   2.7593   2.9461   3.0301   3.1513   4.2520   4.3490

          k = 0.5392 0.3113 0.0000 (  5091 PWs)   bands (ev):

   -33.6890 -33.6848 -17.1210 -16.9980 -15.1430 -15.0919 -14.9166 -14.8264
   -14.6898 -14.6077 -13.7763 -13.6430 -13.5148 -13.4384  -3.0473  -2.8970
    -1.5773  -1.3662  -1.2828  -1.2028  -1.0869  -0.7986   2.0661   2.3144
     2.4571   2.6513   2.6980   2.9712   3.0321   3.2133   4.2208   4.3838

          k = 0.3595 0.2075 0.0527 (  5080 PWs)   bands (ev):

   -33.6913 -33.6828 -17.1212 -17.0120 -15.1194 -15.0626 -14.8975 -14.7724
   -14.7070 -14.6779 -13.7709 -13.6356 -13.5366 -13.4336  -3.0673  -3.0382
    -1.5351  -1.4185  -1.3753  -1.2592  -1.2398  -0.6553   2.3196   2.4398
     2.5803   2.6522   2.6523   2.8768   3.1965   3.3692   4.2078   4.2220

          k =-0.1797 0.1038 0.2635 (  5102 PWs)   bands (ev):

   -33.6915 -33.6830 -17.0915 -17.0631 -15.1023 -15.0394 -14.8906 -14.7775
   -14.6683 -14.6616 -13.7820 -13.7192 -13.4845 -13.4409  -3.2195  -3.1067
    -1.5051  -1.4646  -1.4304  -1.3136  -1.2800  -0.6127   2.4190   2.4751
     2.6408   2.6888   2.8946   3.0082   3.3131   3.4649   3.9677   4.1544

          k =-0.3595 0.0000 0.3162 (  5098 PWs)   bands (ev):

   -33.6900 -33.6842 -17.0974 -17.0469 -15.1026 -15.0564 -14.8867 -14.7718
   -14.7282 -14.6600 -13.7300 -13.6959 -13.5029 -13.4607  -3.1094  -3.0818
    -1.4554  -1.4424  -1.4044  -1.2697  -1.1796  -0.7260   2.3882   2.4292
     2.6092   2.6241   2.7663   2.9479   3.1321   3.3450   4.1481   4.1912

          k = 0.7189 0.6226 0.0000 (  5101 PWs)   bands (ev):

   -33.6880 -33.6859 -17.0665 -17.0649 -15.1144 -15.0375 -14.9219 -14.8403
   -14.6877 -14.6675 -13.7497 -13.6237 -13.5480 -13.4405  -3.0289  -2.9659
    -1.4904  -1.4202  -1.3714  -1.2324  -0.9780  -0.8204   2.2094   2.2646
     2.5372   2.5838   2.7144   2.8683   3.0776   3.2143   4.2686   4.3073

          k = 0.5392 0.5188 0.0527 (  5100 PWs)   bands (ev):

   -33.6879 -33.6858 -17.1099 -17.0102 -15.1522 -15.0756 -14.9404 -14.7776
   -14.6996 -14.6284 -13.8122 -13.6415 -13.5204 -13.4046  -3.0284  -2.8670
    -1.5674  -1.3525  -1.3315  -1.2052  -0.9561  -0.8402   2.0452   2.2494
     2.4286   2.6034   2.6995   2.8256   3.1258   3.1960   4.2547   4.4188

          k = 0.3595 0.4151 0.1054 (  5101 PWs)   bands (ev):

   -33.6899 -33.6840 -17.1273 -16.9948 -15.1752 -15.0597 -14.9314 -14.7447
   -14.7083 -14.6275 -13.8358 -13.6205 -13.5381 -13.3990  -3.0561  -2.9253
    -1.5540  -1.3765  -1.3021  -1.2324  -1.1376  -0.7498   2.1336   2.4136
     2.4441   2.6013   2.6644   2.8903   3.1045   3.2920   4.2194   4.3659

          k =-0.3595 0.2075 0.3689 (  5099 PWs)   bands (ev):

   -33.6895 -33.6846 -17.1254 -17.0137 -15.1559 -15.0449 -14.8402 -14.7752
   -14.7350 -14.6563 -13.7695 -13.7092 -13.4775 -13.4437  -3.1301  -3.0070
    -1.5138  -1.3971  -1.3512  -1.2490  -1.1032  -0.7993   2.2561   2.3808
     2.5738   2.6891   2.7775   2.9553   3.0162   3.3431   4.1527   4.2499

          k = 0.7189 0.8302 0.0527 (  5110 PWs)   bands (ev):

   -33.6884 -33.6854 -17.1187 -17.0117 -15.1552 -15.0833 -14.8244 -14.7727
   -14.7147 -14.6883 -13.7946 -13.7142 -13.4610 -13.4235  -3.0748  -2.9211
    -1.5153  -1.4179  -1.3220  -1.2361  -0.9696  -0.8342   2.1136   2.2812
     2.5451   2.6700   2.7226   2.7665   3.0859   3.2636   4.2101   4.3625

          k = 0.5392 0.7264 0.1054 (  5100 PWs)   bands (ev):

   -33.6871 -33.6866 -17.0706 -17.0548 -15.1149 -15.0671 -14.8801 -14.8377
   -14.7136 -14.6821 -13.7478 -13.6968 -13.4704 -13.4391  -2.9465  -2.9274
    -1.4954  -1.4594  -1.3166  -1.2304  -0.8653  -0.8508   2.1123   2.1480
     2.5120   2.5295   2.6698   2.6838   3.1740   3.2174   4.3479   4.3718

          k = 0.3595 0.6226 0.1581 (  5110 PWs)   bands (ev):

   -33.6879 -33.6858 -17.0920 -17.0284 -15.1486 -15.0432 -14.9559 -14.8082
   -14.6851 -14.6454 -13.8015 -13.6468 -13.5102 -13.4094  -2.9752  -2.8961
    -1.5276  -1.4360  -1.2688  -1.2437  -0.9473  -0.8191   2.0992   2.2398
     2.4385   2.4908   2.6755   2.7469   3.1754   3.2266   4.3130   4.4078

          k = 0.7189-0.4151-0.2635 (  5091 PWs)   bands (ev):

   -33.6886 -33.6852 -17.1498 -16.9699 -15.2044 -15.1645 -14.7468 -14.7454
   -14.7151 -14.5986 -13.8639 -13.8318 -13.3917 -13.3846  -3.1262  -2.8217
    -1.5837  -1.3732  -1.2449  -1.2316  -0.9575  -0.8682   1.9798   2.2549
     2.5308   2.6755   2.7347   2.7914   3.1029   3.2441   4.1465   4.4473

          k = 0.5392-0.5188-0.2108 (  5099 PWs)   bands (ev):

   -33.6884 -33.6854 -17.1316 -16.9874 -15.1812 -15.1303 -14.8466 -14.7288
   -14.7081 -14.6365 -13.8728 -13.7155 -13.4583 -13.3752  -3.0636  -2.8306
    -1.5642  -1.3986  -1.2619  -1.2325  -0.9441  -0.8328   1.9837   2.2412
     2.4637   2.6469   2.6822   2.7510   3.1476   3.2305   4.2132   4.4568

          k = 0.5392-0.3113-0.1581 (  5093 PWs)   bands (ev):

   -33.6894 -33.6845 -17.1477 -16.9686 -15.1857 -15.1623 -14.8166 -14.7357
   -14.7160 -14.5950 -13.8730 -13.7402 -13.4451 -13.3808  -3.0997  -2.8434
    -1.5868  -1.3601  -1.2474  -1.2352  -1.0503  -0.8137   1.9951   2.3243
     2.4284   2.6933   2.7121   2.8991   3.0561   3.2679   4.1652   4.4342

          k = 0.0000 0.0000 0.3162 (  5106 PWs)   bands (ev):

   -33.6913 -33.6834 -17.0836 -17.0775 -15.0753 -15.0753 -14.8564 -14.8564
   -14.6433 -14.5760 -13.7776 -13.7776 -13.4550 -13.4550  -3.2927  -3.1336
    -1.4849  -1.4849  -1.4183  -1.3234  -1.3234  -0.6232   2.4388   2.4388
     2.7024   2.7024   3.0710   3.0710   3.4446   3.4446   3.8462   4.1058

          k =-0.1797-0.1038 0.3689 (  5099 PWs)   bands (ev):

   -33.6901 -33.6844 -17.0799 -17.0757 -15.1062 -14.9849 -14.9762 -14.7944
   -14.6657 -14.6088 -13.7935 -13.6269 -13.5727 -13.4357  -3.2278  -3.1232
    -1.4621  -1.4540  -1.3575  -1.3383  -1.2438  -0.7253   2.4469   2.5022
     2.6401   2.6419   2.9280   3.0816   3.2623   3.3671   3.9844   4.1263

          k = 0.8987 0.5188 0.0527 (  5105 PWs)   bands (ev):

   -33.6882 -33.6859 -17.0857 -17.0554 -15.1381 -15.0017 -14.9600 -14.7610
   -14.7206 -14.6249 -13.7897 -13.6044 -13.5830 -13.4217  -3.1331  -3.0087
    -1.4840  -1.4057  -1.3591  -1.2922  -1.0441  -0.8240   2.2999   2.4211
     2.6009   2.6321   2.7093   3.0484   3.0484   3.2136   4.1525   4.2486

          k = 0.7189 0.4151 0.1054 (  5090 PWs)   bands (ev):

   -33.6876 -33.6862 -17.1241 -16.9992 -15.1726 -15.1073 -14.8515 -14.7953
   -14.7023 -14.6040 -13.7873 -13.7639 -13.4458 -13.4135  -3.0940  -2.8563
    -1.5725  -1.3465  -1.3294  -1.2087  -0.9179  -0.8971   2.0391   2.2697
     2.4840   2.6871   2.6996   2.9010   3.0718   3.1742   4.1901   4.4069

          k =-0.1797 0.1038 0.4215 (  5100 PWs)   bands (ev):

   -33.6894 -33.6851 -17.0888 -17.0679 -15.0924 -14.9707 -14.9682 -14.8383
   -14.6442 -14.6385 -13.7416 -13.6189 -13.5733 -13.4777  -3.2013  -3.1603
    -1.4575  -1.4248  -1.3819  -1.3232  -1.1849  -0.7981   2.4687   2.5105
     2.5885   2.6371   2.9852   3.1234   3.1862   3.3645   4.0085   4.0918

          k = 0.8987 0.7264 0.1054 (  5099 PWs)   bands (ev):

   -33.6882 -33.6861 -17.0827 -17.0647 -15.0896 -15.0675 -14.8668 -14.8151
   -14.6970 -14.6654 -13.7095 -13.6969 -13.5010 -13.4832  -3.1099  -3.1003
    -1.4416  -1.4278  -1.3666  -1.3094  -1.0316  -0.8678   2.3873   2.4016
     2.6058   2.6214   2.8469   2.9509   3.1342   3.2507   4.1546   4.1695

          k = 0.7189 0.6226 0.1581 (  5087 PWs)   bands (ev):

   -33.6872 -33.6867 -17.0966 -17.0365 -15.1278 -15.0670 -14.8770 -14.7685
   -14.7158 -14.6978 -13.7488 -13.7062 -13.4820 -13.4385  -3.0595  -2.9393
    -1.5142  -1.4072  -1.3150  -1.2675  -0.8963  -0.8905   2.1523   2.2588
     2.5746   2.6342   2.6918   2.8062   3.1391   3.1789   4.2337   4.3383

          k = 0.8987-0.5188-0.2108 (  5094 PWs)   bands (ev):

   -33.6878 -33.6863 -17.1102 -17.0315 -15.1608 -14.9950 -14.9258 -14.7710
   -14.7148 -14.6306 -13.8000 -13.6564 -13.5271 -13.4232  -3.1421  -3.0053
    -1.5090  -1.3793  -1.3142  -1.3080  -0.9675  -0.9160   2.2664   2.3821
     2.6051   2.6651   2.7738   2.9320   3.0890   3.2445   4.1438   4.2517

          k =-0.0000 0.0000 0.4742 (  5088 PWs)   bands (ev):

   -33.6887 -33.6859 -17.0825 -17.0804 -15.0155 -15.0155 -14.9389 -14.9389
   -14.6204 -14.5964 -13.6619 -13.6619 -13.5484 -13.5484  -3.2585  -3.2036
    -1.4329  -1.4329  -1.3753  -1.3753  -1.1499  -0.8674   2.5249   2.5249
     2.6185   2.6185   3.1834   3.1834   3.3156   3.3156   3.9233   4.0146

          k = 1.0784 0.6226 0.1581 (  5101 PWs)   bands (ev):

   -33.6876 -33.6869 -17.0832 -17.0740 -15.0764 -15.0222 -14.9263 -14.8629
   -14.6459 -14.6181 -13.7140 -13.6346 -13.5663 -13.4967  -3.2034  -3.1688
    -1.4349  -1.3889  -1.3827  -1.3774  -1.0276  -0.9481   2.4935   2.5315
     2.5833   2.5973   3.0391   3.1275   3.2100   3.2667   4.0311   4.0643

     highest occupied level (ev):     4.4706

!    total energy              =    -367.43036066 Ry
     Harris-Foulkes estimate   =    -367.43036066 Ry
     estimated scf accuracy    <          9.9E-09 Ry

     The total energy is the sum of the following terms:

     one-electron contribution =    -148.07455721 Ry
     hartree contribution      =     103.42563140 Ry
     xc contribution           =     -75.26937115 Ry
     ewald contribution        =    -247.51206370 Ry

     convergence has been achieved in   9 iterations

     Forces acting on atoms (cartesian axes, Ry/au):

     atom    1 type  1   force =     0.00000000    0.00000000    0.00000000
     atom    2 type  1   force =     0.00000000    0.00000000    0.00000000
     atom    3 type  2   force =     0.00000000   -0.00000000   -0.00000000
     atom    4 type  2   force =    -0.00000000    0.00000000    0.00000000
     atom    5 type  3   force =     0.00006167   -0.00010682   -0.00000000
     atom    6 type  3   force =    -0.00012334   -0.00000000    0.00000000
     atom    7 type  3   force =     0.00006167    0.00010682    0.00000000
     atom    8 type  3   force =     0.00012334    0.00000000   -0.00000000
     atom    9 type  3   force =    -0.00006167   -0.00010682   -0.00000000
     atom   10 type  3   force =    -0.00006167    0.00010682    0.00000000

     Total force =     0.000302     Total SCF correction =     0.000147
     SCF correction compared to forces is large: reduce conv_thr to get better values


     Computing stress (Cartesian axis) and pressure

          total   stress  (Ry/bohr**3)                   (kbar)     P=   -0.71
  -0.00000719  -0.00000000   0.00000000         -1.06     -0.00      0.00
  -0.00000000  -0.00000719  -0.00000000         -0.00     -1.06     -0.00
   0.00000000  -0.00000000  -0.00000017          0.00     -0.00     -0.02


     Writing output data file CCO_k.save/
 
     init_run     :     10.32s CPU     12.40s WALL (       2 calls)
     electrons    :   2736.50s CPU   3058.15s WALL (      17 calls)
     update_pot   :      1.08s CPU      1.14s WALL (      15 calls)
     forces       :      7.34s CPU      7.63s WALL (      17 calls)
     stress       :     12.45s CPU     12.56s WALL (      17 calls)

     Called by init_run:
     wfcinit      :      9.78s CPU     11.72s WALL (       2 calls)
     potinit      :      0.06s CPU      0.07s WALL (       2 calls)
     hinit0       :      0.40s CPU      0.50s WALL (       2 calls)

     Called by electrons:
     c_bands      :   2576.51s CPU   2888.39s WALL (     164 calls)
     sum_band     :    155.33s CPU    163.69s WALL (     164 calls)
     v_of_rho     :      2.91s CPU      3.00s WALL (     181 calls)
     newd         :      1.26s CPU      1.30s WALL (     181 calls)
     mix_rho      :      0.41s CPU      0.46s WALL (     164 calls)

     Called by c_bands:
     init_us_2    :      3.68s CPU      4.28s WALL (   16016 calls)
     ccgdiagg     :   2062.76s CPU   2256.52s WALL (    7421 calls)
     wfcrot       :    518.52s CPU    628.50s WALL (    6761 calls)

     Called by sum_band:
     sum_band:bec :      2.04s CPU      2.13s WALL (    7216 calls)
     addusdens    :      0.87s CPU      0.88s WALL (     164 calls)

     Called by *cgdiagg:
     h_psi        :   1730.82s CPU   1857.35s WALL (  831881 calls)
     s_psi        :     89.91s CPU    103.26s WALL ( 1657001 calls)
     cdiaghg      :    186.97s CPU    276.30s WALL (    6761 calls)

     Called by h_psi:
     h_psi:pot    :   1708.71s CPU   1831.65s WALL (  831881 calls)
     h_psi:calbec :    195.85s CPU    212.84s WALL (  831881 calls)
     vloc_psi     :   1417.82s CPU   1516.05s WALL (  831881 calls)
     add_vuspsi   :     67.11s CPU     74.49s WALL (  831881 calls)
     hs_1psi      :   1550.24s CPU   1670.04s WALL (  825120 calls)
     s_1psi       :    181.07s CPU    206.79s WALL (  825120 calls)

     General routines
     calbec       :    291.88s CPU    327.06s WALL ( 1667957 calls)
     fft          :      3.26s CPU      3.40s WALL (    2431 calls)
     ffts         :      0.22s CPU      0.22s WALL (     164 calls)
     fftw         :   1484.54s CPU   1583.64s WALL ( 2317376 calls)
 
     Parallel routines
     fft_scatt_xy :     66.33s CPU     70.49s WALL ( 2319971 calls)
     fft_scatt_yz :   1117.00s CPU   1194.23s WALL ( 2319971 calls)
 
     PWSCF        :  46m15.14s CPU  51m44.27s WALL

 
   This run was terminated on:  16:54: 3  24Apr2022            

=------------------------------------------------------------------------------=
   JOB DONE.
=------------------------------------------------------------------------------=
