
     Program PWSCF v.6.4.1 starts on  2May2022 at 19: 0: 6 

     This program is part of the open-source Quantum ESPRESSO suite
     for quantum simulation of materials; please cite
         "P. Giannozzi et al., J. Phys.:Condens. Matter 21 395502 (2009);
         "P. Giannozzi et al., J. Phys.:Condens. Matter 29 465901 (2017);
          URL http://www.quantum-espresso.org", 
     in publications or presentations arising from this work. More details at
     http://www.quantum-espresso.org/quote

     Parallel version (MPI & OpenMP), running on     300 processor cores
     Number of MPI processes:               300
     Threads/MPI process:                     1

     MPI processes distributed on     5 nodes
     R & G space division:  proc/nbgrp/npool/nimage =     300
     Waiting for input...
     Reading input from standard input

     Current dimensions of program PWSCF are:
     Max number of different atomic species (ntypx) = 10
     Max number of k-points (npk) =  40000
     Max angular momentum in pseudopotentials (lmaxx) =  3

     Subspace diagonalization in iterative solution of the eigenvalue problem:
     one sub-group per band group will be used
     scalapack distributed-memory algorithm (size of sub-group: 12* 12 procs)

 
     Parallelization info
     --------------------
     sticks:   dense  smooth     PW     G-vecs:    dense   smooth      PW
     Min           5       5      1                  131      131      18
     Max           6       6      2                  141      141      26
     Sum        1703    1703    505                40837    40837    6699
 


     bravais-lattice index     =            5
     lattice parameter (alat)  =      12.1620  a.u.
     unit-cell volume          =     854.7720 (a.u.)^3
     number of atoms/cell      =           10
     number of atomic types    =            3
     number of electrons       =        64.00
     number of Kohn-Sham states=           32
     kinetic-energy cutoff     =      50.0000  Ry
     charge density cutoff     =     200.0000  Ry
     convergence threshold     =      1.0E-05
     mixing beta               =       0.7000
     number of iterations used =            8  plain     mixing
     Exchange-correlation      = SLA  PW   PBE  PBE ( 1  4  3  4 0 0)
     nstep                     =           50


     celldm(1)=  12.162000  celldm(2)=   0.000000  celldm(3)=   0.000000
     celldm(4)=   0.692300  celldm(5)=   0.000000  celldm(6)=   0.000000

     crystal axes: (cart. coord. in units of alat)
               a(1) = (   0.392237  -0.226458   0.891553 )  
               a(2) = (   0.000000   0.452916   0.891553 )  
               a(3) = (  -0.392237  -0.226458   0.891553 )  

     reciprocal axes: (cart. coord. in units 2 pi/alat)
               b(1) = (  1.274739 -0.735971  0.373879 )  
               b(2) = (  0.000000  1.471942  0.373879 )  
               b(3) = ( -1.274739 -0.735971  0.373879 )  


     PseudoPot. # 1 for Ca read from file:
     ./Ca_PBE.UPF
     MD5 check sum: 403a4c14b9e4d4dfdc3024c9a3812218
     Pseudo is Ultrasoft + core correction, Zval = 10.0
     Generated by new atomic code, or converted to UPF format
     Using radial grid of  845 points,  6 beta functions with: 
                l(1) =   0
                l(2) =   0
                l(3) =   1
                l(4) =   1
                l(5) =   2
                l(6) =   2
     Q(r) pseudized with  8 coefficients,  rinner =    1.500   1.500   1.500
                                                       1.500   1.500

     PseudoPot. # 2 for C  read from file:
     ./C_PBE.UPF
     MD5 check sum: d1aef80898a10debaa0f26306b886e00
     Pseudo is Ultrasoft + core correction, Zval =  4.0
     Generated by new atomic code, or converted to UPF format
     Using radial grid of  721 points,  4 beta functions with: 
                l(1) =   0
                l(2) =   0
                l(3) =   1
                l(4) =   1
     Q(r) pseudized with  8 coefficients,  rinner =    1.100   1.100   1.100


     PseudoPot. # 3 for O  read from file:
     ./O_PBE.UPF
     MD5 check sum: 734c27235a0248c51dbae37a1fbe46ec
     Pseudo is Ultrasoft + core correction, Zval =  6.0
     Generated by new atomic code, or converted to UPF format
     Using radial grid of  737 points,  5 beta functions with: 
                l(1) =   0
                l(2) =   0
                l(3) =   1
                l(4) =   1
                l(5) =   2
     Q(r) pseudized with  8 coefficients,  rinner =    0.900   0.900   0.900
                                                       0.900   0.900

     atomic species   valence    mass     pseudopotential
        Ca            10.00    40.07800     Ca( 1.00)
        C              4.00    12.01070     C ( 1.00)
        O              6.00    16.00000     O ( 1.00)

     12 Sym. Ops., with inversion, found ( 6 have fractional translation)



   Cartesian axes

     site n.     atom                  positions (alat units)
         1           Ca  tau(   1) = (   0.0000000  -0.0000000   1.3373294  )
         2           Ca  tau(   2) = (   0.0000000   0.0000000   0.0000000  )
         3           C   tau(   3) = (   0.0000000  -0.0000000   0.6686647  )
         4           C   tau(   4) = (   0.0000000  -0.0000000   2.0059941  )
         5           O   tau(   5) = (   0.1007658   0.2783849   1.5602177  )
         6           O   tau(   6) = (   0.1907055  -0.2264582   1.5602177  )
         7           O   tau(   7) = (  -0.2914713  -0.0519267   1.5602177  )
         8           O   tau(   8) = (  -0.1907055   0.2264582   1.1144412  )
         9           O   tau(   9) = (   0.2914713   0.0519267   1.1144412  )
        10           O   tau(  10) = (  -0.1007658  -0.2783849   1.1144412  )

     number of k points=    85
                       cart. coord. in units 2pi/alat
        k(    1) = (   0.0000000   0.0000000   0.0000000), wk =   0.0027435
        k(    2) = (  -0.1416377  -0.0817745   0.0415422), wk =   0.0164609
        k(    3) = (  -0.2832753  -0.1635491   0.0830843), wk =   0.0164609
        k(    4) = (  -0.4249130  -0.2453236   0.1246265), wk =   0.0164609
        k(    5) = (  -0.5665506  -0.3270982   0.1661686), wk =   0.0164609
        k(    6) = (  -0.1416377   0.0817745   0.0830843), wk =   0.0164609
        k(    7) = (  -0.2832753   0.0000000   0.1246265), wk =   0.0329218
        k(    8) = (  -0.4249130  -0.0817745   0.1661686), wk =   0.0329218
        k(    9) = (  -0.5665506  -0.1635491   0.2077108), wk =   0.0329218
        k(   10) = (   0.5665506   0.4906472  -0.1246265), wk =   0.0329218
        k(   11) = (   0.4249130   0.4088727  -0.0830843), wk =   0.0329218
        k(   12) = (   0.2832753   0.3270982  -0.0415422), wk =   0.0329218
        k(   13) = (   0.1416377   0.2453236   0.0000000), wk =   0.0164609
        k(   14) = (  -0.2832753   0.1635491   0.1661686), wk =   0.0164609
        k(   15) = (  -0.4249130   0.0817745   0.2077108), wk =   0.0329218
        k(   16) = (  -0.5665506   0.0000000   0.2492530), wk =   0.0329218
        k(   17) = (   0.5665506   0.6541963  -0.0830843), wk =   0.0329218
        k(   18) = (   0.4249130   0.5724218  -0.0415422), wk =   0.0329218
        k(   19) = (   0.2832753   0.4906472   0.0000000), wk =   0.0164609
        k(   20) = (  -0.4249130   0.2453236   0.2492530), wk =   0.0164609
        k(   21) = (  -0.5665506   0.1635491   0.2907951), wk =   0.0329218
        k(   22) = (   0.5665506   0.8177454  -0.0415422), wk =   0.0329218
        k(   23) = (   0.4249130   0.7359709   0.0000000), wk =   0.0164609
        k(   24) = (  -0.5665506   0.3270982   0.3323373), wk =   0.0164609
        k(   25) = (   0.5665506   0.9812945   0.0000000), wk =   0.0164609
        k(   26) = (  -0.0000000   0.0000000   0.1246265), wk =   0.0054870
        k(   27) = (  -0.1416377  -0.0817745   0.1661686), wk =   0.0164609
        k(   28) = (  -0.2832753  -0.1635491   0.2077108), wk =   0.0164609
        k(   29) = (  -0.4249130  -0.2453236   0.2492530), wk =   0.0164609
        k(   30) = (   0.7081883   0.4088727  -0.0830843), wk =   0.0164609
        k(   31) = (   0.5665506   0.3270982  -0.0415422), wk =   0.0164609
        k(   32) = (   0.4249130   0.2453236   0.0000000), wk =   0.0164609
        k(   33) = (   0.2832753   0.1635491   0.0415422), wk =   0.0164609
        k(   34) = (  -0.1416377   0.0817745   0.2077108), wk =   0.0164609
        k(   35) = (  -0.2832753   0.0000000   0.2492530), wk =   0.0329218
        k(   36) = (  -0.4249130  -0.0817745   0.2907951), wk =   0.0329218
        k(   37) = (   0.7081883   0.5724218  -0.0415422), wk =   0.0329218
        k(   38) = (   0.5665506   0.4906472   0.0000000), wk =   0.0329218
        k(   39) = (   0.4249130   0.4088727   0.0415422), wk =   0.0329218
        k(   40) = (   0.2832753   0.3270982   0.0830843), wk =   0.0329218
        k(   41) = (  -0.2832753   0.1635491   0.2907951), wk =   0.0164609
        k(   42) = (  -0.4249130   0.0817745   0.3323373), wk =   0.0329218
        k(   43) = (   0.7081883   0.7359709   0.0000000), wk =   0.0329218
        k(   44) = (   0.5665506   0.6541963   0.0415422), wk =   0.0329218
        k(   45) = (   0.4249130   0.5724218   0.0830843), wk =   0.0329218
        k(   46) = (   0.2832753   0.4906472   0.1246265), wk =   0.0329218
        k(   47) = (  -0.4249130   0.2453236   0.3738795), wk =   0.0164609
        k(   48) = (   0.7081883   0.8995200   0.0415422), wk =   0.0329218
        k(   49) = (   0.5665506   0.8177454   0.0830843), wk =   0.0329218
        k(   50) = (   0.4249130   0.7359709   0.1246265), wk =   0.0329218
        k(   51) = (   0.2832753   0.6541963   0.1661686), wk =   0.0329218
        k(   52) = (   0.7081883  -0.4088727  -0.2907951), wk =   0.0164609
        k(   53) = (   0.5665506  -0.4906472  -0.2492530), wk =   0.0329218
        k(   54) = (   0.4249130  -0.5724218  -0.2077108), wk =   0.0329218
        k(   55) = (   0.5665506  -0.3270982  -0.2077108), wk =   0.0164609
        k(   56) = (   0.4249130  -0.4088727  -0.1661686), wk =   0.0329218
        k(   57) = (   0.4249130  -0.2453236  -0.1246265), wk =   0.0164609
        k(   58) = (  -0.0000000   0.0000000   0.2492530), wk =   0.0054870
        k(   59) = (  -0.1416377  -0.0817745   0.2907951), wk =   0.0164609
        k(   60) = (  -0.2832753  -0.1635491   0.3323373), wk =   0.0164609
        k(   61) = (   0.8498260   0.4906472   0.0000000), wk =   0.0164609
        k(   62) = (   0.7081883   0.4088727   0.0415422), wk =   0.0164609
        k(   63) = (   0.5665506   0.3270982   0.0830843), wk =   0.0164609
        k(   64) = (  -0.1416377   0.0817745   0.3323373), wk =   0.0164609
        k(   65) = (  -0.2832753   0.0000000   0.3738795), wk =   0.0329218
        k(   66) = (   0.8498260   0.6541963   0.0415422), wk =   0.0329218
        k(   67) = (   0.7081883   0.5724218   0.0830843), wk =   0.0329218
        k(   68) = (   0.5665506   0.4906472   0.1246265), wk =   0.0329218
        k(   69) = (  -0.2832753   0.1635491   0.4154216), wk =   0.0164609
        k(   70) = (   0.8498260   0.8177454   0.0830843), wk =   0.0329218
        k(   71) = (   0.7081883   0.7359709   0.1246265), wk =   0.0329218
        k(   72) = (   0.5665506   0.6541963   0.1661686), wk =   0.0329218
        k(   73) = (   0.8498260  -0.4906472  -0.2492530), wk =   0.0164609
        k(   74) = (   0.7081883  -0.5724218  -0.2077108), wk =   0.0329218
        k(   75) = (   0.7081883  -0.4088727  -0.1661686), wk =   0.0164609
        k(   76) = (   0.0000000   0.0000000   0.3738795), wk =   0.0054870
        k(   77) = (  -0.1416377  -0.0817745   0.4154216), wk =   0.0164609
        k(   78) = (   0.9914636   0.5724218   0.0830843), wk =   0.0164609
        k(   79) = (   0.8498260   0.4906472   0.1246265), wk =   0.0164609
        k(   80) = (  -0.1416377   0.0817745   0.4569638), wk =   0.0164609
        k(   81) = (   0.9914636   0.7359709   0.1246265), wk =   0.0329218
        k(   82) = (   0.8498260   0.6541963   0.1661686), wk =   0.0329218
        k(   83) = (   0.9914636  -0.5724218  -0.2077108), wk =   0.0164609
        k(   84) = (  -0.0000000   0.0000000   0.4985059), wk =   0.0054870
        k(   85) = (   1.1331013   0.6541963   0.1661686), wk =   0.0164609

     Dense  grid:    40837 G-vectors     FFT dimensions: (  60,  60,  60)

     Estimated max dynamical RAM per process >      14.74 MB

     Estimated total dynamical RAM >       4.32 GB
     Message from routine sym_rho_init:
     some processors have no G-vectors for symmetrization
     Message from routine sym_rho_init:
     some processors have no G-vectors for symmetrization
     Message from routine sym_rho_init:
     some processors have no G-vectors for symmetrization
     Message from routine sym_rho_init:
     some processors have no G-vectors for symmetrization
     Message from routine sym_rho_init:
     some processors have no G-vectors for symmetrization
     Message from routine sym_rho_init:
     some processors have no G-vectors for symmetrization
     Message from routine sym_rho_init:
     some processors have no G-vectors for symmetrization
     Message from routine sym_rho_init:
     some processors have no G-vectors for symmetrization
     Message from routine sym_rho_init:
     some processors have no G-vectors for symmetrization
     Message from routine sym_rho_init:
     some processors have no G-vectors for symmetrization
     Message from routine sym_rho_init:
     some processors have no G-vectors for symmetrization
     Message from routine sym_rho_init:
     some processors have no G-vectors for symmetrization
     Message from routine sym_rho_init:
     some processors have no G-vectors for symmetrization
     Message from routine sym_rho_init:
     some processors have no G-vectors for symmetrization
     Message from routine sym_rho_init:
     some processors have no G-vectors for symmetrization
     Message from routine sym_rho_init:
     some processors have no G-vectors for symmetrization
     Message from routine sym_rho_init:
     some processors have no G-vectors for symmetrization
     Message from routine sym_rho_init:
     some processors have no G-vectors for symmetrization
     Message from routine sym_rho_init:
     some processors have no G-vectors for symmetrization
     Message from routine sym_rho_init:
     some processors have no G-vectors for symmetrization
     Message from routine sym_rho_init:
     some processors have no G-vectors for symmetrization
     Message from routine sym_rho_init:
     some processors have no G-vectors for symmetrization
     Message from routine sym_rho_init:
     some processors have no G-vectors for symmetrization
     Message from routine sym_rho_init:
     some processors have no G-vectors for symmetrization
     Message from routine sym_rho_init:
     some processors have no G-vectors for symmetrization
     Message from routine sym_rho_init:
     some processors have no G-vectors for symmetrization
     Message from routine sym_rho_init:
     some processors have no G-vectors for symmetrization
     Message from routine sym_rho_init:
     some processors have no G-vectors for symmetrization
     Message from routine sym_rho_init:
     some processors have no G-vectors for symmetrization
     Message from routine sym_rho_init:
     some processors have no G-vectors for symmetrization
     Message from routine sym_rho_init:
     some processors have no G-vectors for symmetrization
     Message from routine sym_rho_init:
     some processors have no G-vectors for symmetrization
     Message from routine sym_rho_init:
     some processors have no G-vectors for symmetrization
     Message from routine sym_rho_init:
     some processors have no G-vectors for symmetrization
     Message from routine sym_rho_init:
     some processors have no G-vectors for symmetrization
     Message from routine sym_rho_init:
     some processors have no G-vectors for symmetrization
     Message from routine sym_rho_init:
     some processors have no G-vectors for symmetrization
     Message from routine sym_rho_init:
     some processors have no G-vectors for symmetrization
     Message from routine sym_rho_init:
     some processors have no G-vectors for symmetrization
     Message from routine sym_rho_init:
     some processors have no G-vectors for symmetrization
     Message from routine sym_rho_init:
     some processors have no G-vectors for symmetrization
     Message from routine sym_rho_init:
     some processors have no G-vectors for symmetrization
     Message from routine sym_rho_init:
     some processors have no G-vectors for symmetrization
     Message from routine sym_rho_init:
     some processors have no G-vectors for symmetrization
     Message from routine sym_rho_init:
     some processors have no G-vectors for symmetrization
     Message from routine sym_rho_init:
     some processors have no G-vectors for symmetrization
     Message from routine sym_rho_init:
     some processors have no G-vectors for symmetrization
     Message from routine sym_rho_init:
     some processors have no G-vectors for symmetrization
     Message from routine sym_rho_init:
     some processors have no G-vectors for symmetrization
     Message from routine sym_rho_init:
     some processors have no G-vectors for symmetrization
     Message from routine sym_rho_init:
     some processors have no G-vectors for symmetrization
     Message from routine sym_rho_init:
     some processors have no G-vectors for symmetrization
     Message from routine sym_rho_init:
     some processors have no G-vectors for symmetrization
     Message from routine sym_rho_init:
     some processors have no G-vectors for symmetrization
     Message from routine sym_rho_init:
     some processors have no G-vectors for symmetrization
     Message from routine sym_rho_init:
     some processors have no G-vectors for symmetrization
     Message from routine sym_rho_init:
     some processors have no G-vectors for symmetrization
     Message from routine sym_rho_init:
     some processors have no G-vectors for symmetrization
     Message from routine sym_rho_init:
     some processors have no G-vectors for symmetrization
     Message from routine sym_rho_init:
     some processors have no G-vectors for symmetrization
     Message from routine sym_rho_init:
     some processors have no G-vectors for symmetrization
     Message from routine sym_rho_init:
     some processors have no G-vectors for symmetrization
     Message from routine sym_rho_init:
     some processors have no G-vectors for symmetrization
     Message from routine sym_rho_init:
     some processors have no G-vectors for symmetrization
     Message from routine sym_rho_init:
     some processors have no G-vectors for symmetrization
     Message from routine sym_rho_init:
     some processors have no G-vectors for symmetrization
     Message from routine sym_rho_init:
     some processors have no G-vectors for symmetrization
     Message from routine sym_rho_init:
     some processors have no G-vectors for symmetrization
     Message from routine sym_rho_init:
     some processors have no G-vectors for symmetrization
     Message from routine sym_rho_init:
     some processors have no G-vectors for symmetrization
     Message from routine sym_rho_init:
     some processors have no G-vectors for symmetrization
     Message from routine sym_rho_init:
     some processors have no G-vectors for symmetrization
     Message from routine sym_rho_init:
     some processors have no G-vectors for symmetrization
     Message from routine sym_rho_init:
     some processors have no G-vectors for symmetrization
     Message from routine sym_rho_init:
     some processors have no G-vectors for symmetrization
     Message from routine sym_rho_init:
     some processors have no G-vectors for symmetrization
     Message from routine sym_rho_init:
     some processors have no G-vectors for symmetrization
     Message from routine sym_rho_init:
     some processors have no G-vectors for symmetrization
     Message from routine sym_rho_init:
     some processors have no G-vectors for symmetrization
     Message from routine sym_rho_init:
     some processors have no G-vectors for symmetrization
     Message from routine sym_rho_init:
     some processors have no G-vectors for symmetrization
     Message from routine sym_rho_init:
     some processors have no G-vectors for symmetrization
     Message from routine sym_rho_init:
     some processors have no G-vectors for symmetrization
     Message from routine sym_rho_init:
     some processors have no G-vectors for symmetrization
     Message from routine sym_rho_init:
     some processors have no G-vectors for symmetrization
     Message from routine sym_rho_init:
     some processors have no G-vectors for symmetrization
     Message from routine sym_rho_init:
     some processors have no G-vectors for symmetrization
     Message from routine sym_rho_init:
     some processors have no G-vectors for symmetrization
     Message from routine sym_rho_init:
     some processors have no G-vectors for symmetrization
     Message from routine sym_rho_init:
     some processors have no G-vectors for symmetrization
     Message from routine sym_rho_init:
     some processors have no G-vectors for symmetrization
     Message from routine sym_rho_init:
     some processors have no G-vectors for symmetrization
     Message from routine sym_rho_init:
     some processors have no G-vectors for symmetrization
     Message from routine sym_rho_init:
     some processors have no G-vectors for symmetrization
     Message from routine sym_rho_init:
     some processors have no G-vectors for symmetrization
     Message from routine sym_rho_init:
     some processors have no G-vectors for symmetrization
     Message from routine sym_rho_init:
     some processors have no G-vectors for symmetrization
     Message from routine sym_rho_init:
     some processors have no G-vectors for symmetrization
     Message from routine sym_rho_init:
     some processors have no G-vectors for symmetrization
     Message from routine sym_rho_init:
     some processors have no G-vectors for symmetrization
     Message from routine sym_rho_init:
     some processors have no G-vectors for symmetrization
     Message from routine sym_rho_init:
     some processors have no G-vectors for symmetrization
     Message from routine sym_rho_init:
     some processors have no G-vectors for symmetrization
     Message from routine sym_rho_init:
     some processors have no G-vectors for symmetrization
     Message from routine sym_rho_init:
     some processors have no G-vectors for symmetrization
     Message from routine sym_rho_init:
     some processors have no G-vectors for symmetrization
     Message from routine sym_rho_init:
     some processors have no G-vectors for symmetrization
     Message from routine sym_rho_init:
     some processors have no G-vectors for symmetrization
     Message from routine sym_rho_init:
     some processors have no G-vectors for symmetrization
     Message from routine sym_rho_init:
     some processors have no G-vectors for symmetrization
     Message from routine sym_rho_init:
     some processors have no G-vectors for symmetrization
     Message from routine sym_rho_init:
     some processors have no G-vectors for symmetrization
     Message from routine sym_rho_init:
     some processors have no G-vectors for symmetrization
     Message from routine sym_rho_init:
     some processors have no G-vectors for symmetrization
     Message from routine sym_rho_init:
     some processors have no G-vectors for symmetrization
     Message from routine sym_rho_init:
     some processors have no G-vectors for symmetrization
     Message from routine sym_rho_init:
     some processors have no G-vectors for symmetrization
     Message from routine sym_rho_init:
     some processors have no G-vectors for symmetrization
     Message from routine sym_rho_init:
     some processors have no G-vectors for symmetrization
     Message from routine sym_rho_init:
     some processors have no G-vectors for symmetrization
     Message from routine sym_rho_init:
     some processors have no G-vectors for symmetrization
     Message from routine sym_rho_init:
     some processors have no G-vectors for symmetrization
     Message from routine sym_rho_init:
     some processors have no G-vectors for symmetrization
     Message from routine sym_rho_init:
     some processors have no G-vectors for symmetrization
     Message from routine sym_rho_init:
     some processors have no G-vectors for symmetrization
     Message from routine sym_rho_init:
     some processors have no G-vectors for symmetrization
     Message from routine sym_rho_init:
     some processors have no G-vectors for symmetrization
     Message from routine sym_rho_init:
     some processors have no G-vectors for symmetrization
     Message from routine sym_rho_init:
     some processors have no G-vectors for symmetrization
     Message from routine sym_rho_init:
     some processors have no G-vectors for symmetrization
     Message from routine sym_rho_init:
     some processors have no G-vectors for symmetrization
     Message from routine sym_rho_init:
     some processors have no G-vectors for symmetrization
     Message from routine sym_rho_init:
     some processors have no G-vectors for symmetrization
     Message from routine sym_rho_init:
     some processors have no G-vectors for symmetrization
     Message from routine sym_rho_init:
     some processors have no G-vectors for symmetrization
     Message from routine sym_rho_init:
     some processors have no G-vectors for symmetrization
     Message from routine sym_rho_init:
     some processors have no G-vectors for symmetrization
     Message from routine sym_rho_init:
     some processors have no G-vectors for symmetrization
     Message from routine sym_rho_init:
     some processors have no G-vectors for symmetrization
     Message from routine sym_rho_init:
     some processors have no G-vectors for symmetrization
     Message from routine sym_rho_init:
     some processors have no G-vectors for symmetrization
     Message from routine sym_rho_init:
     some processors have no G-vectors for symmetrization
     Message from routine sym_rho_init:
     some processors have no G-vectors for symmetrization
     Message from routine sym_rho_init:
     some processors have no G-vectors for symmetrization
     Message from routine sym_rho_init:
     some processors have no G-vectors for symmetrization
     Message from routine sym_rho_init:
     some processors have no G-vectors for symmetrization
     Message from routine sym_rho_init:
     some processors have no G-vectors for symmetrization
     Message from routine sym_rho_init:
     some processors have no G-vectors for symmetrization
     Message from routine sym_rho_init:
     some processors have no G-vectors for symmetrization
     Message from routine sym_rho_init:
     some processors have no G-vectors for symmetrization
     Message from routine sym_rho_init:
     some processors have no G-vectors for symmetrization
     Message from routine sym_rho_init:
     some processors have no G-vectors for symmetrization
     Message from routine sym_rho_init:
     some processors have no G-vectors for symmetrization
     Message from routine sym_rho_init:
     some processors have no G-vectors for symmetrization
     Message from routine sym_rho_init:
     some processors have no G-vectors for symmetrization
     Message from routine sym_rho_init:
     some processors have no G-vectors for symmetrization
     Message from routine sym_rho_init:
     some processors have no G-vectors for symmetrization
     Message from routine sym_rho_init:
     some processors have no G-vectors for symmetrization
     Message from routine sym_rho_init:
     some processors have no G-vectors for symmetrization
     Message from routine sym_rho_init:
     some processors have no G-vectors for symmetrization
     Message from routine sym_rho_init:
     some processors have no G-vectors for symmetrization
     Message from routine sym_rho_init:
     some processors have no G-vectors for symmetrization
     Message from routine sym_rho_init:
     some processors have no G-vectors for symmetrization
     Message from routine sym_rho_init:
     some processors have no G-vectors for symmetrization
     Message from routine sym_rho_init:
     some processors have no G-vectors for symmetrization
     Message from routine sym_rho_init:
     some processors have no G-vectors for symmetrization
     Message from routine sym_rho_init:
     some processors have no G-vectors for symmetrization
     Message from routine sym_rho_init:
     some processors have no G-vectors for symmetrization
     Message from routine sym_rho_init:
     some processors have no G-vectors for symmetrization
     Message from routine sym_rho_init:
     some processors have no G-vectors for symmetrization
     Message from routine sym_rho_init:
     some processors have no G-vectors for symmetrization
     Message from routine sym_rho_init:
     some processors have no G-vectors for symmetrization
     Message from routine sym_rho_init:
     some processors have no G-vectors for symmetrization
     Message from routine sym_rho_init:
     some processors have no G-vectors for symmetrization
     Message from routine sym_rho_init:
     some processors have no G-vectors for symmetrization
     Message from routine sym_rho_init:
     some processors have no G-vectors for symmetrization
     Message from routine sym_rho_init:
     some processors have no G-vectors for symmetrization
     Message from routine sym_rho_init:
     some processors have no G-vectors for symmetrization
     Message from routine sym_rho_init:
     some processors have no G-vectors for symmetrization
     Message from routine sym_rho_init:
     some processors have no G-vectors for symmetrization
     Message from routine sym_rho_init:
     some processors have no G-vectors for symmetrization
     Message from routine sym_rho_init:
     some processors have no G-vectors for symmetrization
     Message from routine sym_rho_init:
     some processors have no G-vectors for symmetrization
     Message from routine sym_rho_init:
     some processors have no G-vectors for symmetrization
     Message from routine sym_rho_init:
     some processors have no G-vectors for symmetrization
     Message from routine sym_rho_init:
     some processors have no G-vectors for symmetrization
     Message from routine sym_rho_init:
     some processors have no G-vectors for symmetrization
     Message from routine sym_rho_init:
     some processors have no G-vectors for symmetrization
     Message from routine sym_rho_init:
     some processors have no G-vectors for symmetrization
     Message from routine sym_rho_init:
     some processors have no G-vectors for symmetrization
     Message from routine sym_rho_init:
     some processors have no G-vectors for symmetrization
     Message from routine sym_rho_init:
     some processors have no G-vectors for symmetrization
     Message from routine sym_rho_init:
     some processors have no G-vectors for symmetrization
     Message from routine sym_rho_init:
     some processors have no G-vectors for symmetrization

     Check: negative core charge=   -0.000003

     Initial potential from superposition of free atoms

     starting charge   63.98899, renormalised to   64.00000
     Starting wfcs are   52 randomized atomic wfcs

     total cpu time spent up to now is       19.5 secs

     Self-consistent Calculation

     iteration #  1     ecut=    50.00 Ry     beta= 0.70
     CG style diagonalization
     ethr =  1.00E-02,  avg # of iterations =  2.7

     total cpu time spent up to now is       44.6 secs

     total energy              =    -366.66970088 Ry
     Harris-Foulkes estimate   =    -367.89243983 Ry
     estimated scf accuracy    <       1.75314765 Ry

     iteration #  2     ecut=    50.00 Ry     beta= 0.70
     CG style diagonalization
     ethr =  2.74E-03,  avg # of iterations =  4.4

     total cpu time spent up to now is       88.4 secs

     total energy              =    -367.10083508 Ry
     Harris-Foulkes estimate   =    -367.91429462 Ry
     estimated scf accuracy    <       1.67310194 Ry

     iteration #  3     ecut=    50.00 Ry     beta= 0.70
     CG style diagonalization
     ethr =  2.61E-03,  avg # of iterations =  3.8

     total cpu time spent up to now is      126.6 secs

     total energy              =    -367.41847038 Ry
     Harris-Foulkes estimate   =    -367.42045333 Ry
     estimated scf accuracy    <       0.01099333 Ry

     iteration #  4     ecut=    50.00 Ry     beta= 0.70
     CG style diagonalization
     ethr =  1.72E-05,  avg # of iterations =  4.4

     total cpu time spent up to now is      170.6 secs

     total energy              =    -367.42990687 Ry
     Harris-Foulkes estimate   =    -367.43092072 Ry
     estimated scf accuracy    <       0.00273632 Ry

     iteration #  5     ecut=    50.00 Ry     beta= 0.70
     CG style diagonalization
     ethr =  4.28E-06,  avg # of iterations =  3.6

     total cpu time spent up to now is      207.1 secs

     total energy              =    -367.43031330 Ry
     Harris-Foulkes estimate   =    -367.43034598 Ry
     estimated scf accuracy    <       0.00014909 Ry

     iteration #  6     ecut=    50.00 Ry     beta= 0.70
     CG style diagonalization
     ethr =  2.33E-07,  avg # of iterations =  4.1

     total cpu time spent up to now is      248.6 secs

     total energy              =    -367.43035197 Ry
     Harris-Foulkes estimate   =    -367.43036537 Ry
     estimated scf accuracy    <       0.00002291 Ry

     iteration #  7     ecut=    50.00 Ry     beta= 0.70
     CG style diagonalization
     ethr =  3.58E-08,  avg # of iterations =  4.1

     total cpu time spent up to now is      289.9 secs

     End of self-consistent calculation

          k = 0.0000 0.0000 0.0000 (  5161 PWs)   bands (ev):

   -33.6976 -33.6850 -17.0822 -17.0727 -15.1283 -15.1283 -14.7631 -14.7631
   -14.6701 -14.5621 -13.9055 -13.9055 -13.3741 -13.3741  -3.3138  -3.0409
    -1.6909  -1.5331  -1.5331  -1.2742  -1.2742  -0.4012   2.3558   2.3558
     2.7873   2.7873   2.9598   2.9598   3.5745   3.5745   3.7751   4.2021

          k =-0.1416-0.0818 0.0415 (  5129 PWs)   bands (ev):

   -33.6971 -33.6853 -17.0825 -17.0688 -15.1276 -15.0894 -14.8026 -14.7610
   -14.6852 -14.6286 -13.8792 -13.8046 -13.4238 -13.3832  -3.2638  -3.0479
    -1.6454  -1.5138  -1.4937  -1.2964  -1.2669  -0.4544   2.3805   2.4120
     2.7318   2.7730   2.8656   2.9119   3.4948   3.5131   3.8876   4.2063

          k =-0.2833-0.1635 0.0831 (  5104 PWs)   bands (ev):

   -33.6959 -33.6863 -17.0992 -17.0405 -15.1259 -15.0191 -14.9267 -14.7714
   -14.6942 -14.6712 -13.8131 -13.6455 -13.5367 -13.4111  -3.1442  -3.0500
    -1.5595  -1.4605  -1.3829  -1.3203  -1.2617  -0.5780   2.4207   2.4991
     2.6139   2.6436   2.7769   2.7846   3.3471   3.3783   4.0911   4.2179

          k =-0.4249-0.2453 0.1246 (  5093 PWs)   bands (ev):

   -33.6941 -33.6878 -17.1003 -17.0258 -15.1160 -15.0096 -14.9930 -14.8381
   -14.6720 -14.6543 -13.7326 -13.6159 -13.5566 -13.4607  -3.0238  -3.0216
    -1.5391  -1.4149  -1.2762  -1.2711  -1.2046  -0.7082   2.2859   2.3612
     2.5705   2.5938   2.7211   2.8263   3.1992   3.2326   4.2433   4.2582

          k =-0.5666-0.3271 0.1662 (  5095 PWs)   bands (ev):

   -33.6919 -33.6898 -17.0768 -17.0426 -15.0579 -15.0207 -15.0058 -14.9449
   -14.6588 -14.6431 -13.6431 -13.5988 -13.5556 -13.5401  -2.9755  -2.9630
    -1.5258  -1.4641  -1.2404  -1.2299  -1.0059  -0.8382   2.1510   2.2093
     2.5332   2.5620   2.8058   2.8574   3.1098   3.1241   4.2907   4.3197

          k =-0.1416 0.0818 0.0831 (  5123 PWs)   bands (ev):

   -33.6970 -33.6854 -17.0834 -17.0681 -15.1078 -15.1053 -14.7995 -14.7639
   -14.6799 -14.6456 -13.8425 -13.8259 -13.4107 -13.4038  -3.2614  -3.0548
    -1.6299  -1.5076  -1.4981  -1.3008  -1.2645  -0.4654   2.3811   2.4175
     2.7367   2.7399   2.8922   2.9182   3.4668   3.5298   3.8887   4.2003

          k =-0.2833 0.0000 0.1246 (  5100 PWs)   bands (ev):

   -33.6961 -33.6862 -17.0972 -17.0469 -15.1116 -15.0587 -14.8647 -14.7678
   -14.7094 -14.6749 -13.8041 -13.7070 -13.4886 -13.4182  -3.1747  -3.0627
    -1.5566  -1.4757  -1.4215  -1.3218  -1.2542  -0.5597   2.4116   2.4895
     2.6196   2.7087   2.7638   2.8630   3.3408   3.4428   4.0401   4.2053

          k =-0.4249-0.0818 0.1662 (  5089 PWs)   bands (ev):

   -33.6945 -33.6874 -17.1018 -17.0298 -15.1096 -15.0680 -14.9071 -14.8197
   -14.6778 -14.6737 -13.7318 -13.6938 -13.4993 -13.4558  -3.0613  -3.0389
    -1.5217  -1.4176  -1.3575  -1.2499  -1.2309  -0.6778   2.3463   2.4494
     2.5338   2.6098   2.7228   2.8207   3.1951   3.3137   4.2124   4.2333

          k =-0.5666-0.1635 0.2077 (  5101 PWs)   bands (ev):

   -33.6926 -33.6891 -17.0818 -17.0405 -15.0985 -15.0543 -14.9362 -14.9040
   -14.6631 -14.6521 -13.7047 -13.6477 -13.5223 -13.4797  -2.9863  -2.9789
    -1.5111  -1.4518  -1.2922  -1.2321  -1.0486  -0.7887   2.1971   2.2769
     2.5090   2.5463   2.7551   2.8395   3.1095   3.2024   4.2889   4.3087

          k = 0.5666 0.4906-0.1246 (  5117 PWs)   bands (ev):

   -33.6911 -33.6905 -17.0746 -17.0435 -15.0913 -15.0298 -14.9922 -14.9095
   -14.6650 -14.6412 -13.6976 -13.6177 -13.5469 -13.4821  -2.9788  -2.9281
    -1.5258  -1.4614  -1.2586  -1.2128  -0.9293  -0.8864   2.1305   2.1988
     2.4803   2.5413   2.7705   2.8356   3.1168   3.1520   4.3025   4.3521

          k = 0.4249 0.4089-0.0831 (  5098 PWs)   bands (ev):

   -33.6932 -33.6885 -17.1053 -17.0138 -15.1373 -15.0354 -14.9822 -14.8318
   -14.6839 -14.6293 -13.7565 -13.6241 -13.5342 -13.4510  -3.0161  -2.9453
    -1.5537  -1.3940  -1.2785  -1.2262  -1.1171  -0.7664   2.1516   2.3357
     2.4800   2.5739   2.6986   2.8693   3.1341   3.2150   4.2543   4.3463

          k = 0.2833 0.3271-0.0415 (  5089 PWs)   bands (ev):

   -33.6950 -33.6869 -17.1126 -17.0167 -15.1204 -15.0664 -14.9116 -14.7940
   -14.6992 -14.6666 -13.7495 -13.6842 -13.4976 -13.4495  -3.0493  -3.0430
    -1.5430  -1.4057  -1.3300  -1.2979  -1.2391  -0.6559   2.3341   2.4652
     2.5455   2.6360   2.6492   2.8291   3.2260   3.3317   4.2210   4.2308

          k = 0.1416 0.2453 0.0000 (  5105 PWs)   bands (ev):

   -33.6964 -33.6858 -17.0984 -17.0449 -15.1089 -15.0693 -14.8222 -14.8056
   -14.6988 -14.6813 -13.8098 -13.7178 -13.4774 -13.4147  -3.1743  -3.0538
    -1.5810  -1.4768  -1.4343  -1.3263  -1.2478  -0.5353   2.4110   2.4915
     2.6160   2.7433   2.7502   2.8197   3.3746   3.4461   4.0378   4.2145

          k =-0.2833 0.1635 0.1662 (  5096 PWs)   bands (ev):

   -33.6956 -33.6866 -17.1102 -17.0310 -15.0923 -15.0762 -14.8227 -14.8000
   -14.7405 -14.6886 -13.7433 -13.7101 -13.4835 -13.4563  -3.1202  -3.0848
    -1.4942  -1.4649  -1.4460  -1.2838  -1.2412  -0.6155   2.4248   2.4276
     2.6202   2.6386   2.7568   2.9071   3.2380   3.4400   4.1067   4.1895

          k =-0.4249 0.0818 0.2077 (  5104 PWs)   bands (ev):

   -33.6945 -33.6874 -17.1196 -17.0122 -15.1312 -15.0725 -14.8548 -14.7983
   -14.7046 -14.6884 -13.7610 -13.6858 -13.4941 -13.4456  -3.0805  -3.0241
    -1.5019  -1.4193  -1.3923  -1.2286  -1.1964  -0.7034   2.2863   2.4187
     2.5508   2.6385   2.7107   2.9014   3.1079   3.3654   4.1968   4.2428

          k =-0.5666 0.0000 0.2493 (  5104 PWs)   bands (ev):

   -33.6930 -33.6887 -17.1055 -17.0183 -15.1565 -15.0297 -14.9305 -14.8223
   -14.6855 -14.6563 -13.8025 -13.6078 -13.5498 -13.4189  -3.0242  -2.9526
    -1.5007  -1.4267  -1.3514  -1.2187  -1.0470  -0.7755   2.1621   2.3266
     2.5033   2.5567   2.6978   2.8400   3.0853   3.2774   4.2534   4.3443

          k = 0.5666 0.6542-0.0831 (  5103 PWs)   bands (ev):

   -33.6913 -33.6903 -17.0659 -17.0541 -15.1276 -15.0295 -14.9564 -14.8632
   -14.6814 -14.6585 -13.7578 -13.6464 -13.5165 -13.4362  -2.9447  -2.9406
    -1.5029  -1.4553  -1.3189  -1.2062  -0.9049  -0.8568   2.1467   2.1869
     2.4608   2.4988   2.7043   2.7588   3.1399   3.2205   4.3457   4.3540

          k = 0.4249 0.5724-0.0415 (  5104 PWs)   bands (ev):

   -33.6920 -33.6896 -17.0951 -17.0213 -15.1471 -15.0468 -14.9873 -14.7899
   -14.6993 -14.6344 -13.7967 -13.6395 -13.5209 -13.4150  -2.9868  -2.8961
    -1.5542  -1.3829  -1.3083  -1.2091  -0.9939  -0.8093   2.1023   2.2675
     2.4184   2.5033   2.6828   2.7864   3.1813   3.1988   4.2973   4.4040

          k = 0.2833 0.4906 0.0000 (  5109 PWs)   bands (ev):

   -33.6937 -33.6881 -17.1164 -17.0022 -15.1682 -15.0432 -14.9720 -14.7540
   -14.7142 -14.6257 -13.8127 -13.6388 -13.5218 -13.4142  -3.0319  -2.9372
    -1.5574  -1.3632  -1.2949  -1.2287  -1.1648  -0.7408   2.1636   2.4365
     2.4449   2.5303   2.6469   2.8579   3.1581   3.2601   4.2443   4.3605

          k =-0.4249 0.2453 0.2493 (  5102 PWs)   bands (ev):

   -33.6941 -33.6878 -17.1396 -16.9858 -15.1548 -15.1283 -14.8000 -14.7422
   -14.7200 -14.6919 -13.7972 -13.7382 -13.4583 -13.4183  -3.1131  -2.9395
    -1.5384  -1.3904  -1.3476  -1.2136  -1.1219  -0.7666   2.1477   2.3796
     2.4974   2.7074   2.7145   2.9625   2.9909   3.3501   4.1621   4.3281

          k =-0.5666 0.1635 0.2908 (  5108 PWs)   bands (ev):

   -33.6932 -33.6885 -17.1391 -16.9803 -15.1925 -15.1226 -14.8179 -14.7569
   -14.6977 -14.6454 -13.8722 -13.7167 -13.4621 -13.3812  -3.0928  -2.8724
    -1.5468  -1.4005  -1.3111  -1.2016  -1.0226  -0.8092   2.0415   2.3051
     2.4811   2.6793   2.7081   2.8073   3.0762   3.2969   4.1802   4.4107

          k = 0.5666 0.8177-0.0415 (  5111 PWs)   bands (ev):

   -33.6920 -33.6896 -17.1085 -17.0113 -15.1705 -15.0679 -14.8740 -14.8082
   -14.7095 -14.6546 -13.8343 -13.6683 -13.4902 -13.3960  -3.0136  -2.8709
    -1.4996  -1.4576  -1.3293  -1.1963  -0.9166  -0.8262   2.0357   2.2240
     2.4824   2.5705   2.6757   2.6973   3.1509   3.2518   4.2696   4.4274

          k = 0.4249 0.7360 0.0000 (  5097 PWs)   bands (ev):

   -33.6908 -33.6908 -17.0598 -17.0595 -15.1159 -15.0810 -14.9161 -14.8271
   -14.7178 -14.6599 -13.7324 -13.7257 -13.4525 -13.4493  -2.9258  -2.9253
    -1.5218  -1.4117  -1.3542  -1.1981  -0.8870  -0.8409   2.1329   2.1445
     2.4613   2.4791   2.6616   2.6984   3.1836   3.2272   4.3703   4.3739

          k =-0.5666 0.3271 0.3323 (  5094 PWs)   bands (ev):

   -33.6930 -33.6886 -17.1583 -16.9543 -15.2079 -15.2013 -14.7488 -14.7276
   -14.6964 -14.5925 -13.9218 -13.8216 -13.3986 -13.3584  -3.1295  -2.8047
    -1.5868  -1.3775  -1.2643  -1.1893  -0.9857  -0.8517   1.9453   2.2569
     2.4983   2.7271   2.7345   2.7417   3.1093   3.2746   4.1315   4.4683

          k = 0.5666 0.9813 0.0000 (  5100 PWs)   bands (ev):

   -33.6926 -33.6890 -17.1468 -16.9673 -15.2008 -15.1748 -14.7729 -14.7216
   -14.7187 -14.6186 -13.9120 -13.7773 -13.4181 -13.3619  -3.0972  -2.8055
    -1.5677  -1.4046  -1.2781  -1.1877  -0.9477  -0.8426   1.9437   2.2334
     2.5063   2.6673   2.7007   2.7097   3.1468   3.2540   4.1698   4.4764

          k =-0.0000 0.0000 0.1246 (  5158 PWs)   bands (ev):

   -33.6972 -33.6854 -17.0823 -17.0733 -15.1205 -15.1205 -14.7804 -14.7804
   -14.6664 -14.5649 -13.8832 -13.8832 -13.3870 -13.3870  -3.3111  -3.0583
    -1.6452  -1.5253  -1.5253  -1.2820  -1.2820  -0.4361   2.3690   2.3690
     2.7716   2.7716   2.9789   2.9789   3.5528   3.5528   3.7862   4.1856

          k =-0.1416-0.0818 0.1662 (  5129 PWs)   bands (ev):

   -33.6965 -33.6859 -17.0813 -17.0708 -15.1313 -15.0625 -14.8623 -14.7541
   -14.6822 -14.6118 -13.8761 -13.7592 -13.4579 -13.3868  -3.2629  -3.0686
    -1.5890  -1.5058  -1.4662  -1.3017  -1.2845  -0.5052   2.3970   2.4257
     2.7088   2.7582   2.8719   2.9626   3.4565   3.4849   3.8980   4.1848

          k =-0.2833-0.1635 0.2077 (  5102 PWs)   bands (ev):

   -33.6951 -33.6870 -17.0891 -17.0523 -15.1279 -14.9849 -14.9831 -14.7520
   -14.7075 -14.6452 -13.8147 -13.6161 -13.5714 -13.4103  -3.1582  -3.0522
    -1.5267  -1.4582  -1.3483  -1.2926  -1.2875  -0.6253   2.4074   2.5274
     2.6045   2.6337   2.7457   2.8699   3.2983   3.3457   4.0868   4.2108

          k =-0.4249-0.2453 0.2493 (  5105 PWs)   bands (ev):

   -33.6933 -33.6886 -17.0766 -17.0527 -15.0986 -15.0476 -14.9577 -14.8488
   -14.6751 -14.6482 -13.7265 -13.6264 -13.5622 -13.4545  -3.0625  -2.9913
    -1.4966  -1.4550  -1.3109  -1.2664  -1.1192  -0.7438   2.3008   2.3436
     2.5488   2.5890   2.7605   2.8542   3.1466   3.2100   4.2260   4.2682

          k = 0.7082 0.4089-0.0831 (  5114 PWs)   bands (ev):

   -33.6912 -33.6905 -17.0784 -17.0421 -15.0933 -15.0274 -14.9767 -14.9182
   -14.6709 -14.6335 -13.6750 -13.6345 -13.5504 -13.4876  -3.0201  -2.9199
    -1.5258  -1.4579  -1.2772  -1.2082  -0.9481  -0.8755   2.1299   2.2205
     2.4988   2.5969   2.7755   2.9201   3.0460   3.1430   4.2651   4.3432

          k = 0.5666 0.3271-0.0415 (  5105 PWs)   bands (ev):

   -33.6926 -33.6891 -17.1088 -17.0080 -15.1232 -15.0786 -14.9410 -14.8654
   -14.6846 -14.6170 -13.7406 -13.6276 -13.5282 -13.4650  -3.0300  -2.9063
    -1.5693  -1.3899  -1.2775  -1.1971  -1.0543  -0.8155   2.0760   2.2788
     2.4713   2.6288   2.7220   2.9494   3.0457   3.1836   4.2379   4.3727

          k = 0.4249 0.2453 0.0000 (  5088 PWs)   bands (ev):

   -33.6945 -33.6874 -17.1200 -17.0039 -15.1380 -15.0551 -14.9399 -14.7941
   -14.6985 -14.6500 -13.7722 -13.6059 -13.5600 -13.4373  -3.0546  -2.9871
    -1.5533  -1.3929  -1.2857  -1.2568  -1.2281  -0.7026   2.2246   2.4086
     2.5451   2.6383   2.6458   2.8926   3.1498   3.2995   4.2151   4.2882

          k = 0.2833 0.1635 0.0415 (  5095 PWs)   bands (ev):

   -33.6961 -33.6861 -17.1065 -17.0331 -15.1088 -15.0572 -14.8627 -14.7894
   -14.7044 -14.6941 -13.7877 -13.6780 -13.5059 -13.4266  -3.1308  -3.0613
    -1.5488  -1.4572  -1.4324  -1.3076  -1.2443  -0.5752   2.4277   2.4590
     2.6299   2.6384   2.7378   2.8420   3.3097   3.4281   4.0977   4.2106

          k =-0.1416 0.0818 0.2077 (  5111 PWs)   bands (ev):

   -33.6962 -33.6863 -17.0840 -17.0689 -15.1090 -15.0730 -14.8572 -14.7712
   -14.6690 -14.6424 -13.8183 -13.7769 -13.4471 -13.4192  -3.2556  -3.0867
    -1.5511  -1.4881  -1.4746  -1.3138  -1.2779  -0.5372   2.4002   2.4410
     2.6905   2.7232   2.9121   2.9880   3.4039   3.5037   3.9035   4.1683

          k =-0.2833 0.0000 0.2493 (  5097 PWs)   bands (ev):

   -33.6952 -33.6871 -17.0935 -17.0526 -15.1117 -15.0383 -14.9086 -14.7453
   -14.7255 -14.6596 -13.7861 -13.6807 -13.5156 -13.4313  -3.1747  -3.0856
    -1.4986  -1.4678  -1.3974  -1.2935  -1.2709  -0.6317   2.4157   2.4875
     2.6179   2.6654   2.7993   2.9432   3.2638   3.4148   4.0477   4.1805

          k =-0.4249-0.0818 0.2908 (  5102 PWs)   bands (ev):

   -33.6936 -33.6883 -17.0872 -17.0478 -15.0902 -15.0833 -14.9005 -14.8142
   -14.7012 -14.6607 -13.7338 -13.6808 -13.5161 -13.4522  -3.0806  -3.0332
    -1.4746  -1.4333  -1.3847  -1.2609  -1.1404  -0.7315   2.3371   2.4067
     2.5730   2.5995   2.7265   2.8953   3.1224   3.2876   4.1985   4.2353

          k = 0.7082 0.5724-0.0415 (  5106 PWs)   bands (ev):

   -33.6918 -33.6899 -17.0695 -17.0557 -15.1144 -15.0285 -14.9569 -14.8661
   -14.6798 -14.6534 -13.7380 -13.6082 -13.5667 -13.4476  -3.0268  -2.9427
    -1.5034  -1.4410  -1.3335  -1.2217  -0.9764  -0.8271   2.1827   2.2548
     2.5014   2.5823   2.7332   2.8811   3.0701   3.1929   4.2687   4.3248

          k = 0.5666 0.4906 0.0000 (  5101 PWs)   bands (ev):

   -33.6917 -33.6899 -17.1034 -17.0139 -15.1402 -15.0675 -14.9556 -14.8245
   -14.6908 -14.6248 -13.7792 -13.6303 -13.5336 -13.4275  -3.0259  -2.8800
    -1.5649  -1.3804  -1.3097  -1.1949  -0.9607  -0.8534   2.0597   2.2480
     2.4366   2.6028   2.7191   2.8674   3.0971   3.1795   4.2543   4.3995

          k = 0.4249 0.4089 0.0415 (  5099 PWs)   bands (ev):

   -33.6935 -33.6882 -17.1240 -16.9931 -15.1730 -15.0658 -14.9462 -14.7650
   -14.7085 -14.6180 -13.8250 -13.6119 -13.5470 -13.4071  -3.0499  -2.9099
    -1.5688  -1.3613  -1.2806  -1.2292  -1.1274  -0.7647   2.1007   2.3824
     2.4319   2.6140   2.6677   2.9029   3.1012   3.2560   4.2212   4.3787

          k = 0.2833 0.3271 0.0831 (  5099 PWs)   bands (ev):

   -33.6950 -33.6869 -17.1188 -17.0106 -15.1240 -15.0760 -14.8904 -14.7785
   -14.7104 -14.6764 -13.7609 -13.6793 -13.4998 -13.4429  -3.0637  -3.0304
    -1.5330  -1.3997  -1.3778  -1.2613  -1.2292  -0.6653   2.3089   2.4524
     2.5751   2.5941   2.6744   2.8627   3.1853   3.3591   4.2117   4.2376

          k =-0.2833 0.1635 0.2908 (  5101 PWs)   bands (ev):

   -33.6946 -33.6875 -17.1095 -17.0341 -15.1182 -15.0314 -14.8737 -14.7808
   -14.7411 -14.6716 -13.7373 -13.6895 -13.4974 -13.4699  -3.1146  -3.1121
    -1.4800  -1.4282  -1.4201  -1.2555  -1.2341  -0.6949   2.4080   2.4197
     2.6136   2.6373   2.8015   2.9795   3.1441   3.4110   4.1190   4.1603

          k =-0.4249 0.0818 0.3323 (  5109 PWs)   bands (ev):

   -33.6936 -33.6883 -17.1144 -17.0209 -15.1386 -15.0547 -14.8458 -14.8006
   -14.7291 -14.6738 -13.7550 -13.6933 -13.4854 -13.4563  -3.0955  -3.0233
    -1.4855  -1.4188  -1.3803  -1.2430  -1.1161  -0.7664   2.2746   2.3799
     2.5625   2.6646   2.7464   2.9244   3.0458   3.3360   4.1838   4.2440

          k = 0.7082 0.7360 0.0000 (  5117 PWs)   bands (ev):

   -33.6923 -33.6895 -17.0924 -17.0357 -15.1366 -15.0388 -14.8873 -14.8374
   -14.6983 -14.6866 -13.7765 -13.6337 -13.5280 -13.4323  -3.0146  -2.9684
    -1.4602  -1.4548  -1.3681  -1.2257  -0.9746  -0.8126   2.1677   2.2657
     2.5355   2.5910   2.7079   2.8037   3.0828   3.2534   4.2664   4.3266

          k = 0.5666 0.6542 0.0415 (  5091 PWs)   bands (ev):

   -33.6908 -33.6908 -17.0725 -17.0492 -15.1226 -15.0466 -14.9484 -14.8141
   -14.7094 -14.6718 -13.7637 -13.6558 -13.5106 -13.4287  -2.9698  -2.9164
    -1.5255  -1.3982  -1.3564  -1.2109  -0.8785  -0.8623   2.1215   2.1696
     2.4692   2.5458   2.6839   2.7434   3.1466   3.2126   4.3265   4.3728

          k = 0.4249 0.5724 0.0831 (  5097 PWs)   bands (ev):

   -33.6922 -33.6894 -17.1048 -17.0116 -15.1664 -15.0433 -14.9803 -14.7520
   -14.7156 -14.6352 -13.8325 -13.6198 -13.5371 -13.3949  -3.0033  -2.8794
    -1.5574  -1.3775  -1.2998  -1.2244  -0.9880  -0.8039   2.0708   2.2722
     2.4158   2.5330   2.6694   2.7805   3.1666   3.2223   4.2797   4.4209

          k = 0.2833 0.4906 0.1246 (  5101 PWs)   bands (ev):

   -33.6935 -33.6882 -17.1136 -17.0065 -15.1659 -15.0376 -14.9611 -14.7841
   -14.6955 -14.6338 -13.8118 -13.6265 -13.5325 -13.4145  -3.0300  -2.9413
    -1.5419  -1.3876  -1.3102  -1.2316  -1.1200  -0.7500   2.1626   2.3893
     2.4766   2.5340   2.6669   2.8537   3.1294   3.2722   4.2464   4.3563

          k =-0.4249 0.2453 0.3739 (  5104 PWs)   bands (ev):

   -33.6932 -33.6886 -17.1368 -16.9916 -15.1792 -15.0997 -14.7812 -14.7600
   -14.7442 -14.6576 -13.7905 -13.7725 -13.4350 -13.4263  -3.1297  -2.9324
    -1.5405  -1.3867  -1.3200  -1.2290  -1.0545  -0.8209   2.1412   2.3376
     2.5467   2.7188   2.7450   2.8687   3.0280   3.3203   4.1502   4.3325

          k = 0.7082 0.8995 0.0415 (  5115 PWs)   bands (ev):

   -33.6926 -33.6891 -17.1334 -16.9893 -15.1790 -15.1255 -14.7952 -14.7463
   -14.7157 -14.6738 -13.8341 -13.7565 -13.4341 -13.4017  -3.0960  -2.8736
    -1.5440  -1.4034  -1.2990  -1.2201  -0.9695  -0.8384   2.0458   2.2704
     2.5326   2.6917   2.7072   2.7547   3.0909   3.2691   4.1827   4.4055

          k = 0.5666 0.8177 0.0831 (  5108 PWs)   bands (ev):

   -33.6917 -33.6899 -17.1015 -17.0202 -15.1473 -15.0835 -14.8480 -14.8159
   -14.7183 -14.6804 -13.7995 -13.6939 -13.4707 -13.4143  -3.0062  -2.8794
    -1.5013  -1.4581  -1.3143  -1.2175  -0.8935  -0.8343   2.0458   2.1982
     2.5106   2.5766   2.6628   2.6874   3.1608   3.2321   4.2808   4.4164

          k = 0.4249 0.7360 0.1246 (  5105 PWs)   bands (ev):

   -33.6908 -33.6908 -17.0597 -17.0596 -15.1087 -15.0916 -14.8956 -14.8530
   -14.6981 -14.6708 -13.7307 -13.7274 -13.4516 -13.4500  -2.9257  -2.9254
    -1.5053  -1.4594  -1.2965  -1.2280  -0.8736  -0.8509   2.1357   2.1415
     2.4659   2.4748   2.6701   2.6885   3.1951   3.2169   4.3711   4.3730

          k = 0.2833 0.6542 0.1662 (  5108 PWs)   bands (ev):

   -33.6917 -33.6899 -17.0817 -17.0362 -15.1313 -15.0513 -14.9554 -14.8531
   -14.6759 -14.6469 -13.7632 -13.6563 -13.5061 -13.4360  -2.9651  -2.9190
    -1.5191  -1.4518  -1.2625  -1.2375  -0.9540  -0.8305   2.1303   2.2343
     2.4509   2.4753   2.7040   2.7685   3.1640   3.2085   4.3198   4.3807

          k = 0.7082-0.4089-0.2908 (  5100 PWs)   bands (ev):

   -33.6926 -33.6890 -17.1532 -16.9614 -15.2100 -15.1840 -14.7488 -14.7274
   -14.7190 -14.5938 -13.8928 -13.8331 -13.3919 -13.3721  -3.1282  -2.8080
    -1.5875  -1.3748  -1.2472  -1.2144  -0.9611  -0.8643   1.9555   2.2472
     2.5226   2.6770   2.7381   2.7710   3.1119   3.2496   4.1384   4.4615

          k = 0.5666-0.4906-0.2493 (  5101 PWs)   bands (ev):

   -33.6925 -33.6891 -17.1416 -16.9730 -15.1945 -15.1618 -14.8082 -14.7272
   -14.7110 -14.6206 -13.8960 -13.7558 -13.4331 -13.3681  -3.0886  -2.8145
    -1.5732  -1.3928  -1.2604  -1.2156  -0.9526  -0.8395   1.9580   2.2424
     2.4760   2.6720   2.6948   2.7468   3.1397   3.2391   4.1810   4.4668

          k = 0.4249-0.5724-0.2077 (  5111 PWs)   bands (ev):

   -33.6922 -33.6894 -17.1095 -17.0082 -15.1763 -15.0552 -14.9317 -14.7793
   -14.6976 -14.6442 -13.8478 -13.6355 -13.5202 -13.3880  -3.0125  -2.8707
    -1.5325  -1.4277  -1.2873  -1.2264  -0.9511  -0.8133   2.0457   2.2523
     2.4427   2.5561   2.6687   2.7449   3.1552   3.2448   4.2695   4.4290

          k = 0.5666-0.3271-0.2077 (  5093 PWs)   bands (ev):

   -33.6931 -33.6885 -17.1518 -16.9605 -15.1970 -15.1842 -14.7899 -14.7238
   -14.7229 -14.5899 -13.8985 -13.7743 -13.4247 -13.3700  -3.1118  -2.8217
    -1.5895  -1.3648  -1.2494  -1.2185  -1.0189  -0.8306   1.9645   2.2917
     2.4439   2.7031   2.7236   2.8380   3.0839   3.2653   4.1499   4.4533

          k = 0.4249-0.4089-0.1662 (  5102 PWs)   bands (ev):

   -33.6935 -33.6882 -17.1357 -16.9815 -15.1917 -15.1015 -14.8826 -14.7401
   -14.7099 -14.6235 -13.8686 -13.6636 -13.5029 -13.3831  -3.0767  -2.8847
    -1.5610  -1.3800  -1.2905  -1.2230  -1.0785  -0.7817   2.0611   2.3602
     2.4330   2.6476   2.6845   2.8823   3.0742   3.2894   4.1944   4.4014

          k = 0.4249-0.2453-0.1246 (  5096 PWs)   bands (ev):

   -33.6945 -33.6874 -17.1337 -16.9899 -15.1421 -15.1122 -14.8665 -14.7446
   -14.7233 -14.6693 -13.7971 -13.6721 -13.5042 -13.4197  -3.0866  -2.9580
    -1.5463  -1.3898  -1.3364  -1.2290  -1.1793  -0.7244   2.1762   2.4351
     2.4723   2.6611   2.6884   2.9482   3.0659   3.3414   4.1859   4.3126

          k =-0.0000 0.0000 0.2493 (  5121 PWs)   bands (ev):

   -33.6961 -33.6865 -17.0822 -17.0749 -15.0976 -15.0976 -14.8261 -14.8261
   -14.6559 -14.5732 -13.8233 -13.8233 -13.4245 -13.4245  -3.3019  -3.1027
    -1.5180  -1.5027  -1.5027  -1.3046  -1.3046  -0.5378   2.4070   2.4070
     2.7314   2.7314   3.0296   3.0296   3.4917   3.4917   3.8185   4.1399

          k =-0.1416-0.0818 0.2908 (  5121 PWs)   bands (ev):

   -33.6953 -33.6872 -17.0798 -17.0739 -15.1187 -15.0259 -14.9258 -14.7836
   -14.6686 -14.6045 -13.8337 -13.6976 -13.5101 -13.4138  -3.2566  -3.1080
    -1.5009  -1.4851  -1.3962  -1.3149  -1.3113  -0.6142   2.4284   2.4578
     2.6759   2.6995   2.9310   3.0376   3.3692   3.4381   3.9208   4.1418

          k =-0.2833-0.1635 0.3323 (  5097 PWs)   bands (ev):

   -33.6939 -33.6883 -17.0773 -17.0666 -15.1211 -15.0205 -14.9584 -14.7406
   -14.7259 -14.6295 -13.7973 -13.6009 -13.5941 -13.4221  -3.1688  -3.0640
    -1.4663  -1.4561  -1.3553  -1.3138  -1.1980  -0.7155   2.3954   2.5166
     2.6037   2.6259   2.7577   2.9858   3.1983   3.3087   4.0860   4.1939

          k = 0.8498 0.4906 0.0000 (  5114 PWs)   bands (ev):

   -33.6922 -33.6897 -17.0806 -17.0512 -15.1359 -15.0018 -14.9795 -14.8063
   -14.7018 -14.6314 -13.7712 -13.6120 -13.5752 -13.4279  -3.0970  -2.9661
    -1.4956  -1.4302  -1.3393  -1.2592  -1.0325  -0.8067   2.2401   2.3633
     2.5472   2.6236   2.7083   2.9879   3.0472   3.1921   4.1948   4.2905

          k = 0.7082 0.4089 0.0415 (  5120 PWs)   bands (ev):

   -33.6913 -33.6904 -17.1112 -17.0087 -15.1508 -15.0936 -14.8880 -14.8399
   -14.6956 -14.6122 -13.7479 -13.7314 -13.4711 -13.4376  -3.0703  -2.8696
    -1.5660  -1.3739  -1.3202  -1.1975  -0.9137  -0.9026   2.0543   2.2615
     2.4651   2.6595   2.7201   2.9488   3.0297   3.1614   4.2127   4.3929

          k = 0.5666 0.3271 0.0831 (  5091 PWs)   bands (ev):

   -33.6930 -33.6887 -17.1347 -16.9793 -15.1706 -15.1402 -14.8601 -14.7864
   -14.7073 -14.5976 -13.8315 -13.7049 -13.4688 -13.4062  -3.0773  -2.8570
    -1.5881  -1.3475  -1.2759  -1.2125  -1.0528  -0.8140   2.0103   2.3171
     2.4240   2.6852   2.6923   2.9507   3.0298   3.2309   4.1885   4.4194

          k =-0.1416 0.0818 0.3323 (  5103 PWs)   bands (ev):

   -33.6948 -33.6877 -17.0839 -17.0708 -15.0997 -15.0254 -14.9223 -14.8142
   -14.6533 -14.6299 -13.7823 -13.6961 -13.5099 -13.4483  -3.2442  -3.1319
    -1.4864  -1.4582  -1.3855  -1.3129  -1.3052  -0.6640   2.4378   2.4794
     2.6397   2.6834   2.9681   3.0703   3.3147   3.4393   3.9335   4.1184

          k =-0.2833 0.0000 0.3739 (  5089 PWs)   bands (ev):

   -33.6938 -33.6885 -17.0876 -17.0609 -15.1028 -15.0334 -14.9224 -14.7903
   -14.6937 -14.6487 -13.7552 -13.6594 -13.5381 -13.4564  -3.1710  -3.1144
    -1.4552  -1.4377  -1.3900  -1.3021  -1.1963  -0.7461   2.4277   2.4864
     2.6001   2.6347   2.8619   3.0325   3.1733   3.3538   4.0621   4.1474

          k = 0.8498 0.6542 0.0415 (  5108 PWs)   bands (ev):

   -33.6924 -33.6896 -17.0701 -17.0680 -15.1060 -15.0639 -14.8999 -14.7870
   -14.7246 -14.6619 -13.7460 -13.6631 -13.5291 -13.4485  -3.0967  -3.0302
    -1.4627  -1.4016  -1.3985  -1.2772  -1.0426  -0.8133   2.3132   2.3736
     2.6071   2.6123   2.7259   2.9470   3.0913   3.2358   4.1859   4.2366

          k = 0.7082 0.5724 0.0831 (  5104 PWs)   bands (ev):

   -33.6909 -33.6908 -17.0967 -17.0297 -15.1399 -15.0614 -14.9136 -14.7975
   -14.7047 -14.6607 -13.7678 -13.6840 -13.5022 -13.4266  -3.0613  -2.9110
    -1.5335  -1.3700  -1.3583  -1.2312  -0.9158  -0.8730   2.1232   2.2589
     2.5184   2.6315   2.6954   2.8592   3.1054   3.1721   4.2317   4.3585

          k = 0.5666 0.4906 0.1246 (  5102 PWs)   bands (ev):

   -33.6922 -33.6894 -17.1266 -16.9893 -15.1747 -15.1249 -14.8788 -14.7511
   -14.7131 -14.6195 -13.8492 -13.7006 -13.4742 -13.3891  -3.0639  -2.8405
    -1.5780  -1.3619  -1.2881  -1.2181  -0.9632  -0.8388   1.9989   2.2583
     2.4361   2.6511   2.6950   2.8229   3.1179   3.2072   4.2116   4.4397

          k =-0.2833 0.1635 0.4154 (  5096 PWs)   bands (ev):

   -33.6932 -33.6889 -17.1042 -17.0416 -15.1311 -14.9821 -14.9314 -14.8071
   -14.7059 -14.6507 -13.7556 -13.6377 -13.5445 -13.4625  -3.1427  -3.1039
    -1.4803  -1.4071  -1.3701  -1.2878  -1.1310  -0.8067   2.3970   2.4259
     2.6097   2.6302   2.8631   3.0464   3.0585   3.3446   4.1306   4.1345

          k = 0.8498 0.8177 0.0831 (  5108 PWs)   bands (ev):

   -33.6924 -33.6896 -17.1034 -17.0350 -15.1371 -15.0408 -14.8676 -14.7941
   -14.7239 -14.6746 -13.7527 -13.6864 -13.4951 -13.4574  -3.1048  -3.0253
    -1.4861  -1.4095  -1.3437  -1.2786  -1.0194  -0.8486   2.2759   2.3577
     2.5859   2.6583   2.7935   2.8736   3.0805   3.2713   4.1768   4.2422

          k = 0.7082 0.7360 0.1246 (  5104 PWs)   bands (ev):

   -33.6914 -33.6904 -17.0753 -17.0556 -15.1059 -15.0693 -14.8465 -14.8323
   -14.7199 -14.7145 -13.7344 -13.6834 -13.4900 -13.4564  -3.0014  -2.9855
    -1.4657  -1.4601  -1.3227  -1.2636  -0.9108  -0.8574   2.1847   2.2171
     2.5781   2.6076   2.7110   2.7479   3.1334   3.2003   4.2846   4.3057

          k = 0.5666 0.6542 0.1662 (  5103 PWs)   bands (ev):

   -33.6913 -33.6903 -17.0890 -17.0334 -15.1179 -15.0895 -14.8958 -14.7881
   -14.7159 -14.6971 -13.7708 -13.6896 -13.4811 -13.4253  -2.9911  -2.8952
    -1.5214  -1.4343  -1.2831  -1.2568  -0.8822  -0.8438   2.0763   2.1799
     2.4958   2.5748   2.6655   2.7086   3.1770   3.1979   4.3009   4.3974

          k = 0.8498-0.4906-0.2493 (  5101 PWs)   bands (ev):

   -33.6922 -33.6897 -17.1252 -17.0060 -15.1837 -15.0616 -14.8559 -14.7580
   -14.7265 -14.6341 -13.8160 -13.7282 -13.4690 -13.4102  -3.1330  -2.9355
    -1.5396  -1.3769  -1.2842  -1.2788  -0.9750  -0.8825   2.1560   2.3275
     2.5881   2.6999   2.7192   2.8666   3.0660   3.2549   4.1529   4.3258

          k = 0.7082-0.5724-0.2077 (  5106 PWs)   bands (ev):

   -33.6918 -33.6900 -17.1188 -17.0066 -15.1602 -15.1046 -14.8441 -14.7424
   -14.7193 -14.6827 -13.7749 -13.7661 -13.4430 -13.4220  -3.0853  -2.8871
    -1.5449  -1.3923  -1.2792  -1.2626  -0.9205  -0.8710   2.0742   2.2583
     2.5506   2.6576   2.6889   2.7961   3.1147   3.2095   4.2013   4.3869

          k = 0.7082-0.4089-0.1662 (  5097 PWs)   bands (ev):

   -33.6921 -33.6896 -17.1370 -16.9805 -15.1906 -15.1471 -14.7998 -14.7778
   -14.7127 -14.5984 -13.8229 -13.8054 -13.4104 -13.4050  -3.1078  -2.8307
    -1.5844  -1.3563  -1.2834  -1.2155  -0.9409  -0.8762   1.9935   2.2590
     2.4856   2.6891   2.7100   2.8475   3.0944   3.1986   4.1679   4.4345

          k = 0.0000 0.0000 0.3739 (  5106 PWs)   bands (ev):

   -33.6944 -33.6881 -17.0817 -17.0770 -15.0603 -15.0603 -14.8868 -14.8868
   -14.6402 -14.5863 -13.7406 -13.7406 -13.4840 -13.4840  -3.2836  -3.1580
    -1.4682  -1.4682  -1.3390  -1.3390  -1.3333  -0.6969   2.4646   2.4646
     2.6748   2.6748   3.1037   3.1037   3.4023   3.4023   3.8686   4.0753

          k =-0.1416-0.0818 0.4154 (  5102 PWs)   bands (ev):

   -33.6936 -33.6889 -17.0781 -17.0774 -15.0908 -14.9840 -14.9811 -14.8363
   -14.6509 -14.6076 -13.7639 -13.6292 -13.5752 -13.4618  -3.2417  -3.1530
    -1.4554  -1.4388  -1.3571  -1.3539  -1.2189  -0.7718   2.4717   2.5055
     2.6313   2.6343   3.0108   3.1320   3.2643   3.3612   3.9571   4.0870

          k = 0.9915 0.5724 0.0831 (  5100 PWs)   bands (ev):

   -33.6923 -33.6898 -17.0814 -17.0646 -15.1219 -15.0208 -14.9416 -14.7834
   -14.7022 -14.6258 -13.7767 -13.6099 -13.5857 -13.4402  -3.1713  -3.0793
    -1.4603  -1.3985  -1.3686  -1.3337  -1.0755  -0.8414   2.3898   2.4837
     2.5987   2.6226   2.8219   3.0912   3.1023   3.2507   4.0918   4.1731

          k = 0.8498 0.4906 0.1246 (  5107 PWs)   bands (ev):

   -33.6909 -33.6909 -17.1058 -17.0268 -15.1686 -15.0196 -14.9323 -14.7663
   -14.7214 -14.6257 -13.8077 -13.6717 -13.5176 -13.4110  -3.1218  -2.9471
    -1.5252  -1.3611  -1.3519  -1.2627  -0.9526  -0.8882   2.1900   2.3434
     2.5871   2.6645   2.6837   2.9462   3.0792   3.1857   4.1689   4.3105

          k =-0.1416 0.0818 0.4570 (  5086 PWs)   bands (ev):

   -33.6930 -33.6895 -17.0828 -17.0733 -15.0774 -14.9848 -14.9686 -14.8677
   -14.6354 -14.6269 -13.7255 -13.6130 -13.5864 -13.4941  -3.2241  -3.1777
    -1.4462  -1.4228  -1.3826  -1.3432  -1.1608  -0.8340   2.4914   2.5249
     2.5877   2.6291   3.0501   3.1633   3.2128   3.3476   3.9769   4.0611

          k = 0.9915 0.7360 0.1246 (  5096 PWs)   bands (ev):

   -33.6920 -33.6902 -17.0796 -17.0703 -15.0835 -15.0564 -14.8923 -14.8430
   -14.6667 -14.6506 -13.7147 -13.6745 -13.5261 -13.4910  -3.1604  -3.1410
    -1.4342  -1.4174  -1.3747  -1.3368  -1.0514  -0.8922   2.4493   2.4739
     2.5933   2.6099   2.9452   3.0350   3.1722   3.2667   4.0843   4.1136

          k = 0.8498 0.6542 0.1662 (  5103 PWs)   bands (ev):

   -33.6910 -33.6910 -17.0874 -17.0521 -15.1252 -15.0444 -14.8881 -14.7890
   -14.7168 -14.6749 -13.7523 -13.6687 -13.5186 -13.4506  -3.1054  -3.0279
    -1.4787  -1.4061  -1.3340  -1.3044  -0.9432  -0.9138   2.2897   2.3565
     2.6087   2.6327   2.7721   2.8900   3.1439   3.1923   4.1779   4.2391

          k = 0.9915-0.5724-0.2077 (  5097 PWs)   bands (ev):

   -33.6916 -33.6906 -17.0945 -17.0522 -15.1305 -14.9846 -14.9457 -14.8127
   -14.6928 -14.6338 -13.7654 -13.5997 -13.5875 -13.4548  -3.1627  -3.0932
    -1.4710  -1.3866  -1.3483  -1.3363  -0.9881  -0.9391   2.3910   2.4490
     2.6024   2.6241   2.8919   3.0064   3.1326   3.2569   4.1067   4.1527

          k =-0.0000 0.0000 0.4985 (  5088 PWs)   bands (ev):

   -33.6924 -33.6902 -17.0808 -17.0791 -15.0104 -15.0104 -14.9510 -14.9510
   -14.6218 -14.6031 -13.6495 -13.6495 -13.5611 -13.5611  -3.2536  -3.2109
    -1.4260  -1.4260  -1.3812  -1.3812  -1.1176  -0.8972   2.5342   2.5342
     2.6069   2.6069   3.1959   3.1959   3.2990   3.2990   3.9319   4.0030

          k = 1.1331 0.6542 0.1662 (  5103 PWs)   bands (ev):

   -33.6915 -33.6909 -17.0805 -17.0759 -15.0577 -15.0231 -14.9348 -14.8937
   -14.6352 -14.6189 -13.6893 -13.6379 -13.5679 -13.5210  -3.2155  -3.1934
    -1.4256  -1.3927  -1.3926  -1.3826  -1.0282  -0.9618   2.5210   2.5477
     2.5772   2.5878   3.1009   3.1595   3.2314   3.2727   4.0052   4.0297

     highest occupied level (ev):     4.4764

!    total energy              =    -367.43036046 Ry
     Harris-Foulkes estimate   =    -367.43036347 Ry
     estimated scf accuracy    <       0.00000474 Ry

     The total energy is the sum of the following terms:

     one-electron contribution =    -148.11930081 Ry
     hartree contribution      =     103.42492578 Ry
     xc contribution           =     -75.26262255 Ry
     ewald contribution        =    -247.47336287 Ry

     convergence has been achieved in   7 iterations

     Forces acting on atoms (cartesian axes, Ry/au):

     atom    1 type  1   force =    -0.00000000    0.00000000   -0.00000000
     atom    2 type  1   force =     0.00000000    0.00000000    0.00000000
     atom    3 type  2   force =     0.00000000    0.00000000    0.00000000
     atom    4 type  2   force =     0.00000000   -0.00000000    0.00000000
     atom    5 type  3   force =     0.00003781   -0.00006548   -0.00000000
     atom    6 type  3   force =    -0.00007561    0.00000000   -0.00000000
     atom    7 type  3   force =     0.00003781    0.00006548    0.00000000
     atom    8 type  3   force =     0.00007561   -0.00000000   -0.00000000
     atom    9 type  3   force =    -0.00003781   -0.00006548   -0.00000000
     atom   10 type  3   force =    -0.00003781    0.00006548    0.00000000

     Total force =     0.000185     Total SCF correction =     0.000202
     SCF correction compared to forces is large: reduce conv_thr to get better values


     Computing stress (Cartesian axis) and pressure

          total   stress  (Ry/bohr**3)                   (kbar)     P=   -4.87
  -0.00003436   0.00000000  -0.00000000         -5.05      0.00     -0.00
  -0.00000000  -0.00003436  -0.00000000         -0.00     -5.05     -0.00
  -0.00000000  -0.00000000  -0.00003067         -0.00     -0.00     -4.51


     BFGS Geometry Optimization

     number of scf cycles    =   1
     number of bfgs steps    =   0

     enthalpy new            =    -367.4303604608 Ry

     new trust radius        =       0.0050223434 bohr
     new conv_thr            =       0.0000100000 Ry

     new unit-cell volume =    852.64986 a.u.^3 (   126.34967 Ang^3 )
     density =      2.63081 g/cm^3

CELL_PARAMETERS (alat= 12.16200000)
   0.391900274  -0.226263729   0.890869253
   0.000000000   0.452527457   0.890869253
  -0.391900274  -0.226263729   0.890869253

ATOMIC_POSITIONS (crystal)
Ca       0.500000000   0.500000000   0.500000000
Ca       0.000000000   0.000000000   0.000000000
C        0.250000000   0.250000000   0.250000000
C        0.750000000   0.750000000   0.750000000
O        0.506908170   0.993091830   0.250000000
O        0.993091830   0.250000000   0.506908170
O        0.250000000   0.506908170   0.993091830
O        0.006908170   0.750000000   0.493091830
O        0.750000000   0.493091830   0.006908170
O        0.493091830   0.006908170   0.750000000



     Writing output data file CCO_k.save/
     NEW-OLD atomic charge density approx. for the potential

     Check: negative core charge=   -0.000003
     extrapolated charge   63.84074, renormalised to   64.00000

     total cpu time spent up to now is      293.0 secs

     Self-consistent Calculation

     iteration #  1     ecut=    50.00 Ry     beta= 0.70
     CG style diagonalization
     ethr =  1.00E-06,  avg # of iterations =  3.6

     total cpu time spent up to now is      326.1 secs

     total energy              =    -367.42878899 Ry
     Harris-Foulkes estimate   =    -367.71498435 Ry
     estimated scf accuracy    <       0.00117674 Ry

     iteration #  2     ecut=    50.00 Ry     beta= 0.70
     CG style diagonalization
     ethr =  1.84E-06,  avg # of iterations =  4.9

     total cpu time spent up to now is      374.9 secs

     total energy              =    -367.43023361 Ry
     Harris-Foulkes estimate   =    -367.43149605 Ry
     estimated scf accuracy    <       0.00345276 Ry

     iteration #  3     ecut=    50.00 Ry     beta= 0.70
     CG style diagonalization
     ethr =  1.84E-06,  avg # of iterations =  3.8

     total cpu time spent up to now is      413.1 secs

     total energy              =    -367.43039419 Ry
     Harris-Foulkes estimate   =    -367.43049407 Ry
     estimated scf accuracy    <       0.00039645 Ry

     iteration #  4     ecut=    50.00 Ry     beta= 0.70
     CG style diagonalization
     ethr =  6.19E-07,  avg # of iterations =  3.0

     total cpu time spent up to now is      444.5 secs

     total energy              =    -367.43035988 Ry
     Harris-Foulkes estimate   =    -367.43040669 Ry
     estimated scf accuracy    <       0.00017271 Ry

     iteration #  5     ecut=    50.00 Ry     beta= 0.70
     CG style diagonalization
     ethr =  2.70E-07,  avg # of iterations =  3.1

     total cpu time spent up to now is      476.5 secs

     total energy              =    -367.43035273 Ry
     Harris-Foulkes estimate   =    -367.43036914 Ry
     estimated scf accuracy    <       0.00004952 Ry

     iteration #  6     ecut=    50.00 Ry     beta= 0.70
     CG style diagonalization
     ethr =  7.74E-08,  avg # of iterations =  3.4

     total cpu time spent up to now is      511.4 secs

     End of self-consistent calculation

          k = 0.0000 0.0000 0.0000 (  5161 PWs)   bands (ev):

   -33.6608 -33.6481 -17.0737 -17.0652 -15.1003 -15.1003 -14.7280 -14.7280
   -14.6343 -14.5274 -13.8903 -13.8903 -13.3505 -13.3505  -3.2913  -3.0156
    -1.6806  -1.5169  -1.5169  -1.2551  -1.2551  -0.3869   2.3762   2.3762
     2.8092   2.8092   2.9844   2.9844   3.5993   3.5993   3.8002   4.2290

          k =-0.1418-0.0818 0.0416 (  5129 PWs)   bands (ev):

   -33.6604 -33.6484 -17.0749 -17.0603 -15.0996 -15.0611 -14.7692 -14.7262
   -14.6498 -14.5953 -13.8632 -13.7863 -13.4007 -13.3596  -3.2411  -3.0228
    -1.6348  -1.4974  -1.4773  -1.2776  -1.2478  -0.4403   2.4012   2.4328
     2.7537   2.7949   2.8899   2.9362   3.5192   3.5377   3.9131   4.2331

          k =-0.2835-0.1637 0.0831 (  5104 PWs)   bands (ev):

   -33.6591 -33.6494 -17.0915 -17.0321 -15.0981 -14.9899 -14.8969 -14.7383
   -14.6590 -14.6368 -13.7953 -13.6241 -13.5147 -13.3876  -3.1207  -3.0253
    -1.5470  -1.4436  -1.3667  -1.3025  -1.2429  -0.5642   2.4420   2.5207
     2.6370   2.6654   2.8003   2.8066   3.3708   3.4023   4.1175   4.2446

          k =-0.4253-0.2455 0.1247 (  5093 PWs)   bands (ev):

   -33.6573 -33.6509 -17.0924 -17.0176 -15.0884 -14.9808 -14.9633 -14.8066
   -14.6372 -14.6191 -13.7130 -13.5948 -13.5341 -13.4373  -2.9996  -2.9971
    -1.5240  -1.3976  -1.2584  -1.2527  -1.1901  -0.6944   2.3076   2.3830
     2.5934   2.6166   2.7426   2.8484   3.2222   3.2561   4.2699   4.2851

          k =-0.5670-0.3274 0.1663 (  5095 PWs)   bands (ev):

   -33.6551 -33.6529 -17.0687 -17.0345 -15.0299 -14.9917 -14.9764 -14.9154
   -14.6238 -14.6080 -13.6217 -13.5773 -13.5332 -13.5173  -2.9509  -2.9385
    -1.5099  -1.4475  -1.2221  -1.2118  -0.9917  -0.8240   2.1723   2.2309
     2.5558   2.5847   2.8278   2.8797   3.1324   3.1469   4.3174   4.3466

          k =-0.1418 0.0818 0.0831 (  5123 PWs)   bands (ev):

   -33.6603 -33.6485 -17.0759 -17.0596 -15.0795 -15.0772 -14.7661 -14.7289
   -14.6444 -14.6131 -13.8254 -13.8082 -13.3873 -13.3805  -3.2387  -3.0298
    -1.6193  -1.4912  -1.4816  -1.2821  -1.2455  -0.4513   2.4018   2.4383
     2.7590   2.7617   2.9166   2.9421   3.4910   3.5545   3.9142   4.2271

          k =-0.2835 0.0000 0.1247 (  5100 PWs)   bands (ev):

   -33.6593 -33.6492 -17.0895 -17.0385 -15.0835 -15.0301 -14.8335 -14.7347
   -14.6750 -14.6402 -13.7861 -13.6868 -13.4660 -13.3948  -3.1514  -3.0380
    -1.5447  -1.4591  -1.4047  -1.3040  -1.2353  -0.5459   2.4328   2.5110
     2.6418   2.7313   2.7868   2.8861   3.3645   3.4671   4.0662   4.2320

          k =-0.4253-0.0818 0.1663 (  5089 PWs)   bands (ev):

   -33.6578 -33.6505 -17.0939 -17.0215 -15.0819 -15.0397 -14.8762 -14.7883
   -14.6427 -14.6388 -13.7123 -13.6737 -13.4761 -13.4327  -3.0374  -3.0144
    -1.5069  -1.4007  -1.3401  -1.2313  -1.2156  -0.6641   2.3679   2.4720
     2.5557   2.6326   2.7450   2.8426   3.2182   3.3374   4.2391   4.2599

          k =-0.5670-0.1637 0.2079 (  5101 PWs)   bands (ev):

   -33.6558 -33.6523 -17.0738 -17.0323 -15.0709 -15.0258 -14.9061 -14.8736
   -14.6281 -14.6169 -13.6846 -13.6266 -13.4994 -13.4564  -2.9620  -2.9542
    -1.4954  -1.4350  -1.2747  -1.2137  -1.0338  -0.7746   2.2185   2.2989
     2.5311   2.5690   2.7769   2.8615   3.1323   3.2256   4.3156   4.3357

          k = 0.5670 0.4911-0.1247 (  5117 PWs)   bands (ev):

   -33.6543 -33.6536 -17.0665 -17.0355 -15.0635 -15.0013 -14.9630 -14.8790
   -14.6299 -14.6062 -13.6771 -13.5961 -13.5244 -13.4588  -2.9544  -2.9032
    -1.5098  -1.4451  -1.2406  -1.1943  -0.9151  -0.8719   2.1518   2.2204
     2.5025   2.5640   2.7925   2.8575   3.1397   3.1750   4.3292   4.3791

          k = 0.4253 0.4092-0.0831 (  5098 PWs)   bands (ev):

   -33.6564 -33.6517 -17.0973 -17.0056 -15.1102 -15.0065 -14.9528 -14.8002
   -14.6489 -14.5941 -13.7372 -13.6026 -13.5120 -13.4271  -2.9917  -2.9206
    -1.5381  -1.3769  -1.2604  -1.2078  -1.1031  -0.7524   2.1728   2.3578
     2.5024   2.5967   2.7202   2.8915   3.1570   3.2383   4.2808   4.3735

          k = 0.2835 0.3274-0.0416 (  5089 PWs)   bands (ev):

   -33.6582 -33.6500 -17.1048 -17.0084 -15.0929 -15.0379 -14.8810 -14.7624
   -14.6641 -14.6315 -13.7302 -13.6638 -13.4747 -13.4262  -3.0249  -3.0189
    -1.5284  -1.3888  -1.3125  -1.2829  -1.2203  -0.6423   2.3557   2.4874
     2.5678   2.6593   2.6707   2.8510   3.2491   3.3556   4.2477   4.2576

          k = 0.1418 0.2455 0.0000 (  5105 PWs)   bands (ev):

   -33.6597 -33.6489 -17.0907 -17.0365 -15.0808 -15.0409 -14.7893 -14.7745
   -14.6635 -14.6471 -13.7919 -13.6977 -13.4546 -13.3914  -3.1510  -3.0291
    -1.5695  -1.4604  -1.4174  -1.3082  -1.2288  -0.5215   2.4321   2.5129
     2.6381   2.7663   2.7727   2.8430   3.3984   3.4704   4.0639   4.2413

          k =-0.2835 0.1637 0.1663 (  5096 PWs)   bands (ev):

   -33.6588 -33.6496 -17.1024 -17.0226 -15.0642 -15.0479 -14.7915 -14.7686
   -14.7060 -14.6531 -13.7237 -13.6903 -13.4605 -13.4334  -3.0966  -3.0605
    -1.4816  -1.4483  -1.4290  -1.2663  -1.2223  -0.6018   2.4461   2.4493
     2.6419   2.6613   2.7804   2.9297   3.2612   3.4644   4.1331   4.2161

          k =-0.4253 0.0818 0.2079 (  5104 PWs)   bands (ev):

   -33.6577 -33.6505 -17.1117 -17.0040 -15.1038 -15.0444 -14.8239 -14.7662
   -14.6699 -14.6531 -13.7420 -13.6656 -13.4711 -13.4221  -3.0564  -2.9999
    -1.4855  -1.4036  -1.3761  -1.2099  -1.1802  -0.6899   2.3078   2.4404
     2.5728   2.6612   2.7336   2.9235   3.1306   3.3894   4.2233   4.2696

          k =-0.5670 0.0000 0.2494 (  5104 PWs)   bands (ev):

   -33.6562 -33.6518 -17.0975 -17.0102 -15.1295 -15.0012 -14.9009 -14.7898
   -14.6502 -14.6212 -13.7843 -13.5863 -13.5273 -13.3949  -2.9999  -2.9280
    -1.4843  -1.4098  -1.3353  -1.2000  -1.0316  -0.7616   2.1833   2.3486
     2.5255   2.5789   2.7199   2.8619   3.1081   3.3010   4.2799   4.3715

          k = 0.5670 0.6548-0.0831 (  5103 PWs)   bands (ev):

   -33.6544 -33.6534 -17.0578 -17.0459 -15.1004 -15.0014 -14.9268 -14.8318
   -14.6464 -14.6232 -13.7385 -13.6250 -13.4937 -13.4124  -2.9201  -2.9159
    -1.4868  -1.4388  -1.3020  -1.1875  -0.8899  -0.8425   2.1680   2.2086
     2.4825   2.5211   2.7260   2.7804   3.1631   3.2439   4.3727   4.3810

          k = 0.4253 0.5729-0.0416 (  5104 PWs)   bands (ev):

   -33.6552 -33.6527 -17.0870 -17.0132 -15.1202 -15.0185 -14.9577 -14.7577
   -14.6642 -14.5994 -13.7781 -13.6182 -13.4983 -13.3908  -2.9625  -2.8711
    -1.5385  -1.3662  -1.2905  -1.1904  -0.9799  -0.7947   2.1235   2.2896
     2.4401   2.5254   2.7045   2.8080   3.2047   3.2221   4.3239   4.4314

          k = 0.2835 0.4911 0.0000 (  5109 PWs)   bands (ev):

   -33.6569 -33.6512 -17.1084 -16.9941 -15.1414 -15.0144 -14.9425 -14.7214
   -14.6787 -14.5906 -13.7948 -13.6175 -13.4995 -13.3900  -3.0077  -2.9124
    -1.5418  -1.3461  -1.2768  -1.2100  -1.1511  -0.7269   2.1848   2.4590
     2.4673   2.5525   2.6683   2.8799   3.1812   3.2836   4.2708   4.3878

          k =-0.4253 0.2455 0.2494 (  5102 PWs)   bands (ev):

   -33.6573 -33.6509 -17.1316 -16.9777 -15.1276 -15.1013 -14.7673 -14.7070
   -14.6880 -14.6567 -13.7783 -13.7198 -13.4347 -13.3944  -3.0895  -2.9146
    -1.5215  -1.3733  -1.3333  -1.1947  -1.1054  -0.7533   2.1687   2.4012
     2.5191   2.7303   2.7379   2.9846   3.0133   3.3741   4.1882   4.3553

          k =-0.5670 0.1637 0.2910 (  5108 PWs)   bands (ev):

   -33.6564 -33.6517 -17.1310 -16.9722 -15.1659 -15.0954 -14.7857 -14.7226
   -14.6622 -14.6112 -13.8555 -13.6974 -13.4384 -13.3568  -3.0692  -2.8470
    -1.5299  -1.3839  -1.2956  -1.1828  -1.0067  -0.7955   2.0621   2.3267
     2.5027   2.7023   2.7309   2.8289   3.0990   3.3206   4.2063   4.4382

          k = 0.5670 0.8184-0.0416 (  5111 PWs)   bands (ev):

   -33.6552 -33.6527 -17.1004 -17.0032 -15.1438 -15.0405 -14.8432 -14.7758
   -14.6742 -14.6195 -13.8164 -13.6476 -13.4669 -13.3718  -2.9895  -2.8456
    -1.4825  -1.4415  -1.3135  -1.1773  -0.9012  -0.8118   2.0565   2.2457
     2.5042   2.5928   2.6977   2.7187   3.1742   3.2753   4.2961   4.4548

          k = 0.4253 0.7366 0.0000 (  5097 PWs)   bands (ev):

   -33.6539 -33.6539 -17.0516 -17.0514 -15.0885 -15.0538 -14.8853 -14.7969
   -14.6823 -14.6246 -13.7124 -13.7054 -13.4289 -13.4256  -2.9010  -2.9005
    -1.5060  -1.3941  -1.3383  -1.1793  -0.8728  -0.8255   2.1543   2.1660
     2.4831   2.5011   2.6831   2.7198   3.2070   3.2507   4.3973   4.4010

          k =-0.5670 0.3274 0.3326 (  5094 PWs)   bands (ev):

   -33.6562 -33.6518 -17.1502 -16.9463 -15.1814 -15.1749 -14.7135 -14.6924
   -14.6608 -14.5583 -13.9059 -13.8055 -13.3741 -13.3337  -3.1063  -2.7787
    -1.5701  -1.3608  -1.2488  -1.1702  -0.9694  -0.8384   1.9655   2.2781
     2.5199   2.7497   2.7562   2.7652   3.1324   3.2981   4.1573   4.4960

          k = 0.5670 0.9821 0.0000 (  5100 PWs)   bands (ev):

   -33.6558 -33.6521 -17.1387 -16.9593 -15.1744 -15.1482 -14.7385 -14.6874
   -14.6832 -14.5844 -13.8959 -13.7597 -13.3939 -13.3373  -3.0737  -2.7796
    -1.5509  -1.3883  -1.2623  -1.1687  -0.9320  -0.8286   1.9639   2.2548
     2.5281   2.6884   2.7238   2.7323   3.1702   3.2773   4.1957   4.5041

          k =-0.0000 0.0000 0.1247 (  5158 PWs)   bands (ev):

   -33.6604 -33.6485 -17.0738 -17.0657 -15.0924 -15.0924 -14.7459 -14.7459
   -14.6306 -14.5302 -13.8674 -13.8674 -13.3635 -13.3635  -3.2886  -3.0333
    -1.6346  -1.5090  -1.5090  -1.2630  -1.2630  -0.4218   2.3895   2.3895
     2.7938   2.7938   3.0033   3.0033   3.5774   3.5774   3.8114   4.2123

          k =-0.1418-0.0818 0.1663 (  5129 PWs)   bands (ev):

   -33.6598 -33.6490 -17.0736 -17.0624 -15.1034 -15.0338 -14.8304 -14.7190
[...]

          k = 0.5669 0.6546 0.0415 (  5089 PWs)   bands (ev):

   -33.6803 -33.6803 -17.0723 -17.0491 -15.1158 -15.0395 -14.9405 -14.8055
   -14.6993 -14.6616 -13.7602 -13.6515 -13.5052 -13.4231  -2.9655  -2.9120
    -1.5230  -1.3957  -1.3539  -1.2081  -0.8767  -0.8603   2.1256   2.1738
     2.4736   2.5503   2.6879   2.7474   3.1504   3.2165   4.3322   4.3786

          k = 0.4252 0.5727 0.0831 (  5095 PWs)   bands (ev):

   -33.6817 -33.6789 -17.1046 -17.0115 -15.1599 -15.0360 -14.9725 -14.7427
   -14.7053 -14.6250 -13.8296 -13.6154 -13.5320 -13.3890  -2.9991  -2.8749
    -1.5549  -1.3749  -1.2972  -1.2215  -0.9860  -0.8024   2.0750   2.2767
     2.4201   2.5376   2.6735   2.7843   3.1705   3.2261   4.2854   4.4268

          k = 0.2834 0.4909 0.1246 (  5098 PWs)   bands (ev):

   -33.6830 -33.6778 -17.1134 -17.0064 -15.1592 -15.0300 -14.9533 -14.7749
   -14.6852 -14.6237 -13.8089 -13.6218 -13.5278 -13.4087  -3.0259  -2.9371
    -1.5394  -1.3851  -1.3076  -1.2287  -1.1180  -0.7486   2.1669   2.3936
     2.4813   2.5388   2.6711   2.8576   3.1333   3.2760   4.2518   4.3619

          k =-0.4252 0.2455 0.3738 (  5104 PWs)   bands (ev):

   -33.6828 -33.6781 -17.1366 -16.9916 -15.1723 -15.0929 -14.7723 -14.7503
   -14.7341 -14.6474 -13.7880 -13.7689 -13.4293 -13.4206  -3.1260  -2.9281
    -1.5381  -1.3843  -1.3174  -1.2265  -1.0522  -0.8195   2.1451   2.3414
     2.5513   2.7238   2.7498   2.8731   3.0321   3.3241   4.1555   4.3380

          k = 0.7086 0.9000 0.0415 (  5110 PWs)   bands (ev):

   -33.6821 -33.6787 -17.1332 -16.9892 -15.1723 -15.1188 -14.7860 -14.7366
   -14.7054 -14.6642 -13.8312 -13.7533 -13.4285 -13.3958  -3.0922  -2.8691
    -1.5416  -1.4008  -1.2962  -1.2176  -0.9672  -0.8369   2.0495   2.2743
     2.5368   2.6967   2.7119   2.7591   3.0949   3.2728   4.1882   4.4112

          k = 0.5669 0.8182 0.0831 (  5102 PWs)   bands (ev):

   -33.6812 -33.6794 -17.1013 -17.0200 -15.1407 -15.0766 -14.8393 -14.8074
   -14.7080 -14.6702 -13.7962 -13.6901 -13.4652 -13.4085  -3.0021  -2.8749
    -1.4988  -1.4556  -1.3117  -1.2149  -0.8914  -0.8325   2.0497   2.2023
     2.5147   2.5812   2.6669   2.6916   3.1648   3.2358   4.2864   4.4223

          k = 0.4252 0.7364 0.1246 (  5101 PWs)   bands (ev):

   -33.6803 -33.6803 -17.0595 -17.0594 -15.1018 -15.0848 -14.8872 -14.8447
   -14.6879 -14.6605 -13.7269 -13.7235 -13.4461 -13.4444  -2.9213  -2.9210
    -1.5028  -1.4569  -1.2939  -1.2252  -0.8718  -0.8490   2.1401   2.1459
     2.4702   2.4790   2.6740   2.6924   3.1990   3.2208   4.3770   4.3788

          k = 0.2834 0.6546 0.1661 (  5108 PWs)   bands (ev):

   -33.6812 -33.6794 -17.0815 -17.0360 -15.1246 -15.0441 -14.9475 -14.8445
   -14.6656 -14.6367 -13.7597 -13.6520 -13.5009 -13.4304  -2.9608  -2.9146
    -1.5167  -1.4492  -1.2597  -1.2346  -0.9522  -0.8289   2.1346   2.2387
     2.4552   2.4797   2.7079   2.7723   3.1679   3.2123   4.3255   4.3865

          k = 0.7086-0.4091-0.2907 (  5098 PWs)   bands (ev):

   -33.6822 -33.6785 -17.1530 -16.9613 -15.2033 -15.1775 -14.7387 -14.7175
   -14.7087 -14.5837 -13.8903 -13.8312 -13.3860 -13.3661  -3.1245  -2.8033
    -1.5852  -1.3722  -1.2443  -1.2119  -0.9586  -0.8629   1.9589   2.2509
     2.5267   2.6815   2.7434   2.7756   3.1160   3.2532   4.1438   4.4673

          k = 0.5669-0.4909-0.2492 (  5088 PWs)   bands (ev):

   -33.6820 -33.6786 -17.1414 -16.9729 -15.1881 -15.1551 -14.7990 -14.7172
   -14.7007 -14.6108 -13.8936 -13.7528 -13.4274 -13.3620  -3.0847  -2.8099
    -1.5708  -1.3903  -1.2576  -1.2129  -0.9503  -0.8380   1.9616   2.2463
     2.4801   2.6767   2.6996   2.7511   3.1438   3.2427   4.1865   4.4727

          k = 0.4252-0.5727-0.2077 (  5107 PWs)   bands (ev):

   -33.6817 -33.6789 -17.1093 -17.0081 -15.1698 -15.0480 -14.9236 -14.7699
   -14.6873 -14.6342 -13.8450 -13.6313 -13.5149 -13.3821  -3.0084  -2.8662
    -1.5300  -1.4251  -1.2846  -1.2237  -0.9490  -0.8117   2.0498   2.2565
     2.4469   2.5608   2.6728   2.7488   3.1591   3.2485   4.2752   4.4349

          k = 0.5669-0.3273-0.2077 (  5089 PWs)   bands (ev):

   -33.6827 -33.6780 -17.1516 -16.9605 -15.1906 -15.1774 -14.7804 -14.7136
   -14.7129 -14.5798 -13.8961 -13.7716 -13.4190 -13.3639  -3.1080  -2.8171
    -1.5871  -1.3622  -1.2467  -1.2158  -1.0164  -0.8293   1.9680   2.2955
     2.4481   2.7079   2.7289   2.8420   3.0880   3.2689   4.1553   4.4591

          k = 0.4252-0.4091-0.1661 (  5100 PWs)   bands (ev):

   -33.6830 -33.6777 -17.1355 -16.9814 -15.1851 -15.0943 -14.8742 -14.7303
   -14.6996 -14.6135 -13.8661 -13.6597 -13.4976 -13.3771  -3.0727  -2.8803
    -1.5585  -1.3774  -1.2879  -1.2202  -1.0762  -0.7804   2.0650   2.3642
     2.4374   2.6526   2.6892   2.8862   3.0782   3.2932   4.1998   4.4071

          k = 0.4252-0.2455-0.1246 (  5092 PWs)   bands (ev):

   -33.6840 -33.6769 -17.1335 -16.9900 -15.1354 -15.1050 -14.8579 -14.7353
   -14.7132 -14.6593 -13.7938 -13.6683 -13.4990 -13.4140  -3.0827  -2.9538
    -1.5439  -1.3874  -1.3343  -1.2261  -1.1769  -0.7232   2.1802   2.4389
     2.4770   2.6660   2.6935   2.9524   3.0698   3.3453   4.1911   4.3181

          k =-0.0000-0.0000 0.2492 (  5121 PWs)   bands (ev):

   -33.6856 -33.6760 -17.0824 -17.0748 -15.0902 -15.0902 -14.8167 -14.8167
   -14.6452 -14.5625 -13.8205 -13.8205 -13.4195 -13.4195  -3.2986  -3.0987
    -1.5167  -1.5008  -1.5008  -1.3018  -1.3018  -0.5364   2.4106   2.4106
     2.7371   2.7371   3.0351   3.0351   3.4964   3.4964   3.8226   4.1444

          k =-0.1417-0.0818 0.2907 (  5111 PWs)   bands (ev):

   -33.6848 -33.6767 -17.0798 -17.0741 -15.1114 -15.0181 -14.9174 -14.7739
   -14.6582 -14.5941 -13.8310 -13.6935 -13.5056 -13.4087  -3.2532  -3.1041
    -1.4992  -1.4831  -1.3944  -1.3121  -1.3088  -0.6127   2.4321   2.4616
     2.6814   2.7051   2.9365   3.0429   3.3739   3.4425   3.9252   4.1464

          k =-0.2834-0.1636 0.3323 (  5095 PWs)   bands (ev):

   -33.6834 -33.6778 -17.0772 -17.0667 -15.1139 -15.0130 -14.9502 -14.7311
   -14.7159 -14.6192 -13.7943 -13.5967 -13.5892 -13.4168  -3.1652  -3.0600
    -1.4643  -1.4537  -1.3529  -1.3110  -1.1962  -0.7140   2.3995   2.5210
     2.6083   2.6310   2.7630   2.9902   3.2027   3.3128   4.0910   4.1989

          k = 0.8503 0.4909 0.0000 (  5108 PWs)   bands (ev):

   -33.6817 -33.6792 -17.0805 -17.0511 -15.1289 -14.9943 -14.9718 -14.7971
   -14.6917 -14.6211 -13.7681 -13.6072 -13.5704 -13.4224  -3.0933  -2.9618
    -1.4931  -1.4280  -1.3368  -1.2563  -1.0307  -0.8049   2.2442   2.3677
     2.5517   2.6287   2.7128   2.9918   3.0514   3.1959   4.2002   4.2960

          k = 0.7086 0.4091 0.0415 (  5118 PWs)   bands (ev):

   -33.6808 -33.6799 -17.1110 -17.0086 -15.1439 -15.0868 -14.8798 -14.8309
   -14.6854 -14.6020 -13.7448 -13.7273 -13.4655 -13.4320  -3.0664  -2.8651
    -1.5635  -1.3715  -1.3176  -1.1945  -0.9117  -0.9010   2.0580   2.2656
     2.4696   2.6647   2.7244   2.9528   3.0336   3.1651   4.2182   4.3986

          k = 0.5669 0.3273 0.0831 (  5085 PWs)   bands (ev):

   -33.6825 -33.6782 -17.1345 -16.9792 -15.1641 -15.1331 -14.8513 -14.7772
   -14.6971 -14.5874 -13.8284 -13.7015 -13.4634 -13.4003  -3.0733  -2.8525
    -1.5857  -1.3449  -1.2732  -1.2096  -1.0506  -0.8127   2.0140   2.3214
     2.4281   2.6905   2.6969   2.9545   3.0338   3.2347   4.1940   4.4252

          k =-0.1417 0.0818 0.3323 (  5101 PWs)   bands (ev):

   -33.6843 -33.6772 -17.0839 -17.0710 -15.0923 -15.0176 -14.9139 -14.8048
   -14.6427 -14.6198 -13.7791 -13.6921 -13.5054 -13.4432  -3.2407  -3.1281
    -1.4845  -1.4563  -1.3835  -1.3107  -1.3026  -0.6626   2.4417   2.4833
     2.6449   2.6889   2.9734   3.0756   3.3194   3.4439   3.9379   4.1231

          k =-0.2834 0.0000 0.3738 (  5089 PWs)   bands (ev):

   -33.6833 -33.6780 -17.0875 -17.0610 -15.0956 -15.0258 -14.9141 -14.7810
   -14.6836 -14.6383 -13.7518 -13.6553 -13.5333 -13.4512  -3.1674  -3.1105
    -1.4530  -1.4356  -1.3875  -1.2995  -1.1945  -0.7447   2.4317   2.4908
     2.6047   2.6399   2.8670   3.0373   3.1778   3.3580   4.0670   4.1524

          k = 0.8503 0.6546 0.0415 (  5107 PWs)   bands (ev):

   -33.6819 -33.6791 -17.0700 -17.0680 -15.0989 -15.0567 -14.8916 -14.7781
   -14.7144 -14.6516 -13.7427 -13.6588 -13.5240 -13.4431  -3.0928  -3.0261
    -1.4603  -1.3992  -1.3962  -1.2746  -1.0407  -0.8116   2.3173   2.3781
     2.6118   2.6170   2.7307   2.9512   3.0955   3.2397   4.1912   4.2420

          k = 0.7086 0.5727 0.0831 (  5101 PWs)   bands (ev):

   -33.6804 -33.6804 -17.0966 -17.0296 -15.1330 -15.0543 -14.9056 -14.7883
   -14.6945 -14.6507 -13.7646 -13.6798 -13.4968 -13.4210  -3.0573  -2.9066
    -1.5310  -1.3675  -1.3559  -1.2284  -0.9140  -0.8711   2.1271   2.2630
     2.5229   2.6364   2.6998   2.8634   3.1093   3.1758   4.2372   4.3642

          k = 0.5669 0.4909 0.1246 (  5096 PWs)   bands (ev):

   -33.6817 -33.6789 -17.1264 -16.9891 -15.1682 -15.1180 -14.8703 -14.7415
   -14.7030 -14.6095 -13.8464 -13.6970 -13.4687 -13.3832  -3.0600  -2.8359
    -1.5755  -1.3593  -1.2856  -1.2152  -0.9611  -0.8372   2.0025   2.2624
     2.4404   2.6561   2.6994   2.8268   3.1218   3.2108   4.2171   4.4456

          k =-0.2834 0.1636 0.4153 (  5096 PWs)   bands (ev):

   -33.6828 -33.6785 -17.1041 -17.0417 -15.1239 -14.9743 -14.9234 -14.7978
   -14.6959 -14.6402 -13.7525 -13.6333 -13.5397 -13.4571  -3.1389  -3.1000
    -1.4779  -1.4049  -1.3677  -1.2853  -1.1291  -0.8053   2.4014   2.4300
     2.6147   2.6347   2.8680   3.0510   3.0632   3.3487   4.1356   4.1395

          k = 0.8503 0.8182 0.0831 (  5102 PWs)   bands (ev):

   -33.6819 -33.6791 -17.1033 -17.0349 -15.1301 -15.0336 -14.8593 -14.7850
   -14.7138 -14.6643 -13.7495 -13.6823 -13.4899 -13.4519  -3.1009  -3.0212
    -1.4837  -1.4070  -1.3412  -1.2762  -1.0174  -0.8470   2.2801   2.3618
     2.5906   2.6631   2.7983   2.8781   3.0847   3.2753   4.1821   4.2475

          k = 0.7086 0.7364 0.1246 (  5099 PWs)   bands (ev):

   -33.6809 -33.6799 -17.0751 -17.0555 -15.0990 -15.0622 -14.8384 -14.8238
   -14.7096 -14.7043 -13.7308 -13.6794 -13.4846 -13.4508  -2.9973  -2.9813
    -1.4631  -1.4576  -1.3203  -1.2611  -0.9087  -0.8555   2.1888   2.2212
     2.5827   2.6122   2.7154   2.7522   3.1373   3.2041   4.2902   4.3114

          k = 0.5669 0.6546 0.1661 (  5102 PWs)   bands (ev):

   -33.6808 -33.6798 -17.0888 -17.0332 -15.1112 -15.0826 -14.8876 -14.7794
   -14.7057 -14.6870 -13.7673 -13.6857 -13.4756 -13.4195  -2.9869  -2.8908
    -1.5189  -1.4317  -1.2806  -1.2541  -0.8801  -0.8420   2.0803   2.1840
     2.5000   2.5793   2.6695   2.7127   3.1808   3.2016   4.3067   4.4033

          k = 0.8503-0.4909-0.2492 (  5099 PWs)   bands (ev):

   -33.6817 -33.6792 -17.1251 -17.0060 -15.1769 -15.0546 -14.8476 -14.7482
   -14.7163 -14.6238 -13.8137 -13.7242 -13.4636 -13.4045  -3.1293  -2.9311
    -1.5371  -1.3745  -1.2814  -1.2765  -0.9729  -0.8809   2.1599   2.3315
     2.5925   2.7049   2.7240   2.8711   3.0701   3.2587   4.1582   4.3313

          k = 0.7086-0.5727-0.2077 (  5105 PWs)   bands (ev):

   -33.6813 -33.6795 -17.1187 -17.0065 -15.1534 -15.0978 -14.8355 -14.7326
   -14.7091 -14.6731 -13.7718 -13.7625 -13.4374 -13.4163  -3.0814  -2.8826
    -1.5424  -1.3898  -1.2768  -1.2599  -0.9184  -0.8693   2.0780   2.2622
     2.5549   2.6622   2.6937   2.8005   3.1187   3.2132   4.2068   4.3926

          k = 0.7086-0.4091-0.1661 (  5099 PWs)   bands (ev):

   -33.6816 -33.6791 -17.1368 -16.9804 -15.1838 -15.1405 -14.7908 -14.7681
   -14.7025 -14.5882 -13.8196 -13.8030 -13.4045 -13.3993  -3.1040  -2.8260
    -1.5820  -1.3537  -1.2810  -1.2125  -0.9387  -0.8747   1.9970   2.2629
     2.4899   2.6936   2.7152   2.8517   3.0983   3.2021   4.1734   4.4403

          k =-0.0000-0.0000 0.3738 (  5106 PWs)   bands (ev):

   -33.6840 -33.6777 -17.0819 -17.0770 -15.0527 -15.0527 -14.8781 -14.8781
   -14.6296 -14.5756 -13.7371 -13.7371 -13.4793 -13.4793  -3.2802  -3.1542
    -1.4662  -1.4662  -1.3364  -1.3364  -1.3320  -0.6955   2.4686   2.4686
     2.6801   2.6801   3.1091   3.1091   3.4071   3.4071   3.8727   4.0798

          k =-0.1417-0.0818 0.4153 (  5095 PWs)   bands (ev):

   -33.6831 -33.6784 -17.0781 -17.0776 -15.0834 -14.9760 -14.9730 -14.8271
   -14.6404 -14.5970 -13.7607 -13.6247 -13.5710 -13.4568  -3.2382  -3.1492
    -1.4533  -1.4368  -1.3547  -1.3513  -1.2174  -0.7703   2.4758   2.5097
     2.6365   2.6394   3.0161   3.1370   3.2691   3.3658   3.9616   4.0916

          k = 0.9920 0.5727 0.0831 (  5096 PWs)   bands (ev):

   -33.6819 -33.6794 -17.0814 -17.0645 -15.1148 -15.0132 -14.9334 -14.7740
   -14.6921 -14.6154 -13.7738 -13.6056 -13.5809 -13.4348  -3.1677  -3.0753
    -1.4579  -1.3963  -1.3662  -1.3311  -1.0738  -0.8398   2.3940   2.4883
     2.6032   2.6275   2.8270   3.0958   3.1066   3.2549   4.0968   4.1781

          k = 0.8503 0.4909 0.1246 (  5107 PWs)   bands (ev):

   -33.6805 -33.6805 -17.1057 -17.0267 -15.1617 -15.0123 -14.9245 -14.7567
   -14.7112 -14.6153 -13.8053 -13.6673 -13.5125 -13.4053  -3.1180  -2.9428
    -1.5227  -1.3587  -1.3497  -1.2599  -0.9508  -0.8863   2.1939   2.3475
     2.5915   2.6695   2.6884   2.9505   3.0831   3.1895   4.1743   4.3160

          k =-0.1417 0.0818 0.4569 (  5083 PWs)   bands (ev):

   -33.6825 -33.6790 -17.0828 -17.0735 -15.0700 -14.9769 -14.9605 -14.8589
   -14.6248 -14.6165 -13.7220 -13.6086 -13.5822 -13.4891  -3.2205  -3.1740
    -1.4440  -1.4207  -1.3802  -1.3408  -1.1594  -0.8326   2.4957   2.5293
     2.5925   2.6342   3.0552   3.1684   3.2177   3.3523   3.9814   4.0657

          k = 0.9920 0.7364 0.1246 (  5095 PWs)   bands (ev):

   -33.6816 -33.6797 -17.0796 -17.0704 -15.0762 -15.0490 -14.8838 -14.8341
   -14.6565 -14.6402 -13.7111 -13.6708 -13.5211 -13.4858  -3.1566  -3.1372
    -1.4318  -1.4150  -1.3724  -1.3344  -1.0498  -0.8907   2.4537   2.4785
     2.5979   2.6147   2.9502   3.0398   3.1768   3.2711   4.0892   4.1185

          k = 0.8503 0.6546 0.1661 (  5096 PWs)   bands (ev):

   -33.6805 -33.6805 -17.0873 -17.0520 -15.1182 -15.0371 -14.8799 -14.7798
   -14.7066 -14.6648 -13.7491 -13.6645 -13.5134 -13.4451  -3.1015  -3.0238
    -1.4762  -1.4036  -1.3318  -1.3019  -0.9414  -0.9120   2.2938   2.3608
     2.6132   2.6375   2.7768   2.8945   3.1480   3.1963   4.1832   4.2444

          k = 0.9920-0.5727-0.2077 (  5092 PWs)   bands (ev):

   -33.6811 -33.6801 -17.0945 -17.0523 -15.1233 -14.9769 -14.9378 -14.8034
   -14.6826 -14.6233 -13.7625 -13.5951 -13.5829 -13.4494  -3.1590  -3.0893
    -1.4685  -1.3843  -1.3458  -1.3340  -0.9864  -0.9376   2.3953   2.4534
     2.6071   2.6287   2.8967   3.0112   3.1370   3.2612   4.1117   4.1578

          k =-0.0000-0.0000 0.4984 (  5088 PWs)   bands (ev):

   -33.6819 -33.6797 -17.0809 -17.0792 -15.0025 -15.0025 -14.9427 -14.9427
   -14.6112 -14.5924 -13.6455 -13.6455 -13.5567 -13.5567  -3.2501  -3.2072
    -1.4238  -1.4238  -1.3788  -1.3788  -1.1163  -0.8959   2.5386   2.5386
     2.6118   2.6118   3.2011   3.2011   3.3041   3.3041   3.9361   4.0073

          k = 1.1337 0.6546 0.1661 (  5100 PWs)   bands (ev):

   -33.6811 -33.6804 -17.0806 -17.0759 -15.0501 -15.0154 -14.9265 -14.8850
   -14.6247 -14.6084 -13.6858 -13.6339 -13.5633 -13.5161  -3.2119  -3.1897
    -1.4233  -1.3903  -1.3903  -1.3804  -1.0268  -0.9604   2.5255   2.5524
     2.5819   2.5925   3.1061   3.1645   3.2362   3.2776   4.0097   4.0343

     highest occupied level (ev):     4.4824

!    total energy              =    -367.43036004 Ry
     Harris-Foulkes estimate   =    -367.43036004 Ry
     estimated scf accuracy    <          8.9E-09 Ry

     The total energy is the sum of the following terms:

     one-electron contribution =    -148.01998233 Ry
     hartree contribution      =     103.40840030 Ry
     xc contribution           =     -75.27133735 Ry
     ewald contribution        =    -247.54744065 Ry

     convergence has been achieved in   9 iterations

     Forces acting on atoms (cartesian axes, Ry/au):

     atom    1 type  1   force =     0.00000000    0.00000000    0.00000000
     atom    2 type  1   force =     0.00000000    0.00000000    0.00000000
     atom    3 type  2   force =    -0.00000000    0.00000000    0.00000000
     atom    4 type  2   force =    -0.00000000    0.00000000    0.00000000
     atom    5 type  3   force =     0.00015052   -0.00026071   -0.00000000
     atom    6 type  3   force =    -0.00030104    0.00000000   -0.00000000
     atom    7 type  3   force =     0.00015052    0.00026071    0.00000000
     atom    8 type  3   force =     0.00030104   -0.00000000    0.00000000
     atom    9 type  3   force =    -0.00015052   -0.00026071   -0.00000000
     atom   10 type  3   force =    -0.00015052    0.00026071    0.00000000

     Total force =     0.000737     Total SCF correction =     0.000131
     SCF correction compared to forces is large: reduce conv_thr to get better values


     Computing stress (Cartesian axis) and pressure

          total   stress  (Ry/bohr**3)                   (kbar)     P=   -0.22
  -0.00000271  -0.00000000  -0.00000000         -0.40     -0.00     -0.00
  -0.00000000  -0.00000271  -0.00000000         -0.00     -0.40     -0.00
  -0.00000000  -0.00000000   0.00000084         -0.00     -0.00      0.12


     Writing output data file CCO_k.save/
 
     init_run     :     29.46s CPU     35.15s WALL (       2 calls)
     electrons    :   1569.57s CPU   1736.66s WALL (       7 calls)
     update_pot   :      0.42s CPU      0.45s WALL (       5 calls)
     forces       :      5.23s CPU      5.45s WALL (       7 calls)
     stress       :      7.58s CPU      7.68s WALL (       7 calls)

     Called by init_run:
     wfcinit      :     28.26s CPU     33.82s WALL (       2 calls)
     potinit      :      0.15s CPU      0.16s WALL (       2 calls)
     hinit0       :      0.74s CPU      0.83s WALL (       2 calls)

     Called by electrons:
     c_bands      :   1466.38s CPU   1628.34s WALL (      45 calls)
     sum_band     :    101.60s CPU    106.20s WALL (      45 calls)
     v_of_rho     :      0.98s CPU      1.01s WALL (      50 calls)
     newd         :      0.31s CPU      0.33s WALL (      50 calls)
     mix_rho      :      0.16s CPU      0.17s WALL (      45 calls)

     Called by c_bands:
     init_us_2    :      1.36s CPU      1.59s WALL (    9010 calls)
     ccgdiagg     :   1088.38s CPU   1176.23s WALL (    3844 calls)
     wfcrot       :    403.87s CPU    478.11s WALL (    3249 calls)

     Called by sum_band:
     sum_band:bec :      1.07s CPU      1.12s WALL (    3825 calls)
     addusdens    :      0.11s CPU      0.12s WALL (      45 calls)

     Called by *cgdiagg:
     h_psi        :    939.21s CPU    997.66s WALL (  378801 calls)
     s_psi        :     30.84s CPU     34.80s WALL (  754353 calls)
     cdiaghg      :    154.06s CPU    216.18s WALL (    3249 calls)

     Called by h_psi:
     h_psi:pot    :    929.91s CPU    987.05s WALL (  378801 calls)
     h_psi:calbec :     99.54s CPU    106.32s WALL (  378801 calls)
     vloc_psi     :    794.26s CPU    842.14s WALL (  378801 calls)
     add_vuspsi   :     24.14s CPU     26.40s WALL (  378801 calls)
     hs_1psi      :    806.49s CPU    860.42s WALL (  375552 calls)
     s_1psi       :     85.24s CPU     95.11s WALL (  375552 calls)

     General routines
     calbec       :    155.05s CPU    170.10s WALL (  761153 calls)
     fft          :      1.61s CPU      1.67s WALL (     732 calls)
     ffts         :      0.07s CPU      0.07s WALL (      45 calls)
     fftw         :    855.44s CPU    904.69s WALL ( 1088240 calls)
 
     Parallel routines
     fft_scatt_xy :     32.02s CPU     33.69s WALL ( 1089017 calls)
     fft_scatt_yz :    687.56s CPU    729.91s WALL ( 1089017 calls)
 
     PWSCF        :  27m31.53s CPU  30m35.89s WALL

 
   This run was terminated on:  19:30:42   2May2022            

=------------------------------------------------------------------------------=
   JOB DONE.
=------------------------------------------------------------------------------=
