
     Program PWSCF v.6.4.1 starts on  4May2022 at  9:32:21 

     This program is part of the open-source Quantum ESPRESSO suite
     for quantum simulation of materials; please cite
         "P. Giannozzi et al., J. Phys.:Condens. Matter 21 395502 (2009);
         "P. Giannozzi et al., J. Phys.:Condens. Matter 29 465901 (2017);
          URL http://www.quantum-espresso.org", 
     in publications or presentations arising from this work. More details at
     http://www.quantum-espresso.org/quote

     Parallel version (MPI & OpenMP), running on     300 processor cores
     Number of MPI processes:               300
     Threads/MPI process:                     1

     MPI processes distributed on     5 nodes
     R & G space division:  proc/nbgrp/npool/nimage =     300
     Waiting for input...
     Reading input from standard input

     Current dimensions of program PWSCF are:
     Max number of different atomic species (ntypx) = 10
     Max number of k-points (npk) =  40000
     Max angular momentum in pseudopotentials (lmaxx) =  3

     Subspace diagonalization in iterative solution of the eigenvalue problem:
     one sub-group per band group will be used
     scalapack distributed-memory algorithm (size of sub-group: 12* 12 procs)

 
     Parallelization info
     --------------------
     sticks:   dense  smooth     PW     G-vecs:    dense   smooth      PW
     Min           7       7      2                  219      219      33
     Max           8       8      3                  230      230      39
     Sum        2399    2399    683                68127    68127   10489
 


     bravais-lattice index     =            5
     lattice parameter (alat)  =      12.1600  a.u.
     unit-cell volume          =     859.9058 (a.u.)^3
     number of atoms/cell      =           10
     number of atomic types    =            3
     number of electrons       =        64.00
     number of Kohn-Sham states=           32
     kinetic-energy cutoff     =      70.0000  Ry
     charge density cutoff     =     280.0000  Ry
     convergence threshold     =      1.0E-05
     mixing beta               =       0.7000
     number of iterations used =            8  plain     mixing
     Exchange-correlation      = SLA  PW   PBE  PBE ( 1  4  3  4 0 0)
     nstep                     =           50


     celldm(1)=  12.160000  celldm(2)=   0.000000  celldm(3)=   0.000000
     celldm(4)=   0.690000  celldm(5)=   0.000000  celldm(6)=   0.000000

     crystal axes: (cart. coord. in units of alat)
               a(1) = (   0.393700  -0.227303   0.890693 )  
               a(2) = (   0.000000   0.454606   0.890693 )  
               a(3) = (  -0.393700  -0.227303   0.890693 )  

     reciprocal axes: (cart. coord. in units 2 pi/alat)
               b(1) = (  1.270001 -0.733236  0.374241 )  
               b(2) = (  0.000000  1.466471  0.374241 )  
               b(3) = ( -1.270001 -0.733236  0.374241 )  


     PseudoPot. # 1 for Ca read from file:
     ./Ca_PBE.UPF
     MD5 check sum: 403a4c14b9e4d4dfdc3024c9a3812218
     Pseudo is Ultrasoft + core correction, Zval = 10.0
     Generated by new atomic code, or converted to UPF format
     Using radial grid of  845 points,  6 beta functions with: 
                l(1) =   0
                l(2) =   0
                l(3) =   1
                l(4) =   1
                l(5) =   2
                l(6) =   2
     Q(r) pseudized with  8 coefficients,  rinner =    1.500   1.500   1.500
                                                       1.500   1.500

     PseudoPot. # 2 for C  read from file:
     ./C_PBE.UPF
     MD5 check sum: d1aef80898a10debaa0f26306b886e00
     Pseudo is Ultrasoft + core correction, Zval =  4.0
     Generated by new atomic code, or converted to UPF format
     Using radial grid of  721 points,  4 beta functions with: 
                l(1) =   0
                l(2) =   0
                l(3) =   1
                l(4) =   1
     Q(r) pseudized with  8 coefficients,  rinner =    1.100   1.100   1.100


     PseudoPot. # 3 for O  read from file:
     ./O_PBE.UPF
     MD5 check sum: 734c27235a0248c51dbae37a1fbe46ec
     Pseudo is Ultrasoft + core correction, Zval =  6.0
     Generated by new atomic code, or converted to UPF format
     Using radial grid of  737 points,  5 beta functions with: 
                l(1) =   0
                l(2) =   0
                l(3) =   1
                l(4) =   1
                l(5) =   2
     Q(r) pseudized with  8 coefficients,  rinner =    0.900   0.900   0.900
                                                       0.900   0.900

     atomic species   valence    mass     pseudopotential
        Ca            10.00    40.07800     Ca( 1.00)
        C              4.00    12.01070     C ( 1.00)
        O              6.00    16.00000     O ( 1.00)

     12 Sym. Ops., with inversion, found ( 6 have fractional translation)



   Cartesian axes

     site n.     atom                  positions (alat units)
         1           Ca  tau(   1) = (   0.0000000  -0.0000000   1.3360389  )
         2           Ca  tau(   2) = (   0.0000000   0.0000000   0.0000000  )
         3           C   tau(   3) = (   0.0000000  -0.0000000   0.6680195  )
         4           C   tau(   4) = (   0.0000000  -0.0000000   2.0040584  )
         5           O   tau(   5) = (   0.1011823   0.2793531   1.5587121  )
         6           O   tau(   6) = (   0.1913357  -0.2273030   1.5587121  )
         7           O   tau(   7) = (  -0.2925180  -0.0520501   1.5587121  )
         8           O   tau(   8) = (  -0.1913357   0.2273030   1.1133658  )
         9           O   tau(   9) = (   0.2925180   0.0520501   1.1133658  )
        10           O   tau(  10) = (  -0.1011823  -0.2793531   1.1133658  )

     number of k points=    19
                       cart. coord. in units 2pi/alat
        k(    1) = (   0.0000000   0.0000000   0.0000000), wk =   0.0160000
        k(    2) = (  -0.2540003  -0.1466471   0.0748481), wk =   0.0960000
        k(    3) = (  -0.5080005  -0.2932942   0.1496962), wk =   0.0960000
        k(    4) = (  -0.2540003   0.1466471   0.1496962), wk =   0.0960000
        k(    5) = (  -0.5080005  -0.0000000   0.2245444), wk =   0.1920000
        k(    6) = (   0.5080005   0.5865885  -0.0748481), wk =   0.1920000
        k(    7) = (   0.2540003   0.4399413   0.0000000), wk =   0.0960000
        k(    8) = (  -0.5080005   0.2932942   0.2993925), wk =   0.0960000
        k(    9) = (   0.5080005   0.8798827   0.0000000), wk =   0.0960000
        k(   10) = (   0.0000000  -0.0000000   0.2245444), wk =   0.0320000
        k(   11) = (  -0.2540003  -0.1466471   0.2993925), wk =   0.0960000
        k(   12) = (   0.7620008   0.4399413   0.0000000), wk =   0.0960000
        k(   13) = (   0.5080005   0.2932942   0.0748481), wk =   0.0960000
        k(   14) = (  -0.2540003   0.1466471   0.3742406), wk =   0.0960000
        k(   15) = (   0.7620008   0.7332356   0.0748481), wk =   0.1920000
        k(   16) = (   0.5080005   0.5865885   0.1496962), wk =   0.1920000
        k(   17) = (   0.7620008  -0.4399413  -0.2245444), wk =   0.0960000
        k(   18) = (   0.0000000  -0.0000000   0.4490887), wk =   0.0320000
        k(   19) = (   1.0160010   0.5865885   0.1496962), wk =   0.0960000

     Dense  grid:    68127 G-vectors     FFT dimensions: (  72,  72,  72)

     Estimated max dynamical RAM per process >      17.17 MB

     Estimated total dynamical RAM >       5.03 GB
     Message from routine sym_rho_init:
     some processors have no G-vectors for symmetrization
     Message from routine sym_rho_init:
     some processors have no G-vectors for symmetrization
     Message from routine sym_rho_init:
     some processors have no G-vectors for symmetrization
     Message from routine sym_rho_init:
     some processors have no G-vectors for symmetrization
     Message from routine sym_rho_init:
     some processors have no G-vectors for symmetrization
     Message from routine sym_rho_init:
     some processors have no G-vectors for symmetrization
     Message from routine sym_rho_init:
     some processors have no G-vectors for symmetrization
     Message from routine sym_rho_init:
     some processors have no G-vectors for symmetrization
     Message from routine sym_rho_init:
     some processors have no G-vectors for symmetrization
     Message from routine sym_rho_init:
     some processors have no G-vectors for symmetrization
     Message from routine sym_rho_init:
     some processors have no G-vectors for symmetrization
     Message from routine sym_rho_init:
     some processors have no G-vectors for symmetrization
     Message from routine sym_rho_init:
     some processors have no G-vectors for symmetrization
     Message from routine sym_rho_init:
     some processors have no G-vectors for symmetrization
     Message from routine sym_rho_init:
     some processors have no G-vectors for symmetrization
     Message from routine sym_rho_init:
     some processors have no G-vectors for symmetrization
     Message from routine sym_rho_init:
     some processors have no G-vectors for symmetrization
     Message from routine sym_rho_init:
     some processors have no G-vectors for symmetrization
     Message from routine sym_rho_init:
     some processors have no G-vectors for symmetrization
     Message from routine sym_rho_init:
     some processors have no G-vectors for symmetrization
     Message from routine sym_rho_init:
     some processors have no G-vectors for symmetrization
     Message from routine sym_rho_init:
     some processors have no G-vectors for symmetrization
     Message from routine sym_rho_init:
     some processors have no G-vectors for symmetrization
     Message from routine sym_rho_init:
     some processors have no G-vectors for symmetrization
     Message from routine sym_rho_init:
     some processors have no G-vectors for symmetrization
     Message from routine sym_rho_init:
     some processors have no G-vectors for symmetrization
     Message from routine sym_rho_init:
     some processors have no G-vectors for symmetrization
     Message from routine sym_rho_init:
     some processors have no G-vectors for symmetrization
     Message from routine sym_rho_init:
     some processors have no G-vectors for symmetrization
     Message from routine sym_rho_init:
     some processors have no G-vectors for symmetrization
     Message from routine sym_rho_init:
     some processors have no G-vectors for symmetrization
     Message from routine sym_rho_init:
     some processors have no G-vectors for symmetrization
     Message from routine sym_rho_init:
     some processors have no G-vectors for symmetrization
     Message from routine sym_rho_init:
     some processors have no G-vectors for symmetrization
     Message from routine sym_rho_init:
     some processors have no G-vectors for symmetrization
     Message from routine sym_rho_init:
     some processors have no G-vectors for symmetrization
     Message from routine sym_rho_init:
     some processors have no G-vectors for symmetrization
     Message from routine sym_rho_init:
     some processors have no G-vectors for symmetrization
     Message from routine sym_rho_init:
     some processors have no G-vectors for symmetrization
     Message from routine sym_rho_init:
     some processors have no G-vectors for symmetrization
     Message from routine sym_rho_init:
     some processors have no G-vectors for symmetrization
     Message from routine sym_rho_init:
     some processors have no G-vectors for symmetrization
     Message from routine sym_rho_init:
     some processors have no G-vectors for symmetrization
     Message from routine sym_rho_init:
     some processors have no G-vectors for symmetrization
     Message from routine sym_rho_init:
     some processors have no G-vectors for symmetrization
     Message from routine sym_rho_init:
     some processors have no G-vectors for symmetrization
     Message from routine sym_rho_init:
     some processors have no G-vectors for symmetrization
     Message from routine sym_rho_init:
     some processors have no G-vectors for symmetrization
     Message from routine sym_rho_init:
     some processors have no G-vectors for symmetrization
     Message from routine sym_rho_init:
     some processors have no G-vectors for symmetrization
     Message from routine sym_rho_init:
     some processors have no G-vectors for symmetrization
     Message from routine sym_rho_init:
     some processors have no G-vectors for symmetrization
     Message from routine sym_rho_init:
     some processors have no G-vectors for symmetrization
     Message from routine sym_rho_init:
     some processors have no G-vectors for symmetrization
     Message from routine sym_rho_init:
     some processors have no G-vectors for symmetrization
     Message from routine sym_rho_init:
     some processors have no G-vectors for symmetrization
     Message from routine sym_rho_init:
     some processors have no G-vectors for symmetrization
     Message from routine sym_rho_init:
     some processors have no G-vectors for symmetrization
     Message from routine sym_rho_init:
     some processors have no G-vectors for symmetrization
     Message from routine sym_rho_init:
     some processors have no G-vectors for symmetrization
     Message from routine sym_rho_init:
     some processors have no G-vectors for symmetrization
     Message from routine sym_rho_init:
     some processors have no G-vectors for symmetrization
     Message from routine sym_rho_init:
     some processors have no G-vectors for symmetrization
     Message from routine sym_rho_init:
     some processors have no G-vectors for symmetrization
     Message from routine sym_rho_init:
     some processors have no G-vectors for symmetrization
     Message from routine sym_rho_init:
     some processors have no G-vectors for symmetrization
     Message from routine sym_rho_init:
     some processors have no G-vectors for symmetrization
     Message from routine sym_rho_init:
     some processors have no G-vectors for symmetrization
     Message from routine sym_rho_init:
     some processors have no G-vectors for symmetrization
     Message from routine sym_rho_init:
     some processors have no G-vectors for symmetrization
     Message from routine sym_rho_init:
     some processors have no G-vectors for symmetrization
     Message from routine sym_rho_init:
     some processors have no G-vectors for symmetrization
     Message from routine sym_rho_init:
     some processors have no G-vectors for symmetrization
     Message from routine sym_rho_init:
     some processors have no G-vectors for symmetrization
     Message from routine sym_rho_init:
     some processors have no G-vectors for symmetrization
     Message from routine sym_rho_init:
     some processors have no G-vectors for symmetrization
     Message from routine sym_rho_init:
     some processors have no G-vectors for symmetrization
     Message from routine sym_rho_init:
     some processors have no G-vectors for symmetrization
     Message from routine sym_rho_init:
     some processors have no G-vectors for symmetrization
     Message from routine sym_rho_init:
     some processors have no G-vectors for symmetrization
     Message from routine sym_rho_init:
     some processors have no G-vectors for symmetrization
     Message from routine sym_rho_init:
     some processors have no G-vectors for symmetrization
     Message from routine sym_rho_init:
     some processors have no G-vectors for symmetrization
     Message from routine sym_rho_init:
     some processors have no G-vectors for symmetrization
     Message from routine sym_rho_init:
     some processors have no G-vectors for symmetrization
     Message from routine sym_rho_init:
     some processors have no G-vectors for symmetrization
     Message from routine sym_rho_init:
     some processors have no G-vectors for symmetrization
     Message from routine sym_rho_init:
     some processors have no G-vectors for symmetrization
     Message from routine sym_rho_init:
     some processors have no G-vectors for symmetrization
     Message from routine sym_rho_init:
     some processors have no G-vectors for symmetrization
     Message from routine sym_rho_init:
     some processors have no G-vectors for symmetrization
     Message from routine sym_rho_init:
     some processors have no G-vectors for symmetrization
     Message from routine sym_rho_init:
     some processors have no G-vectors for symmetrization
     Message from routine sym_rho_init:
     some processors have no G-vectors for symmetrization
     Message from routine sym_rho_init:
     some processors have no G-vectors for symmetrization
     Message from routine sym_rho_init:
     some processors have no G-vectors for symmetrization
     Message from routine sym_rho_init:
     some processors have no G-vectors for symmetrization
     Message from routine sym_rho_init:
     some processors have no G-vectors for symmetrization
     Message from routine sym_rho_init:
     some processors have no G-vectors for symmetrization
     Message from routine sym_rho_init:
     some processors have no G-vectors for symmetrization
     Message from routine sym_rho_init:
     some processors have no G-vectors for symmetrization
     Message from routine sym_rho_init:
     some processors have no G-vectors for symmetrization
     Message from routine sym_rho_init:
     some processors have no G-vectors for symmetrization
     Message from routine sym_rho_init:
     some processors have no G-vectors for symmetrization
     Message from routine sym_rho_init:
     some processors have no G-vectors for symmetrization
     Message from routine sym_rho_init:
     some processors have no G-vectors for symmetrization
     Message from routine sym_rho_init:
     some processors have no G-vectors for symmetrization
     Message from routine sym_rho_init:
     some processors have no G-vectors for symmetrization
     Message from routine sym_rho_init:
     some processors have no G-vectors for symmetrization
     Message from routine sym_rho_init:
     some processors have no G-vectors for symmetrization
     Message from routine sym_rho_init:
     some processors have no G-vectors for symmetrization
     Message from routine sym_rho_init:
     some processors have no G-vectors for symmetrization
     Message from routine sym_rho_init:
     some processors have no G-vectors for symmetrization
     Message from routine sym_rho_init:
     some processors have no G-vectors for symmetrization
     Message from routine sym_rho_init:
     some processors have no G-vectors for symmetrization
     Message from routine sym_rho_init:
     some processors have no G-vectors for symmetrization
     Message from routine sym_rho_init:
     some processors have no G-vectors for symmetrization
     Message from routine sym_rho_init:
     some processors have no G-vectors for symmetrization
     Message from routine sym_rho_init:
     some processors have no G-vectors for symmetrization
     Message from routine sym_rho_init:
     some processors have no G-vectors for symmetrization
     Message from routine sym_rho_init:
     some processors have no G-vectors for symmetrization
     Message from routine sym_rho_init:
     some processors have no G-vectors for symmetrization
     Message from routine sym_rho_init:
     some processors have no G-vectors for symmetrization
     Message from routine sym_rho_init:
     some processors have no G-vectors for symmetrization
     Message from routine sym_rho_init:
     some processors have no G-vectors for symmetrization
     Message from routine sym_rho_init:
     some processors have no G-vectors for symmetrization
     Message from routine sym_rho_init:
     some processors have no G-vectors for symmetrization
     Message from routine sym_rho_init:
     some processors have no G-vectors for symmetrization
     Message from routine sym_rho_init:
     some processors have no G-vectors for symmetrization
     Message from routine sym_rho_init:
     some processors have no G-vectors for symmetrization
     Message from routine sym_rho_init:
     some processors have no G-vectors for symmetrization
     Message from routine sym_rho_init:
     some processors have no G-vectors for symmetrization
     Message from routine sym_rho_init:
     some processors have no G-vectors for symmetrization
     Message from routine sym_rho_init:
     some processors have no G-vectors for symmetrization
     Message from routine sym_rho_init:
     some processors have no G-vectors for symmetrization
     Message from routine sym_rho_init:
     some processors have no G-vectors for symmetrization
     Message from routine sym_rho_init:
     some processors have no G-vectors for symmetrization
     Message from routine sym_rho_init:
     some processors have no G-vectors for symmetrization
     Message from routine sym_rho_init:
     some processors have no G-vectors for symmetrization
     Message from routine sym_rho_init:
     some processors have no G-vectors for symmetrization
     Message from routine sym_rho_init:
     some processors have no G-vectors for symmetrization
     Message from routine sym_rho_init:
     some processors have no G-vectors for symmetrization
     Message from routine sym_rho_init:
     some processors have no G-vectors for symmetrization
     Message from routine sym_rho_init:
     some processors have no G-vectors for symmetrization
     Message from routine sym_rho_init:
     some processors have no G-vectors for symmetrization
     Message from routine sym_rho_init:
     some processors have no G-vectors for symmetrization
     Message from routine sym_rho_init:
     some processors have no G-vectors for symmetrization
     Message from routine sym_rho_init:
     some processors have no G-vectors for symmetrization

     Check: negative core charge=   -0.000003

     Initial potential from superposition of free atoms

     starting charge   63.98899, renormalised to   64.00000
     Starting wfcs are   52 randomized atomic wfcs

     total cpu time spent up to now is        6.9 secs

     Self-consistent Calculation

     iteration #  1     ecut=    70.00 Ry     beta= 0.70
     CG style diagonalization
     ethr =  1.00E-02,  avg # of iterations =  2.7

     total cpu time spent up to now is       13.8 secs

     total energy              =    -366.66795096 Ry
     Harris-Foulkes estimate   =    -367.89146845 Ry
     estimated scf accuracy    <       1.75312594 Ry

     iteration #  2     ecut=    70.00 Ry     beta= 0.70
     CG style diagonalization
     ethr =  2.74E-03,  avg # of iterations =  4.4

     total cpu time spent up to now is       25.1 secs

     total energy              =    -367.09746239 Ry
     Harris-Foulkes estimate   =    -367.92497547 Ry
     estimated scf accuracy    <       1.70915394 Ry

     iteration #  3     ecut=    70.00 Ry     beta= 0.70
     CG style diagonalization
     ethr =  2.67E-03,  avg # of iterations =  3.8

     total cpu time spent up to now is       35.1 secs

     total energy              =    -367.42110183 Ry
     Harris-Foulkes estimate   =    -367.42324779 Ry
     estimated scf accuracy    <       0.01103635 Ry

     iteration #  4     ecut=    70.00 Ry     beta= 0.70
     CG style diagonalization
     ethr =  1.72E-05,  avg # of iterations =  4.5

     total cpu time spent up to now is       46.6 secs

     total energy              =    -367.43267981 Ry
     Harris-Foulkes estimate   =    -367.43376608 Ry
     estimated scf accuracy    <       0.00289127 Ry

     iteration #  5     ecut=    70.00 Ry     beta= 0.70
     CG style diagonalization
     ethr =  4.52E-06,  avg # of iterations =  3.5

     total cpu time spent up to now is       55.8 secs

     total energy              =    -367.43303938 Ry
     Harris-Foulkes estimate   =    -367.43309645 Ry
     estimated scf accuracy    <       0.00019420 Ry

     iteration #  6     ecut=    70.00 Ry     beta= 0.70
     CG style diagonalization
     ethr =  3.03E-07,  avg # of iterations =  4.1

     total cpu time spent up to now is       66.4 secs

     total energy              =    -367.43308587 Ry
     Harris-Foulkes estimate   =    -367.43310628 Ry
     estimated scf accuracy    <       0.00003425 Ry

     iteration #  7     ecut=    70.00 Ry     beta= 0.70
     CG style diagonalization
     ethr =  5.35E-08,  avg # of iterations =  4.0

     total cpu time spent up to now is       76.9 secs

     End of self-consistent calculation

          k = 0.0000 0.0000 0.0000 (  8507 PWs)   bands (ev):

   -33.7790 -33.7668 -17.0608 -17.0490 -15.1885 -15.1885 -14.8409 -14.8409
   -14.7517 -14.6378 -13.9178 -13.9178 -13.4049 -13.4049  -3.3704  -3.1080
    -1.6924  -1.5622  -1.5622  -1.3107  -1.3107  -0.4007   2.3128   2.3128
     2.7343   2.7343   2.9041   2.9041   3.5266   3.5266   3.7119   4.1367

          k =-0.2540-0.1466 0.0748 (  8507 PWs)   bands (ev):

   -33.7777 -33.7678 -17.0743 -17.0240 -15.1860 -15.0935 -14.9662 -14.8389
   -14.7760 -14.7422 -13.8462 -13.7014 -13.5406 -13.4349  -3.2306  -3.1184
    -1.5829  -1.5037  -1.4375  -1.3524  -1.2977  -0.5511   2.3710   2.4481
     2.6031   2.6075   2.7352   2.7549   3.3326   3.3611   3.9841   4.1475

          k =-0.5080-0.2933 0.1497 (  8498 PWs)   bands (ev):

   -33.7744 -33.7706 -17.0677 -17.0103 -15.1479 -15.0835 -15.0623 -14.9646
   -14.7411 -14.7176 -13.7076 -13.6407 -13.5784 -13.5356  -3.0611  -3.0439
    -1.5627  -1.4662  -1.2912  -1.2762  -1.0945  -0.7880   2.1367   2.2238
     2.4848   2.5265   2.7258   2.8092   3.0920   3.1150   4.2000   4.2383

          k =-0.2540 0.1466 0.1497 (  8495 PWs)   bands (ev):

   -33.7774 -33.7681 -17.0823 -17.0174 -15.1484 -15.1398 -14.8954 -14.8562
   -14.8072 -14.7679 -13.7790 -13.7500 -13.5017 -13.4790  -3.2142  -3.1445
    -1.5276  -1.4958  -1.4900  -1.3332  -1.2826  -0.5826   2.3739   2.4119
     2.5864   2.5981   2.7283   2.8517   3.2437   3.4126   3.9937   4.1255

          k =-0.5080-0.0000 0.2245 (  8507 PWs)   bands (ev):

   -33.7752 -33.7699 -17.0884 -16.9951 -15.2024 -15.1104 -14.9682 -14.8923
   -14.7625 -14.7408 -13.8010 -13.6734 -13.5489 -13.4675  -3.1079  -3.0518
    -1.5326  -1.4414  -1.3960  -1.2619  -1.1323  -0.7465   2.1752   2.3282
     2.4796   2.5223   2.6552   2.8224   3.0449   3.2564   4.1655   4.2331

          k = 0.5080 0.5866-0.0748 (  8488 PWs)   bands (ev):

   -33.7728 -33.7721 -17.0563 -17.0192 -15.1756 -15.1151 -15.0324 -14.9134
   -14.7587 -14.7236 -13.7748 -13.6814 -13.5433 -13.4732  -3.0360  -2.9795
    -1.5625  -1.4565  -1.3315  -1.2415  -0.9308  -0.8656   2.0797   2.1570
     2.3881   2.4601   2.6675   2.7308   3.1130   3.1505   4.2507   4.3090

          k = 0.2540 0.4399 0.0000 (  8493 PWs)   bands (ev):

   -33.7758 -33.7693 -17.0972 -16.9816 -15.2090 -15.1221 -15.0053 -14.8328
   -14.7922 -14.7166 -13.8023 -13.6960 -13.5276 -13.4680  -3.1103  -3.0402
    -1.5766  -1.4029  -1.3422  -1.2670  -1.2406  -0.7097   2.1789   2.4181
     2.4391   2.5119   2.5909   2.8165   3.1264   3.2469   4.1633   4.2442

          k =-0.5080 0.2933 0.2994 (  8514 PWs)   bands (ev):

   -33.7749 -33.7701 -17.1334 -16.9397 -15.2488 -15.2334 -14.8385 -14.8151
   -14.7765 -14.7044 -13.8940 -13.8079 -13.4521 -13.4128  -3.1897  -2.9152
    -1.6050  -1.4091  -1.3102  -1.2321  -1.0481  -0.8301   1.9632   2.2519
     2.4422   2.6692   2.6829   2.7675   3.0216   3.2582   4.0727   4.3548

          k = 0.5080 0.8799 0.0000 (  8504 PWs)   bands (ev):

   -33.7737 -33.7712 -17.0982 -16.9779 -15.2318 -15.1577 -14.8958 -14.8666
   -14.7975 -14.7278 -13.8676 -13.7241 -13.4977 -13.4241  -3.0981  -2.9162
    -1.5487  -1.4778  -1.3423  -1.2264  -0.9238  -0.8374   1.9562   2.1684
     2.4524   2.5452   2.6184   2.6354   3.1187   3.2031   4.1789   4.3761

          k = 0.0000-0.0000 0.2245 (  8525 PWs)   bands (ev):

   -33.7778 -33.7680 -17.0606 -17.0511 -15.1642 -15.1642 -14.8891 -14.8891
   -14.7394 -14.6474 -13.8540 -13.8540 -13.4451 -13.4451  -3.3615  -3.1571
    -1.5516  -1.5380  -1.5380  -1.3347  -1.3347  -0.5128   2.3532   2.3532
     2.6879   2.6879   2.9632   2.9632   3.4582   3.4582   3.7471   4.0856

          k =-0.2540-0.1466 0.2994 (  8497 PWs)   bands (ev):

   -33.7760 -33.7695 -17.0591 -17.0426 -15.1833 -15.0616 -15.0383 -14.8166
   -14.7923 -14.7043 -13.8299 -13.6428 -13.6063 -13.4469  -3.2462  -3.1388
    -1.5059  -1.4926  -1.3877  -1.3456  -1.2692  -0.6752   2.3637   2.4679
     2.5816   2.5840   2.7271   2.9234   3.2061   3.3003   3.9871   4.1173

          k = 0.7620 0.4399 0.0000 (  8513 PWs)   bands (ev):

   -33.7729 -33.7721 -17.0716 -17.0099 -15.1963 -15.0934 -15.0171 -14.9143
   -14.7673 -14.7003 -13.7668 -13.6893 -13.5588 -13.4720  -3.1318  -2.9793
    -1.5640  -1.4426  -1.3503  -1.2527  -0.9718  -0.8631   2.0899   2.2339
     2.4487   2.5809   2.6815   2.9475   2.9551   3.1162   4.1543   4.2767

          k = 0.5080 0.2933 0.0748 (  8504 PWs)   bands (ev):

   -33.7752 -33.7699 -17.1141 -16.9587 -15.2230 -15.1783 -14.9496 -14.8482
   -14.7865 -14.6890 -13.8409 -13.6957 -13.5277 -13.4453  -3.1409  -2.9601
    -1.6068  -1.3905  -1.2941  -1.2682  -1.1329  -0.7801   2.0205   2.3238
     2.3856   2.6230   2.6284   2.9482   2.9633   3.2214   4.1223   4.3146

          k =-0.2540 0.1466 0.3742 (  8508 PWs)   bands (ev):

   -33.7754 -33.7701 -17.0792 -17.0246 -15.1783 -15.0543 -14.9920 -14.8783
   -14.7754 -14.7350 -13.7692 -13.6726 -13.5666 -13.4987  -3.2001  -3.1995
    -1.5054  -1.4522  -1.4139  -1.3177  -1.2089  -0.7575   2.3851   2.3921
     2.5665   2.5742   2.8197   2.9954   3.0738   3.3335   4.0212   4.0661

          k = 0.7620 0.7332 0.0748 (  8500 PWs)   bands (ev):

   -33.7736 -33.7715 -17.0632 -17.0277 -15.1707 -15.1214 -14.9115 -14.8991
   -14.7997 -14.7734 -13.7637 -13.6967 -13.5343 -13.4893  -3.0977  -3.0767
    -1.4865  -1.4824  -1.3794  -1.2897  -0.9819  -0.8455   2.1829   2.2308
     2.5282   2.5788   2.6787   2.7723   3.0522   3.1864   4.1795   4.2066

          k = 0.5080 0.5866 0.1497 (  8497 PWs)   bands (ev):

   -33.7734 -33.7714 -17.0865 -16.9893 -15.2131 -15.1403 -14.9863 -14.8239
   -14.7934 -14.7363 -13.8465 -13.6854 -13.5349 -13.4309  -3.0811  -2.9336
    -1.5785  -1.4342  -1.3090  -1.2736  -0.9387  -0.8349   1.9930   2.1747
     2.4010   2.5318   2.6250   2.6987   3.1203   3.1708   4.2005   4.3574

          k = 0.7620-0.4399-0.2245 (  8513 PWs)   bands (ev):

   -33.7737 -33.7713 -17.1180 -16.9605 -15.2548 -15.1837 -14.8699 -14.8319
   -14.7983 -14.6877 -13.8394 -13.8271 -13.4535 -13.4321  -3.1873  -2.9239
    -1.6035  -1.3992  -1.2961  -1.2717  -0.9592  -0.8873   1.9899   2.2255
     2.5011   2.6253   2.6669   2.7825   3.0422   3.1836   4.0876   4.3380

          k = 0.0000-0.0000 0.4491 (  8480 PWs)   bands (ev):

   -33.7748 -33.7710 -17.0592 -17.0556 -15.0949 -15.0949 -14.9930 -14.9930
   -14.7088 -14.6737 -13.7090 -13.7090 -13.5560 -13.5560  -3.3258  -3.2518
    -1.4748  -1.4748  -1.3974  -1.3974  -1.2091  -0.8154   2.4577   2.4577
     2.5838   2.5838   3.1053   3.1053   3.2913   3.2913   3.8412   3.9674

          k = 1.0160 0.5866 0.1497 (  8513 PWs)   bands (ev):

   -33.7731 -33.7724 -17.0643 -17.0407 -15.1735 -15.0761 -14.9989 -14.8904
   -14.7594 -14.7045 -13.7736 -13.6407 -13.6090 -13.4928  -3.2399  -3.1754
    -1.4881  -1.4129  -1.3967  -1.3868  -1.0226  -0.9276   2.3740   2.4368
     2.5458   2.5642   2.8623   3.0162   3.1134   3.1956   4.0123   4.0659

     highest occupied level (ev):     4.3761

!    total energy              =    -367.43309772 Ry
     Harris-Foulkes estimate   =    -367.43310147 Ry
     estimated scf accuracy    <       0.00000596 Ry

     The total energy is the sum of the following terms:

     one-electron contribution =    -148.41433519 Ry
     hartree contribution      =     103.43160600 Ry
     xc contribution           =     -75.20935325 Ry
     ewald contribution        =    -247.24101528 Ry

     convergence has been achieved in   7 iterations

     Forces acting on atoms (cartesian axes, Ry/au):

     atom    1 type  1   force =     0.00000000    0.00000000    0.00000000
     atom    2 type  1   force =     0.00000000    0.00000000    0.00000000
     atom    3 type  2   force =     0.00000000   -0.00000000    0.00000000
     atom    4 type  2   force =     0.00000000   -0.00000000    0.00000000
     atom    5 type  3   force =    -0.00576763    0.00998983    0.00000000
     atom    6 type  3   force =     0.01153526   -0.00000000    0.00000000
     atom    7 type  3   force =    -0.00576763   -0.00998983   -0.00000000
     atom    8 type  3   force =    -0.01153526    0.00000000   -0.00000000
     atom    9 type  3   force =     0.00576763    0.00998983    0.00000000
     atom   10 type  3   force =     0.00576763   -0.00998983   -0.00000000

     Total force =     0.028256     Total SCF correction =     0.001086


     Computing stress (Cartesian axis) and pressure

          total   stress  (Ry/bohr**3)                   (kbar)     P=  -16.70
  -0.00015458   0.00000000  -0.00000000        -22.74      0.00     -0.00
   0.00000000  -0.00015458  -0.00000000          0.00    -22.74     -0.00
   0.00000000  -0.00000000  -0.00003141          0.00     -0.00     -4.62


     number of scf cycles    =   2
     number of bfgs steps    =   1

     enthalpy old            =    -367.4335253758 Ry
     enthalpy new            =    -367.4330977198 Ry

     CASE: enthalpy_new > enthalpy_old


 %%%%%%%%%%%%%%%%%%%%%%%%%%%%%%%%%%%%%%%%%%%%%%%%%%%%%%%%%%%%%%%%%%%%%%%%%%%%%%
     Error in routine bfgs (1):
     dE0s is positive which should never happen
 %%%%%%%%%%%%%%%%%%%%%%%%%%%%%%%%%%%%%%%%%%%%%%%%%%%%%%%%%%%%%%%%%%%%%%%%%%%%%%

     stopping ...
                                                                                                                                                                                                                                                                                                                                                                                                                                                                                                                                                                                                                                                                                                                                                                                                                                                                                                                                                                                                                                                                                                                                                                                                                                                                                                                                                                                                                                                                                                                                                                                                                                                                                                                                                                                                                                                                                                                                                                                                                                                                                                                                                                                                                                                                                                                                                                                                                                                                                                                                                                                                                                                                                                                                                                                                                                                                                                                                                                                                                                                                                                                                                                                                                                                                                                                                                                                                                                                                                                                                                                                                                                                                                                                                                                                                                                                                                                                                                                                                                                                                                                                                                                                                                                                                                                                                                                                                                                                                                                                                                                                                                                                                                                                                                                                                                                                                                                                                                                                                                                                                                                                                                                                                                                                                                                                                                                                                                                                                                                                                                                                                                                                                                                                                                                                                                                                                                                                                                                                                                                                                                                                                                                                                                                                                                                                                                                                                                                                                                                                                                                                                                                                                                                                                                                                                                                                                                                                                                                                                                                                                                                                                                                                                                                                                                                                                                                                                                                                                                                                                                                                                                                                                                                                                                                                                                                                                                                                                                                                                                                                                                                                                                                                                                                                                                                                                                                                                                                                                                                                                                                                                                                                                                                                                                                                                                                                                                                                                                                                                                                                                                                                                                                                                                                                                                                                                                                                                                                                                                                                                                                                                                                                                                                                                                                                                                                                                                                                                                                                                                                                                                                                                                                                                                                                                                                                                                                                                                                                                                                                                                                                                                                                                                                                                                                                                                                                                                                                                                                                                                                                                                                                                                                                                                                                                                                                                                                                                                                                                                                                                                                                                                                                                                                                                                                                                                                                                                                                                                                                                                                                                                                                                                                                                                                                                                                                                                                                                                                                                                                                                                                                                                                                                                                                                                                                                                                                                                                                                                                                                                                                                                                                                                                                                                                                                                                                                                                                                                                                                                                                                                                                                                                                                                                                                                                                                                                                                                                                                                                                                                                                                                                                                                                                                                                                                                                                                                                                                                                                                                                                                                                                                                                                                                                                                                                                                                                                                                                                                                                                                                                                                                                                                                                                                                                                                                                                                                                                                                                                                                                                                                                                                                                                                                                                                                                                                                                                                                                                                                                                                                                                                                                                                                                                                                                                                                                                                                                                                                                                                                                                                                                                                                                                                                                                                                                                                                                                                                                                                                                                                                                                                                                                                                                                                                                                                                                                                                                                                                                                                                                                                                                                                                                                                                                                                                                                                                                                                                                                                                                                                                                                                                                                                                                                                                                                                                                                                                                                                                                                                                                                                                                                                                                                                                                                                                                                                                                                                                                                                                                                                                                                                                                                                                                                                                                                                                                                                                                                                                                                                                                                                                                                                                                                                                                                                                                                                                                                                                                                                                                                                                                                                                                                                                                                                                                                                                                                                                                                                                                                                                                                                                                                                                                                                                                                                                                                                                                                                                                                                                                                                                                                                                                                                                                                                                                                                                                                                                                                                                                                                                                                                                                                                                                                                                                                                                                                                                                                                                                                                                                                                                                                                                                                                                                                                                                                                                                                                                                                                                                                                                                                                                                                                                                                                                                                                                                                                                                                                                                                                                                                                                                                                                                                                                                                                                                                                                                                                                                                                                                                                                                                                                                                                                                                                                                                                                                                                                                                                                                                                                                                                                                                                                                                                                                                                                                                                                                                                                                                                                                                                                                                                                                                                                                                                                                                                                                                                                                                                                                                                                                                                                                                                                                                                                                                                                                                                                                                                                                                                                                                                                                                                                                                                                                                                                                                                                                                                                                                                                                                                                                                                                                                                                                                                                                                                                                                                                                                                                                                                                                                                                                                                                                                                                                                                                                                                                                                                                                                                                                                                                                                                                                                                                                                                                                                                                                                                                                                                                                                                                                                                                                                                                                                                                                                                                                                                                                                                                                                                                                                                                                                                                                                                                                                                                                                                                                                                                                                                                                                                                                                                                                                                                                                                                                                                                                                                                                                                                                                                                                                                                                                                                                                                                                                                                                                                                                                                                                                                                                                                                                                                                                                                                                                                                                                                                                                                                                                                                                                                                                                                                                                                                                                                                                                                                                                                                                                                                                                                                                                                                                                                                                                                                                                                                                                                                                                                                                                                                                                                                                                                                                                                                                                                                                                                                                                                                                                                                                                                                                                                                                                                                                                                                                                                                                                                                                                                                                                                                                                                                                                                                                                                                                                                                                                                                                                                                                                                                                                                                                                                                                                                                                                                                                                                                                                                                                                                                                                                                                                                                                                                                                                                                                                                                                                                                                                                                                                                                                                                                                                                                                                                                                                                                                                                                                                                                                                                                                                                                                                                                                                                                                                                                                                                                                                                                                                                                                                                                                                                                                                                                                                                                                                                                                                                                                                                                                                                                                                                                                                                                                                                                                                                                                                                                                                                                                                                                                                                                                                                                                                                                                                                                                                                                                                                                                                                                                                                                                                                                                                                                                                                                                                                                                                                                                                                                                                                                                                                                                                                                                                                                                                                                                                                                                                                                                                                                                                                                                                                                                                                                                                                                                                                                                                                                                                                                                                                                                                                                                                                                                                                                                                                                                                                                                                                                                                                                                                                                                                                                                                                                                                                                                                                                                                                                                                                                                                                                                                                                                                                                                                                                                                                                                                                                                                                                                                                                                                                                                                                                                                                                                                                                                                                                                                                                                                                                                                                                                                                                                                                                                                                                                                                                                                                                                                                                                                                                                                                                                                                                                                                                                                                                                                                                                                                                                                                                                                                                                                                                                                                                                                                                                                                                                                                                                                                                                                                                                                                                                                                                                                                                                                                                                                                                                                                                                                                                                                                                                                                                                                                                                                                                                                                                                                                                                                                                                                                                                                                                                                                                                                                                                                                                                                                                                                                                                                                                                                                                                                                                                                                                                                                                                                                                                                                                                                                                                                                                                                                                                                                                                                                                                                                                                                                                                                                                                                                                                                                                                                                                                                                                                                                                                                                                                                                                                                                                                                                                                                                                                                                                                                                                                                                                                                                                                                                                                                                                                                                                                                                                                                                                                                                                                                                                                                                                                                                                                                                                                                                                                                                                                                                                                                                                                                                                                                                                                                                                                                                                                                                                                                                                                                                                                                                                                                                                                                                                                                                                                                                                                                                                                                                                                                                                                                                                                                                                                                                                                                                                                                                                                                                                                                                                                                                                                                                                                                                                                                                                                                                                                                                                                                                                                                                                                                                                                                                                                                                                                                                                                                                                                                                                                                                                                                                                                                                                                                                                                                                                                                                                                                                                                                                                                                                                                                                                                                                                              
[...]
     some processors have no G-vectors for symmetrization
     Message from routine sym_rho_init:
     some processors have no G-vectors for symmetrization
     Message from routine sym_rho_init:
     some processors have no G-vectors for symmetrization
     Message from routine sym_rho_init:
     some processors have no G-vectors for symmetrization
     Message from routine sym_rho_init:
     some processors have no G-vectors for symmetrization
     Message from routine sym_rho_init:
     some processors have no G-vectors for symmetrization
     Message from routine sym_rho_init:
     some processors have no G-vectors for symmetrization
     Message from routine sym_rho_init:
     some processors have no G-vectors for symmetrization
     Message from routine sym_rho_init:
     some processors have no G-vectors for symmetrization
     Message from routine sym_rho_init:
     some processors have no G-vectors for symmetrization
     Message from routine sym_rho_init:
     some processors have no G-vectors for symmetrization
     Message from routine sym_rho_init:
     some processors have no G-vectors for symmetrization
     Message from routine sym_rho_init:
     some processors have no G-vectors for symmetrization
     Message from routine sym_rho_init:
     some processors have no G-vectors for symmetrization
     Message from routine sym_rho_init:
     some processors have no G-vectors for symmetrization
     Message from routine sym_rho_init:
     some processors have no G-vectors for symmetrization
     Message from routine sym_rho_init:
     some processors have no G-vectors for symmetrization
     Message from routine sym_rho_init:
     some processors have no G-vectors for symmetrization
     Message from routine sym_rho_init:
     some processors have no G-vectors for symmetrization
     Message from routine sym_rho_init:
     some processors have no G-vectors for symmetrization
     Message from routine sym_rho_init:
     some processors have no G-vectors for symmetrization
     Message from routine sym_rho_init:
     some processors have no G-vectors for symmetrization
     Message from routine sym_rho_init:
     some processors have no G-vectors for symmetrization
     Message from routine sym_rho_init:
     some processors have no G-vectors for symmetrization
     Message from routine sym_rho_init:
     some processors have no G-vectors for symmetrization
     Message from routine sym_rho_init:
     some processors have no G-vectors for symmetrization
     Message from routine sym_rho_init:
     some processors have no G-vectors for symmetrization
     Message from routine sym_rho_init:
     some processors have no G-vectors for symmetrization
     Message from routine sym_rho_init:
     some processors have no G-vectors for symmetrization
     Message from routine sym_rho_init:
     some processors have no G-vectors for symmetrization
     Message from routine sym_rho_init:
     some processors have no G-vectors for symmetrization
     Message from routine sym_rho_init:
     some processors have no G-vectors for symmetrization
     Message from routine sym_rho_init:
     some processors have no G-vectors for symmetrization
     Message from routine sym_rho_init:
     some processors have no G-vectors for symmetrization
     Message from routine sym_rho_init:
     some processors have no G-vectors for symmetrization
     Message from routine sym_rho_init:
     some processors have no G-vectors for symmetrization
     Message from routine sym_rho_init:
     some processors have no G-vectors for symmetrization
     Message from routine sym_rho_init:
     some processors have no G-vectors for symmetrization
     Message from routine sym_rho_init:
     some processors have no G-vectors for symmetrization
     Message from routine sym_rho_init:
     some processors have no G-vectors for symmetrization
     Message from routine sym_rho_init:
     some processors have no G-vectors for symmetrization
     Message from routine sym_rho_init:
     some processors have no G-vectors for symmetrization
     Message from routine sym_rho_init:
     some processors have no G-vectors for symmetrization
     Message from routine sym_rho_init:
     some processors have no G-vectors for symmetrization
     Message from routine sym_rho_init:
     some processors have no G-vectors for symmetrization
     Message from routine sym_rho_init:
     some processors have no G-vectors for symmetrization
     Message from routine sym_rho_init:
     some processors have no G-vectors for symmetrization
     Message from routine sym_rho_init:
     some processors have no G-vectors for symmetrization
     Message from routine sym_rho_init:
     some processors have no G-vectors for symmetrization
     Message from routine sym_rho_init:
     some processors have no G-vectors for symmetrization

     Check: negative core charge=   -0.000003

     Initial potential from superposition of free atoms

     starting charge   63.98899, renormalised to   64.00000
     Starting wfcs are   52 randomized atomic wfcs

     total cpu time spent up to now is      760.2 secs

     Self-consistent Calculation

     iteration #  1     ecut=    70.00 Ry     beta= 0.70
     CG style diagonalization
     c_bands:  5 eigenvalues not converged
     c_bands:  5 eigenvalues not converged
     c_bands:  5 eigenvalues not converged
     c_bands:  5 eigenvalues not converged
     c_bands:  5 eigenvalues not converged
     c_bands:  2 eigenvalues not converged
     c_bands:  4 eigenvalues not converged
     c_bands:  4 eigenvalues not converged
     c_bands:  5 eigenvalues not converged
     c_bands:  4 eigenvalues not converged
     c_bands:  1 eigenvalues not converged
     c_bands:  3 eigenvalues not converged
     ethr =  1.00E-06,  avg # of iterations = 13.4

     total cpu time spent up to now is      791.7 secs

     total energy              =    -366.73101091 Ry
     Harris-Foulkes estimate   =    -367.90708227 Ry
     estimated scf accuracy    <       1.68839825 Ry

     iteration #  2     ecut=    70.00 Ry     beta= 0.70
     CG style diagonalization
     ethr =  2.64E-03,  avg # of iterations =  4.3

     total cpu time spent up to now is      802.8 secs

     total energy              =    -367.11775464 Ry
     Harris-Foulkes estimate   =    -367.87959394 Ry
     estimated scf accuracy    <       1.55666011 Ry

     iteration #  3     ecut=    70.00 Ry     beta= 0.70
     CG style diagonalization
     ethr =  2.43E-03,  avg # of iterations =  3.8

     total cpu time spent up to now is      812.7 secs

     total energy              =    -367.42129362 Ry
     Harris-Foulkes estimate   =    -367.42410854 Ry
     estimated scf accuracy    <       0.01270501 Ry

     iteration #  4     ecut=    70.00 Ry     beta= 0.70
     CG style diagonalization
     ethr =  1.99E-05,  avg # of iterations =  4.3

     total cpu time spent up to now is      823.8 secs

     total energy              =    -367.43311916 Ry
     Harris-Foulkes estimate   =    -367.43414780 Ry
     estimated scf accuracy    <       0.00279514 Ry

     iteration #  5     ecut=    70.00 Ry     beta= 0.70
     CG style diagonalization
     ethr =  4.37E-06,  avg # of iterations =  3.5

     total cpu time spent up to now is      833.2 secs

     total energy              =    -367.43350500 Ry
     Harris-Foulkes estimate   =    -367.43353492 Ry
     estimated scf accuracy    <       0.00014434 Ry

     iteration #  6     ecut=    70.00 Ry     beta= 0.70
     CG style diagonalization
     ethr =  2.26E-07,  avg # of iterations =  4.0

     total cpu time spent up to now is      843.5 secs

     total energy              =    -367.43353828 Ry
     Harris-Foulkes estimate   =    -367.43354122 Ry
     estimated scf accuracy    <       0.00000691 Ry

     iteration #  7     ecut=    70.00 Ry     beta= 0.70
     CG style diagonalization
     ethr =  1.08E-08,  avg # of iterations =  4.4

     total cpu time spent up to now is      854.7 secs

     total energy              =    -367.43354140 Ry
     Harris-Foulkes estimate   =    -367.43354313 Ry
     estimated scf accuracy    <       0.00000360 Ry

     iteration #  8     ecut=    70.00 Ry     beta= 0.70
     CG style diagonalization
     ethr =  5.62E-09,  avg # of iterations =  3.7

     total cpu time spent up to now is      864.3 secs

     End of self-consistent calculation

          k = 0.0000 0.0000 0.0000 (  8471 PWs)   bands (ev):

   -33.7297 -33.7174 -17.1009 -17.0891 -15.1535 -15.1535 -14.7942 -14.7942
   -14.7008 -14.5917 -13.9222 -13.9222 -13.3986 -13.3986  -3.3339  -3.0621
    -1.7063  -1.5515  -1.5515  -1.2940  -1.2940  -0.4252   2.3373   2.3373
     2.7736   2.7736   2.9401   2.9401   3.5518   3.5518   3.7553   4.1807

          k =-0.2550-0.1472 0.0746 (  8471 PWs)   bands (ev):

   -33.7284 -33.7184 -17.1129 -17.0644 -15.1515 -15.0573 -14.9284 -14.7947
   -14.7283 -14.6977 -13.8466 -13.6945 -13.5364 -13.4281  -3.1907  -3.0717
    -1.5896  -1.4916  -1.4290  -1.3400  -1.2806  -0.5740   2.3972   2.4754
     2.6360   2.6423   2.7694   2.7882   3.3562   3.3851   4.0303   4.1948

          k =-0.5099-0.2944 0.1492 (  8458 PWs)   bands (ev):

   -33.7251 -33.7213 -17.1055 -17.0498 -15.1149 -15.0481 -15.0252 -14.9259
   -14.6961 -14.6738 -13.7022 -13.6363 -13.5696 -13.5276  -3.0125  -2.9978
    -1.5534  -1.4534  -1.2749  -1.2618  -1.1039  -0.8053   2.1632   2.2506
     2.5185   2.5595   2.7504   2.8341   3.1133   3.1377   4.2518   4.2901

          k =-0.2550 0.1472 0.1492 (  8468 PWs)   bands (ev):

   -33.7282 -33.7187 -17.1206 -17.0580 -15.1134 -15.1046 -14.8566 -14.8148
   -14.7640 -14.7179 -13.7764 -13.7459 -13.4955 -13.4731  -3.1740  -3.0984
    -1.5369  -1.4823  -1.4783  -1.3219  -1.2663  -0.6054   2.3994   2.4419
     2.6167   2.6333   2.7625   2.8848   3.2684   3.4355   4.0404   4.1729

          k =-0.5099-0.0000 0.2238 (  8481 PWs)   bands (ev):

   -33.7259 -33.7205 -17.1256 -17.0353 -15.1702 -15.0759 -14.9310 -14.8502
   -14.7150 -14.6970 -13.8014 -13.6676 -13.5421 -13.4569  -3.0600  -3.0066
    -1.5220  -1.4282  -1.3883  -1.2469  -1.1354  -0.7655   2.2038   2.3568
     2.5111   2.5538   2.6832   2.8471   3.0685   3.2784   4.2166   4.2843

          k = 0.5099 0.5888-0.0746 (  8458 PWs)   bands (ev):

   -33.7235 -33.7227 -17.0939 -17.0579 -15.1438 -15.0818 -14.9955 -14.8743
   -14.7131 -14.6789 -13.7727 -13.6768 -13.5340 -13.4624  -2.9870  -2.9300
    -1.5512  -1.4456  -1.3184  -1.2258  -0.9440  -0.8779   2.1074   2.1862
     2.4164   2.4895   2.6924   2.7542   3.1354   3.1730   4.3038   4.3626

          k = 0.2550 0.4416 0.0000 (  8479 PWs)   bands (ev):

   -33.7265 -33.7199 -17.1343 -17.0224 -15.1773 -15.0867 -14.9677 -14.7919
   -14.7434 -14.6730 -13.8031 -13.6901 -13.5219 -13.4566  -3.0621  -2.9952
    -1.5674  -1.3909  -1.3271  -1.2499  -1.2487  -0.7304   2.2076   2.4473
     2.4691   2.5458   2.6181   2.8408   3.1484   3.2694   4.2141   4.2952

          k =-0.5099 0.2944 0.2984 (  8481 PWs)   bands (ev):

   -33.7256 -33.7207 -17.1692 -16.9816 -15.2162 -15.2031 -14.7931 -14.7685
   -14.7269 -14.6653 -13.8966 -13.8122 -13.4413 -13.4006  -3.1431  -2.8673
    -1.5902  -1.3965  -1.3065  -1.2183  -1.0476  -0.8491   1.9877   2.2793
     2.4687   2.7004   2.7169   2.7931   3.0455   3.2785   4.1245   4.4077

          k = 0.5099 0.8832 0.0000 (  8464 PWs)   bands (ev):

   -33.7243 -33.7218 -17.1346 -17.0179 -15.2010 -15.1262 -14.8535 -14.8282
   -14.7497 -14.6836 -13.8689 -13.7220 -13.4874 -13.4121  -3.0495  -2.8663
    -1.5341  -1.4670  -1.3356  -1.2128  -0.9302  -0.8513   1.9823   2.1977
     2.4764   2.5753   2.6443   2.6635   3.1430   3.2237   4.2320   4.4301

          k =-0.0000-0.0000 0.2238 (  8474 PWs)   bands (ev):

   -33.7286 -33.7186 -17.1006 -17.0911 -15.1288 -15.1288 -14.8451 -14.8451
   -14.6891 -14.6009 -13.8558 -13.8558 -13.4391 -13.4391  -3.3243  -3.1129
    -1.5657  -1.5268  -1.5268  -1.3187  -1.3187  -0.5360   2.3793   2.3793
     2.7255   2.7255   2.9988   2.9988   3.4846   3.4846   3.7907   4.1297

          k =-0.2550-0.1472 0.2984 (  8473 PWs)   bands (ev):

   -33.7267 -33.7201 -17.0981 -17.0823 -15.1492 -15.0257 -15.0001 -14.7712
   -14.7463 -14.6587 -13.8314 -13.6350 -13.6033 -13.4393  -3.2057  -3.0935
    -1.5046  -1.4794  -1.3746  -1.3297  -1.2718  -0.6957   2.3923   2.4963
     2.6140   2.6188   2.7608   2.9521   3.2322   3.3246   4.0338   4.1649

          k = 0.7649 0.4416 0.0000 (  8472 PWs)   bands (ev):

   -33.7236 -33.7228 -17.1092 -17.0493 -15.1631 -15.0593 -14.9812 -14.8727
   -14.7216 -14.6562 -13.7675 -13.6824 -13.5499 -13.4624  -3.0861  -2.9303
    -1.5504  -1.4348  -1.3382  -1.2371  -0.9812  -0.8770   2.1157   2.2614
     2.4787   2.6147   2.7089   2.9703   2.9796   3.1383   4.2056   4.3293

          k = 0.5099 0.2944 0.0746 (  8458 PWs)   bands (ev):

   -33.7258 -33.7205 -17.1505 -17.0000 -15.1919 -15.1442 -14.9098 -14.8038
   -14.7404 -14.6464 -13.8412 -13.6939 -13.5189 -13.4336  -3.0933  -2.9132
    -1.5946  -1.3780  -1.2787  -1.2608  -1.1349  -0.7992   2.0458   2.3522
     2.4138   2.6528   2.6625   2.9719   2.9855   3.2431   4.1738   4.3671

          k =-0.2550 0.1472 0.3730 (  8470 PWs)   bands (ev):

   -33.7261 -33.7207 -17.1176 -17.0649 -15.1438 -15.0178 -14.9559 -14.8348
   -14.7310 -14.6863 -13.7690 -13.6675 -13.5615 -13.4907  -3.1587  -3.1555
    -1.4930  -1.4402  -1.4061  -1.3041  -1.2146  -0.7772   2.4135   2.4240
     2.5963   2.6078   2.8514   3.0256   3.1019   3.3571   4.0686   4.1138

          k = 0.7649 0.7360 0.0746 (  8462 PWs)   bands (ev):

   -33.7242 -33.7222 -17.1011 -17.0668 -15.1379 -15.0882 -14.8719 -14.8630
   -14.7524 -14.7274 -13.7622 -13.6927 -13.5255 -13.4795  -3.0508  -3.0308
    -1.4723  -1.4691  -1.3728  -1.2784  -0.9891  -0.8593   2.2116   2.2596
     2.5581   2.6081   2.7077   2.7994   3.0760   3.2089   4.2308   4.2579

          k = 0.5099 0.5888 0.1492 (  8464 PWs)   bands (ev):

   -33.7241 -33.7221 -17.1233 -17.0290 -15.1826 -15.1071 -14.9491 -14.7821
   -14.7455 -14.6933 -13.8470 -13.6818 -13.5253 -13.4191  -3.0324  -2.8838
    -1.5659  -1.4227  -1.2977  -1.2621  -0.9469  -0.8479   2.0196   2.2043
     2.4272   2.5616   2.6514   2.7231   3.1433   3.1929   4.2535   4.4113

          k = 0.7649-0.4416-0.2238 (  8483 PWs)   bands (ev):

   -33.7244 -33.7219 -17.1543 -17.0016 -15.2225 -15.1526 -14.8285 -14.7862
   -14.7507 -14.6444 -13.8452 -13.8256 -13.4422 -13.4210  -3.1414  -2.8752
    -1.5891  -1.3873  -1.2864  -1.2617  -0.9656  -0.9010   2.0147   2.2532
     2.5264   2.6548   2.7003   2.8110   3.0665   3.2039   4.1392   4.3909

          k =-0.0000-0.0000 0.4476 (  8462 PWs)   bands (ev):

   -33.7255 -33.7217 -17.0991 -17.0955 -15.0580 -15.0580 -14.9532 -14.9532
   -14.6598 -14.6261 -13.7069 -13.7069 -13.5513 -13.5513  -3.2868  -3.2104
    -1.4625  -1.4625  -1.3832  -1.3832  -1.2253  -0.8354   2.4876   2.4876
     2.6180   2.6180   3.1384   3.1384   3.3207   3.3207   3.8852   4.0117

          k = 1.0198 0.5888 0.1492 (  8470 PWs)   bands (ev):

   -33.7238 -33.7230 -17.1032 -17.0804 -15.1393 -15.0407 -14.9602 -14.8479
   -14.7127 -14.6575 -13.7756 -13.6365 -13.6023 -13.4842  -3.1980  -3.1321
    -1.4738  -1.4002  -1.3874  -1.3735  -1.0360  -0.9433   2.4050   2.4685
     2.5758   2.5966   2.8933   3.0456   3.1390   3.2223   4.0598   4.1136

     highest occupied level (ev):     4.4301

!    total energy              =    -367.43354208 Ry
     Harris-Foulkes estimate   =    -367.43354212 Ry
     estimated scf accuracy    <       0.00000006 Ry

     The total energy is the sum of the following terms:

     one-electron contribution =    -148.54497012 Ry
     hartree contribution      =     103.60316717 Ry
     xc contribution           =     -75.26377315 Ry
     ewald contribution        =    -247.22796598 Ry

     convergence has been achieved in   8 iterations

     Forces acting on atoms (cartesian axes, Ry/au):

     atom    1 type  1   force =    -0.00000000    0.00000000    0.00000000
     atom    2 type  1   force =     0.00000000   -0.00000000    0.00000000
     atom    3 type  2   force =    -0.00000000    0.00000000    0.00000000
     atom    4 type  2   force =     0.00000000   -0.00000000    0.00000000
     atom    5 type  3   force =    -0.00007811    0.00013529    0.00000000
     atom    6 type  3   force =     0.00015622    0.00000000    0.00000000
     atom    7 type  3   force =    -0.00007811   -0.00013529   -0.00000000
     atom    8 type  3   force =    -0.00015622    0.00000000   -0.00000000
     atom    9 type  3   force =     0.00007811    0.00013529    0.00000000
     atom   10 type  3   force =     0.00007811   -0.00013529   -0.00000000

     Total force =     0.000383     Total SCF correction =     0.001041
     SCF correction compared to forces is large: reduce conv_thr to get better values


     Computing stress (Cartesian axis) and pressure

          total   stress  (Ry/bohr**3)                   (kbar)     P=   -0.42
  -0.00000448  -0.00000000  -0.00000000         -0.66     -0.00     -0.00
  -0.00000000  -0.00000448  -0.00000000         -0.00     -0.66     -0.00
   0.00000000  -0.00000000   0.00000037          0.00     -0.00      0.05


     Writing output data file CCO_k.save/
 
     init_run     :      9.06s CPU     10.36s WALL (       2 calls)
     electrons    :    769.35s CPU    843.79s WALL (      13 calls)
     update_pot   :      0.67s CPU      0.71s WALL (      11 calls)
     forces       :      2.71s CPU      2.82s WALL (      13 calls)
     stress       :      4.08s CPU      4.14s WALL (      13 calls)

     Called by init_run:
     wfcinit      :      7.95s CPU      9.13s WALL (       2 calls)
     potinit      :      0.13s CPU      0.15s WALL (       2 calls)
     hinit0       :      0.63s CPU      0.72s WALL (       2 calls)

     Called by electrons:
     c_bands      :    707.98s CPU    778.99s WALL (      90 calls)
     sum_band     :     58.20s CPU     60.68s WALL (      90 calls)
     v_of_rho     :      2.10s CPU      2.16s WALL (      95 calls)
     newd         :      0.61s CPU      0.63s WALL (      95 calls)
     mix_rho      :      0.27s CPU      0.28s WALL (      90 calls)

     Called by c_bands:
     init_us_2    :      0.68s CPU      0.79s WALL (    3952 calls)
     ccgdiagg     :    528.22s CPU    566.06s WALL (    1717 calls)
     wfcrot       :    186.50s CPU    218.51s WALL (    1356 calls)

     Called by sum_band:
     sum_band:bec :      0.47s CPU      0.50s WALL (    1710 calls)
     addusdens    :      0.29s CPU      0.29s WALL (      90 calls)

     Called by *cgdiagg:
     h_psi        :    478.32s CPU    503.27s WALL (  157510 calls)
     s_psi        :     14.19s CPU     15.90s WALL (  313664 calls)
     cdiaghg      :     63.49s CPU     90.54s WALL (    1356 calls)

     Called by h_psi:
     h_psi:pot    :    474.29s CPU    498.67s WALL (  157510 calls)
     h_psi:calbec :     44.62s CPU     47.53s WALL (  157510 calls)
     vloc_psi     :    413.68s CPU    434.07s WALL (  157510 calls)
     add_vuspsi   :     10.83s CPU     11.86s WALL (  157510 calls)
     hs_1psi      :    405.65s CPU    429.01s WALL (  156154 calls)
     s_1psi       :     37.83s CPU     41.90s WALL (  156154 calls)

     General routines
     calbec       :     69.30s CPU     75.72s WALL (  316609 calls)
     fft          :      2.66s CPU      2.73s WALL (    1389 calls)
     ffts         :      0.16s CPU      0.16s WALL (      90 calls)
     fftw         :    449.67s CPU    471.12s WALL (  455332 calls)
 
     Parallel routines
     fft_scatt_xy :     16.42s CPU     16.95s WALL (  456811 calls)
     fft_scatt_yz :    364.62s CPU    383.95s WALL (  456811 calls)
 
     PWSCF        :  13m17.46s CPU  14m39.46s WALL

 
   This run was terminated on:   9:40: 4   4May2022            

=------------------------------------------------------------------------------=
   JOB DONE.
=------------------------------------------------------------------------------=
