
     Program PWSCF v.6.4.1 starts on 24Apr2022 at 15:15:30 

     This program is part of the open-source Quantum ESPRESSO suite
     for quantum simulation of materials; please cite
         "P. Giannozzi et al., J. Phys.:Condens. Matter 21 395502 (2009);
         "P. Giannozzi et al., J. Phys.:Condens. Matter 29 465901 (2017);
          URL http://www.quantum-espresso.org", 
     in publications or presentations arising from this work. More details at
     http://www.quantum-espresso.org/quote

     Parallel version (MPI & OpenMP), running on     120 processor cores
     Number of MPI processes:               120
     Threads/MPI process:                     1

     MPI processes distributed on     2 nodes
     R & G space division:  proc/nbgrp/npool/nimage =     120
     Waiting for input...
     Reading input from standard input

     Current dimensions of program PWSCF are:
     Max number of different atomic species (ntypx) = 10
     Max number of k-points (npk) =  40000
     Max angular momentum in pseudopotentials (lmaxx) =  3

     Subspace diagonalization in iterative solution of the eigenvalue problem:
     one sub-group per band group will be used
     scalapack distributed-memory algorithm (size of sub-group:  7*  7 procs)

 
     Parallelization info
     --------------------
     sticks:   dense  smooth     PW     G-vecs:    dense   smooth      PW
     Min          16      16      4                  484      484      69
     Max          17      17      5                  491      491      75
     Sum        1981    1981    559                58383    58383    8657
 


     bravais-lattice index     =            5
     lattice parameter (alat)  =      12.0000  a.u.
     unit-cell volume          =    1221.8805 (a.u.)^3
     number of atoms/cell      =           10
     number of atomic types    =            3
     number of electrons       =        64.00
     number of Kohn-Sham states=           32
     kinetic-energy cutoff     =      50.0000  Ry
     charge density cutoff     =     200.0000  Ry
     convergence threshold     =      1.0E-05
     mixing beta               =       0.7000
     number of iterations used =            8  plain     mixing
     Exchange-correlation      = SLA  PW   PBE  PBE ( 1  4  3  4 0 0)
     nstep                     =           50


     celldm(1)=  12.000000  celldm(2)=   0.000000  celldm(3)=   0.000000
     celldm(4)=   0.500000  celldm(5)=   0.000000  celldm(6)=   0.000000

     crystal axes: (cart. coord. in units of alat)
               a(1) = (   0.500000  -0.288675   0.816497 )  
               a(2) = (   0.000000   0.577350   0.816497 )  
               a(3) = (  -0.500000  -0.288675   0.816497 )  

     reciprocal axes: (cart. coord. in units 2 pi/alat)
               b(1) = (  1.000000 -0.577350  0.408248 )  
               b(2) = (  0.000000  1.154701  0.408248 )  
               b(3) = ( -1.000000 -0.577350  0.408248 )  


     PseudoPot. # 1 for Ca read from file:
     ./Ca_PBE.UPF
     MD5 check sum: 403a4c14b9e4d4dfdc3024c9a3812218
     Pseudo is Ultrasoft + core correction, Zval = 10.0
     Generated by new atomic code, or converted to UPF format
     Using radial grid of  845 points,  6 beta functions with: 
                l(1) =   0
                l(2) =   0
                l(3) =   1
                l(4) =   1
                l(5) =   2
                l(6) =   2
     Q(r) pseudized with  8 coefficients,  rinner =    1.500   1.500   1.500
                                                       1.500   1.500

     PseudoPot. # 2 for C  read from file:
     ./C_PBE.UPF
     MD5 check sum: d1aef80898a10debaa0f26306b886e00
     Pseudo is Ultrasoft + core correction, Zval =  4.0
     Generated by new atomic code, or converted to UPF format
     Using radial grid of  721 points,  4 beta functions with: 
                l(1) =   0
                l(2) =   0
                l(3) =   1
                l(4) =   1
     Q(r) pseudized with  8 coefficients,  rinner =    1.100   1.100   1.100


     PseudoPot. # 3 for O  read from file:
     ./O_PBE.UPF
     MD5 check sum: 734c27235a0248c51dbae37a1fbe46ec
     Pseudo is Ultrasoft + core correction, Zval =  6.0
     Generated by new atomic code, or converted to UPF format
     Using radial grid of  737 points,  5 beta functions with: 
                l(1) =   0
                l(2) =   0
                l(3) =   1
                l(4) =   1
                l(5) =   2
     Q(r) pseudized with  8 coefficients,  rinner =    0.900   0.900   0.900
                                                       0.900   0.900

     atomic species   valence    mass     pseudopotential
        Ca            10.00    40.07800     Ca( 1.00)
        C              4.00    12.01070     C ( 1.00)
        O              6.00    16.00000     O ( 1.00)

     12 Sym. Ops., with inversion, found ( 6 have fractional translation)



   Cartesian axes

     site n.     atom                  positions (alat units)
         1           Ca  tau(   1) = (   0.0000000  -0.0000000   1.2247449  )
         2           Ca  tau(   2) = (   0.0000000   0.0000000   0.0000000  )
         3           C   tau(   3) = (   0.0000000  -0.0000000   0.6123724  )
         4           C   tau(   4) = (  -0.0000000  -0.0000000   1.8371173  )
         5           O   tau(   5) = (   0.1284501   0.3548681   1.4288690  )
         6           O   tau(   6) = (   0.2430998  -0.2886751   1.4288690  )
         7           O   tau(   7) = (  -0.3715499  -0.0661930   1.4288690  )
         8           O   tau(   8) = (  -0.2430998   0.2886751   1.0206207  )
         9           O   tau(   9) = (   0.3715499   0.0661930   1.0206207  )
        10           O   tau(  10) = (  -0.1284501  -0.3548681   1.0206207  )

     number of k points=     6
                       cart. coord. in units 2pi/alat
        k(    1) = (   0.0000000   0.0000000   0.0000000), wk =   0.0740741
        k(    2) = (  -0.3333333  -0.1924501   0.1360828), wk =   0.4444444
        k(    3) = (  -0.3333333   0.1924501   0.2721655), wk =   0.4444444
        k(    4) = (   0.3333333   0.5773503   0.0000000), wk =   0.4444444
        k(    5) = (   0.0000000   0.0000000   0.4082483), wk =   0.1481481
        k(    6) = (   0.6666667   0.3849002   0.1360828), wk =   0.4444444

     Dense  grid:    58383 G-vectors     FFT dimensions: (  60,  60,  60)

     Estimated max dynamical RAM per process >      15.45 MB

     Estimated total dynamical RAM >       1.81 GB
     Message from routine sym_rho_init:
     some processors have no G-vectors for symmetrization
     Message from routine sym_rho_init:
     some processors have no G-vectors for symmetrization
     Message from routine sym_rho_init:
     some processors have no G-vectors for symmetrization
     Message from routine sym_rho_init:
     some processors have no G-vectors for symmetrization

     Check: negative core charge=   -0.000002

     Initial potential from superposition of free atoms

     starting charge   63.98899, renormalised to   64.00000
     Starting wfcs are   52 randomized atomic wfcs

     total cpu time spent up to now is        6.7 secs

     Self-consistent Calculation

     iteration #  1     ecut=    50.00 Ry     beta= 0.70
     CG style diagonalization
     ethr =  1.00E-02,  avg # of iterations =  2.2

     total cpu time spent up to now is        8.5 secs

     total energy              =    -365.13654250 Ry
     Harris-Foulkes estimate   =    -366.89794246 Ry
     estimated scf accuracy    <       2.39168226 Ry

     iteration #  2     ecut=    50.00 Ry     beta= 0.70
     CG style diagonalization
     ethr =  3.74E-03,  avg # of iterations =  4.8

     total cpu time spent up to now is       11.3 secs

     total energy              =    -364.97729089 Ry
     Harris-Foulkes estimate   =    -368.33005092 Ry
     estimated scf accuracy    <       9.63572225 Ry

     iteration #  3     ecut=    50.00 Ry     beta= 0.70
     CG style diagonalization
     ethr =  3.74E-03,  avg # of iterations =  4.2

     total cpu time spent up to now is       13.8 secs

     total energy              =    -366.40034353 Ry
     Harris-Foulkes estimate   =    -366.42420112 Ry
     estimated scf accuracy    <       0.05060607 Ry

     iteration #  4     ecut=    50.00 Ry     beta= 0.70
     CG style diagonalization
     ethr =  7.91E-05,  avg # of iterations =  4.3

     total cpu time spent up to now is       16.3 secs

     total energy              =    -366.43478398 Ry
     Harris-Foulkes estimate   =    -366.43826192 Ry
     estimated scf accuracy    <       0.01111759 Ry

     iteration #  5     ecut=    50.00 Ry     beta= 0.70
     CG style diagonalization
     ethr =  1.74E-05,  avg # of iterations =  3.8

     total cpu time spent up to now is       18.5 secs

     total energy              =    -366.43760079 Ry
     Harris-Foulkes estimate   =    -366.43761545 Ry
     estimated scf accuracy    <       0.00020189 Ry

     iteration #  6     ecut=    50.00 Ry     beta= 0.70
     CG style diagonalization
     ethr =  3.15E-07,  avg # of iterations =  4.8

     total cpu time spent up to now is       21.2 secs

     total energy              =    -366.43781074 Ry
     Harris-Foulkes estimate   =    -366.43787216 Ry
     estimated scf accuracy    <       0.00014463 Ry

     iteration #  7     ecut=    50.00 Ry     beta= 0.70
     CG style diagonalization
     ethr =  2.26E-07,  avg # of iterations =  3.6

     total cpu time spent up to now is       23.3 secs

     total energy              =    -366.43784942 Ry
     Harris-Foulkes estimate   =    -366.43785355 Ry
     estimated scf accuracy    <       0.00001727 Ry

     iteration #  8     ecut=    50.00 Ry     beta= 0.70
     CG style diagonalization
     ethr =  2.70E-08,  avg # of iterations =  3.6

     total cpu time spent up to now is       25.5 secs

     End of self-consistent calculation

          k = 0.0000 0.0000 0.0000 (  7391 PWs)   bands (ev):

   -38.5910 -38.5892 -19.5839 -19.5605 -19.5024 -19.5024 -19.4773 -19.4773
   -15.9210 -15.6381 -14.6378 -14.6378 -14.4894 -14.4894  -6.2865  -6.1398
    -2.5703  -2.5703  -2.4849  -2.4849  -1.7019  -0.5834   0.2951   0.2951
     0.4589   0.4589   0.5568   0.5568   0.8599   1.4274   1.4952   1.4952

          k =-0.3333-0.1925 0.1361 (  7297 PWs)   bands (ev):

   -38.5906 -38.5896 -19.5778 -19.5663 -19.4975 -19.4974 -19.4854 -19.4842
   -15.8330 -15.7102 -14.6039 -14.5936 -14.5445 -14.5314  -6.2477  -6.1472
    -2.6018  -2.5370  -2.4819  -2.4256  -1.4257  -0.9121   0.1336   0.1750
     0.3338   0.3820   0.7183   0.7746   1.0234   1.1881   1.3977   1.4407

          k =-0.3333 0.1925 0.2722 (  7275 PWs)   bands (ev):

   -38.5906 -38.5896 -19.5792 -19.5686 -19.5069 -19.4932 -19.4867 -19.4749
   -15.8192 -15.7166 -14.6267 -14.5865 -14.5578 -14.5097  -6.2623  -6.1330
    -2.6728  -2.4866  -2.4818  -2.3774  -1.4264  -0.9755   0.2061   0.2621
     0.3953   0.4219   0.5437   0.8976   0.9918   1.2251   1.2252   1.4008

          k = 0.3333 0.5774 0.0000 (  7290 PWs)   bands (ev):

   -38.5901 -38.5901 -19.5738 -19.5732 -19.5019 -19.5000 -19.4818 -19.4804
   -15.7617 -15.7613 -14.6189 -14.6147 -14.5329 -14.5289  -6.1884  -6.1881
    -2.6162  -2.5818  -2.4244  -2.3868  -1.1715  -1.1698   0.0399   0.0598
     0.4308   0.5316   0.6749   0.7323   1.0971   1.1534   1.2720   1.4131

          k = 0.0000 0.0000 0.4082 (  7297 PWs)   bands (ev):

   -38.5906 -38.5896 -19.5793 -19.5677 -19.4964 -19.4964 -19.4839 -19.4839
   -15.8486 -15.7074 -14.6009 -14.6009 -14.5267 -14.5267  -6.2617  -6.1881
    -2.5367  -2.5367  -2.4916  -2.4916  -1.4337  -0.8934   0.3206   0.3206
     0.3988   0.3988   0.7855   0.7855   0.9681   1.2444   1.2456   1.2456

          k = 0.6667 0.3849 0.1361 (  7290 PWs)   bands (ev):

   -38.5901 -38.5901 -19.5747 -19.5740 -19.5008 -19.4990 -19.4816 -19.4806
   -15.7758 -15.7554 -14.6178 -14.5860 -14.5478 -14.5332  -6.2155  -6.1872
    -2.6384  -2.5143  -2.4567  -2.4012  -1.2148  -1.1708   0.1665   0.2225
     0.4429   0.5513   0.5834   0.9227   0.9650   1.1658   1.2337   1.2474

     highest occupied level (ev):     1.4952

!    total energy              =    -366.43784971 Ry
     Harris-Foulkes estimate   =    -366.43785240 Ry
     estimated scf accuracy    <       0.00000335 Ry

     The total energy is the sum of the following terms:

     one-electron contribution =    -167.19536287 Ry
     hartree contribution      =     105.90543601 Ry
     xc contribution           =     -72.68185009 Ry
     ewald contribution        =    -232.46607275 Ry

     convergence has been achieved in   8 iterations

     Forces acting on atoms (cartesian axes, Ry/au):

     atom    1 type  1   force =     0.00000000    0.00000000    0.00000000
     atom    2 type  1   force =     0.00000000    0.00000000    0.00000000
     atom    3 type  2   force =    -0.00000000   -0.00000000   -0.00000000
     atom    4 type  2   force =     0.00000000    0.00000000    0.00000000
     atom    5 type  3   force =    -0.12151520    0.21047050    0.00000000
     atom    6 type  3   force =     0.24303040   -0.00000000    0.00000000
     atom    7 type  3   force =    -0.12151520   -0.21047050   -0.00000000
     atom    8 type  3   force =    -0.24303040    0.00000000   -0.00000000
     atom    9 type  3   force =     0.12151520    0.21047050    0.00000000
     atom   10 type  3   force =     0.12151520   -0.21047050   -0.00000000

     Total force =     0.595300     Total SCF correction =     0.002530


     Computing stress (Cartesian axis) and pressure

          total   stress  (Ry/bohr**3)                   (kbar)     P= -286.61
  -0.00282301   0.00000000  -0.00000000       -415.28      0.00     -0.00
  -0.00000000  -0.00282301  -0.00000000         -0.00   -415.28     -0.00
   0.00000000  -0.00000000  -0.00019892          0.00     -0.00    -29.26


     BFGS Geometry Optimization

     number of scf cycles    =   1
     number of bfgs steps    =   0

     enthalpy new            =    -366.4378497137 Ry

     new trust radius        =       0.4933981150 bohr
     new conv_thr            =       0.0000100000 Ry

     new unit-cell volume =   1050.24838 a.u.^3 (   155.63075 Ang^3 )
     density =      2.13584 g/cm^3

CELL_PARAMETERS (alat= 12.00000000)
   0.464712318  -0.268301782   0.812436244
   0.000000000   0.536603564   0.812436244
  -0.464712318  -0.268301782   0.812436244

ATOMIC_POSITIONS (crystal)
Ca       0.500000000   0.500000000   0.500000000
Ca       0.000000000   0.000000000   0.000000000
C        0.250000000   0.250000000   0.250000000
C        0.750000000   0.750000000   0.750000000
O        0.486647712   1.013352288   0.250000000
O        1.013352288   0.250000000   0.486647712
O        0.250000000   0.486647712   1.013352288
O       -0.013352288   0.750000000   0.513352288
O        0.750000000   0.513352288  -0.013352288
O        0.513352288  -0.013352288   0.750000000



     Writing output data file CCO_k.save/
     NEW-OLD atomic charge density approx. for the potential

     Check: negative core charge=   -0.000002
     extrapolated charge   53.54289, renormalised to   64.00000

     total cpu time spent up to now is       26.7 secs

     Self-consistent Calculation

     iteration #  1     ecut=    50.00 Ry     beta= 0.70
     CG style diagonalization
     c_bands:  2 eigenvalues not converged
     c_bands:  3 eigenvalues not converged
     c_bands:  3 eigenvalues not converged
     c_bands:  2 eigenvalues not converged
     c_bands:  4 eigenvalues not converged
     ethr =  1.00E-06,  avg # of iterations = 12.1

     total cpu time spent up to now is       33.6 secs

     total energy              =    -360.78596337 Ry
     Harris-Foulkes estimate   =    -388.25010576 Ry
     estimated scf accuracy    <       5.66353238 Ry

     iteration #  2     ecut=    50.00 Ry     beta= 0.70
     CG style diagonalization
     ethr =  8.85E-03,  avg # of iterations =  5.3

     total cpu time spent up to now is       36.7 secs

     total energy              =    -364.90733585 Ry
     Harris-Foulkes estimate   =    -373.43197239 Ry
     estimated scf accuracy    <      26.12940743 Ry

     iteration #  3     ecut=    50.00 Ry     beta= 0.70
     CG style diagonalization
     ethr =  8.85E-03,  avg # of iterations =  4.1

     total cpu time spent up to now is       39.2 secs

     total energy              =    -367.23028668 Ry
     Harris-Foulkes estimate   =    -367.68488910 Ry
     estimated scf accuracy    <       1.77229831 Ry

     iteration #  4     ecut=    50.00 Ry     beta= 0.70
     CG style diagonalization
     ethr =  2.77E-03,  avg # of iterations =  3.1

     total cpu time spent up to now is       41.0 secs

     total energy              =    -367.19372875 Ry
     Harris-Foulkes estimate   =    -367.34658427 Ry
     estimated scf accuracy    <       0.76960260 Ry

     iteration #  5     ecut=    50.00 Ry     beta= 0.70
     CG style diagonalization
     ethr =  1.20E-03,  avg # of iterations =  3.0

     total cpu time spent up to now is       42.8 secs

     total energy              =    -367.10911036 Ry
     Harris-Foulkes estimate   =    -367.23371650 Ry
     estimated scf accuracy    <       0.32541033 Ry

     iteration #  6     ecut=    50.00 Ry     beta= 0.70
     CG style diagonalization
     ethr =  5.08E-04,  avg # of iterations =  3.7

     total cpu time spent up to now is       44.9 secs

     total energy              =    -367.16827544 Ry
     Harris-Foulkes estimate   =    -367.17018295 Ry
     estimated scf accuracy    <       0.00391849 Ry

     iteration #  7     ecut=    50.00 Ry     beta= 0.70
     CG style diagonalization
     ethr =  6.12E-06,  avg # of iterations =  4.9

     total cpu time spent up to now is       47.8 secs

     total energy              =    -367.17425175 Ry
     Harris-Foulkes estimate   =    -367.17493185 Ry
     estimated scf accuracy    <       0.00146042 Ry

     iteration #  8     ecut=    50.00 Ry     beta= 0.70
     CG style diagonalization
     ethr =  2.28E-06,  avg # of iterations =  3.7

     total cpu time spent up to now is       49.9 secs

     total energy              =    -367.17446466 Ry
     Harris-Foulkes estimate   =    -367.17459612 Ry
     estimated scf accuracy    <       0.00022317 Ry

     iteration #  9     ecut=    50.00 Ry     beta= 0.70
     CG style diagonalization
     ethr =  3.49E-07,  avg # of iterations =  4.1

     total cpu time spent up to now is       52.4 secs

     total energy              =    -367.17453838 Ry
     Harris-Foulkes estimate   =    -367.17454667 Ry
     estimated scf accuracy    <       0.00005235 Ry

     iteration # 10     ecut=    50.00 Ry     beta= 0.70
     CG style diagonalization
     ethr =  8.18E-08,  avg # of iterations =  3.3

     total cpu time spent up to now is       54.4 secs

     total energy              =    -367.17453149 Ry
     Harris-Foulkes estimate   =    -367.17454245 Ry
     estimated scf accuracy    <       0.00002563 Ry

     iteration # 11     ecut=    50.00 Ry     beta= 0.70
     CG style diagonalization
     ethr =  4.00E-08,  avg # of iterations =  3.5

     total cpu time spent up to now is       56.5 secs

     End of self-consistent calculation

          k = 0.0000 0.0000 0.0000 (  7391 PWs)   bands (ev):

   -36.9764 -36.9723 -18.0267 -17.9541 -17.9276 -17.9276 -17.8824 -17.8824
   -16.9903 -16.7280 -14.5019 -14.5019 -14.3189 -14.3189  -4.6817  -4.5865
    -2.2994  -2.2994  -2.2696  -2.2696  -1.9385  -0.8434   1.1859   1.1859
     1.4656   1.4656   1.4823   1.4823   2.3912   2.4988   2.4988   2.8507

          k =-0.3586-0.2071 0.1368 (  7297 PWs)   bands (ev):

   -36.9754 -36.9733 -17.9993 -17.9668 -17.9470 -17.9276 -17.9048 -17.8993
   -16.8671 -16.7929 -14.4602 -14.4463 -14.3931 -14.3668  -4.5893  -4.5786
    -2.3863  -2.3026  -2.2627  -2.2010  -1.6189  -1.1102   1.0820   1.1373
     1.2039   1.2415   1.7006   1.7352   2.2396   2.2499   2.6903   2.7460

          k =-0.3586 0.2071 0.2735 (  7275 PWs)   bands (ev):

   -36.9754 -36.9733 -18.0050 -18.0022 -17.9497 -17.9162 -17.8968 -17.8768
   -16.8378 -16.8180 -14.4776 -14.4297 -14.4094 -14.3520  -4.6225  -4.5487
    -2.4416  -2.2790  -2.2576  -2.1371  -1.6217  -1.1512   1.0595   1.2281
     1.3020   1.3220   1.5017   1.8875   1.9737   2.3740   2.6684   2.6929

          k = 0.3586 0.6212 0.0000 (  7290 PWs)   bands (ev):

   -36.9743 -36.9743 -17.9968 -17.9837 -17.9627 -17.9444 -17.8907 -17.8853
   -16.8142 -16.8138 -14.4692 -14.4669 -14.3755 -14.3733  -4.5552  -4.5551
    -2.4170  -2.3528  -2.2259  -2.1540  -1.3519  -1.3429   0.9443   0.9568
     1.3193   1.3954   1.6382   1.6907   2.1632   2.2157   2.7251   2.7450

          k = 0.0000 0.0000 0.4103 (  7297 PWs)   bands (ev):

   -36.9754 -36.9733 -18.0166 -17.9820 -17.9171 -17.9171 -17.8945 -17.8945
   -16.9140 -16.7848 -14.4556 -14.4556 -14.3642 -14.3642  -4.6867  -4.6409
    -2.2823  -2.2823  -2.2667  -2.2667  -1.6352  -1.0947   1.2315   1.2315
     1.3311   1.3311   1.7729   1.7729   2.2436   2.2436   2.4768   2.7037

          k = 0.7173 0.4141 0.1368 (  7290 PWs)   bands (ev):

   -36.9743 -36.9743 -18.0145 -17.9933 -17.9399 -17.9229 -17.8959 -17.8858
   -16.8510 -16.7973 -14.4669 -14.4213 -14.4021 -14.3804  -4.6248  -4.5624
    -2.4223  -2.2695  -2.2431  -2.1844  -1.3838  -1.3508   1.0593   1.1673
     1.3230   1.4364   1.5418   1.8749   2.0104   2.1959   2.6231   2.7162

     highest occupied level (ev):     2.8507

!    total energy              =    -367.17453488 Ry
     Harris-Foulkes estimate   =    -367.17453552 Ry
     estimated scf accuracy    <       0.00000086 Ry

     The total energy is the sum of the following terms:

     one-electron contribution =    -166.20100446 Ry
     hartree contribution      =     108.18509992 Ry
     xc contribution           =     -74.05053458 Ry
     ewald contribution        =    -235.10809575 Ry

     convergence has been achieved in  11 iterations

     Forces acting on atoms (cartesian axes, Ry/au):

     atom    1 type  1   force =    -0.00000000   -0.00000000   -0.00000000
     atom    2 type  1   force =     0.00000000    0.00000000   -0.00000000
     atom    3 type  2   force =     0.00000000    0.00000000    0.00000000
     atom    4 type  2   force =     0.00000000    0.00000000    0.00000000
     atom    5 type  3   force =    -0.06973278    0.12078072    0.00000000
     atom    6 type  3   force =     0.13946556    0.00000000    0.00000000
     atom    7 type  3   force =    -0.06973278   -0.12078072   -0.00000000
     atom    8 type  3   force =    -0.13946556    0.00000000   -0.00000000
     atom    9 type  3   force =     0.06973278    0.12078072    0.00000000
     atom   10 type  3   force =     0.06973278   -0.12078072   -0.00000000

     Total force =     0.341619     Total SCF correction =     0.000722


     Computing stress (Cartesian axis) and pressure

          total   stress  (Ry/bohr**3)                   (kbar)     P= -208.56
  -0.00204792   0.00000000  -0.00000000       -301.26      0.00     -0.00
  -0.00000000  -0.00204792  -0.00000000         -0.00   -301.26     -0.00
  -0.00000000  -0.00000000  -0.00015748         -0.00     -0.00    -23.17


     number of scf cycles    =   2
     number of bfgs steps    =   1

     enthalpy old            =    -366.4378497137 Ry
     enthalpy new            =    -367.1745348780 Ry

     CASE: enthalpy_new < enthalpy_old

     new trust radius        =       0.7382546731 bohr
     new conv_thr            =       0.0000100000 Ry

     new unit-cell volume =    818.32409 a.u.^3 (   121.26312 Ang^3 )
     density =      2.74117 g/cm^3

CELL_PARAMETERS (alat= 12.00000000)
   0.411780795  -0.237741753   0.806229711
   0.000000000   0.475483506   0.806229711
  -0.411780795  -0.237741753   0.806229711

ATOMIC_POSITIONS (crystal)
Ca       0.500000000   0.500000000   0.500000000
Ca       0.000000000   0.000000000  -0.000000000
C        0.250000000   0.250000000   0.250000000
C        0.750000000   0.750000000   0.750000000
O        0.462387620   1.037612380   0.250000000
O        1.037612380   0.250000000   0.462387620
O        0.250000000   0.462387620   1.037612380
O       -0.037612380   0.750000000   0.537612380
O        0.750000000   0.537612380  -0.037612380
O        0.537612380  -0.037612380   0.750000000



     Writing output data file CCO_k.save/
     NEW-OLD atomic charge density approx. for the potential

     Check: negative core charge=   -0.000003

     negative rho (up, down):  1.840E-03 0.000E+00
     extrapolated charge   45.86464, renormalised to   64.00000

     total cpu time spent up to now is       57.1 secs

     Self-consistent Calculation

     iteration #  1     ecut=    50.00 Ry     beta= 0.70
     CG style diagonalization
     c_bands:  4 eigenvalues not converged
     ethr =  1.00E-06,  avg # of iterations = 18.2

     negative rho (up, down):  2.828E-04 0.000E+00

     total cpu time spent up to now is       67.3 secs

     total energy              =    -354.01984985 Ry
     Harris-Foulkes estimate   =    -406.13370468 Ry
     estimated scf accuracy    <      10.94310161 Ry

     iteration #  2     ecut=    50.00 Ry     beta= 0.70
     CG style diagonalization
     ethr =  1.00E-02,  avg # of iterations =  6.1

     total cpu time spent up to now is       70.9 secs

     total energy              =    -360.32263875 Ry
     Harris-Foulkes estimate   =    -377.01527915 Ry
     estimated scf accuracy    <      52.48358661 Ry

     iteration #  3     ecut=    50.00 Ry     beta= 0.70
     CG style diagonalization
     ethr =  1.00E-02,  avg # of iterations =  4.6

     total cpu time spent up to now is       73.7 secs

     total energy              =    -366.60381327 Ry
     Harris-Foulkes estimate   =    -367.80093910 Ry
     estimated scf accuracy    <       3.19781363 Ry

     iteration #  4     ecut=    50.00 Ry     beta= 0.70
     CG style diagonalization
     ethr =  5.00E-03,  avg # of iterations =  3.3

     total cpu time spent up to now is       75.8 secs

     total energy              =    -366.54535967 Ry
     Harris-Foulkes estimate   =    -366.90707340 Ry
     estimated scf accuracy    <       1.04256654 Ry

     iteration #  5     ecut=    50.00 Ry     beta= 0.70
     CG style diagonalization
     ethr =  1.63E-03,  avg # of iterations =  3.4

     total cpu time spent up to now is       77.8 secs

     total energy              =    -366.61082578 Ry
     Harris-Foulkes estimate   =    -366.66587658 Ry
     estimated scf accuracy    <       0.16644161 Ry

     iteration #  6     ecut=    50.00 Ry     beta= 0.70
     CG style diagonalization
     ethr =  2.60E-04,  avg # of iterations =  3.6

     total cpu time spent up to now is       80.0 secs

     total energy              =    -366.62620447 Ry
     Harris-Foulkes estimate   =    -366.63387606 Ry
     estimated scf accuracy    <       0.02213151 Ry

     iteration #  7     ecut=    50.00 Ry     beta= 0.70
     CG style diagonalization
     ethr =  3.46E-05,  avg # of iterations =  3.6

     total cpu time spent up to now is       82.2 secs

     total energy              =    -366.62894521 Ry
     Harris-Foulkes estimate   =    -366.63016357 Ry
     estimated scf accuracy    <       0.00356034 Ry

     iteration #  8     ecut=    50.00 Ry     beta= 0.70
     CG style diagonalization
     ethr =  5.56E-06,  avg # of iterations =  3.6

     total cpu time spent up to now is       84.4 secs

     total energy              =    -366.62938234 Ry
     Harris-Foulkes estimate   =    -366.62967685 Ry
     estimated scf accuracy    <       0.00053543 Ry

     iteration #  9     ecut=    50.00 Ry     beta= 0.70
     CG style diagonalization
     ethr =  8.37E-07,  avg # of iterations =  4.0

     total cpu time spent up to now is       86.8 secs

     total energy              =    -366.62950836 Ry
     Harris-Foulkes estimate   =    -366.62953113 Ry
     estimated scf accuracy    <       0.00003820 Ry

     iteration # 10     ecut=    50.00 Ry     beta= 0.70
     CG style diagonalization
     ethr =  5.97E-08,  avg # of iterations =  3.9

     total cpu time spent up to now is       89.2 secs

     End of self-consistent calculation

          k = 0.0000 0.0000 0.0000 (  7391 PWs)   bands (ev):

   -33.8365 -33.8224 -19.3242 -19.2045 -15.2669 -15.2669 -14.8786 -14.8666
   -14.8666 -14.8283 -14.8283 -14.8220 -14.2715 -14.2715  -2.8345  -2.3295
    -1.8632  -1.6915  -1.4073  -1.4073  -1.2067  -1.2067   2.8997   2.8997
     3.1862   3.1862   3.3899   3.3899   4.3327   4.3327   5.5614   5.9607

          k =-0.4047-0.2337 0.1378 (  7297 PWs)   bands (ev):

   -33.8327 -33.8257 -19.3056 -19.2310 -15.2769 -15.2022 -15.1651 -15.0307
   -14.8365 -14.7861 -14.6219 -14.4719 -14.4503 -14.3267  -2.6119  -2.2439
    -1.9228  -1.7761  -1.3104  -1.2999  -1.2608  -1.1959   2.8331   2.8486
     2.9497   3.0017   3.5009   3.5053   4.0277   4.0697   5.8332   5.8358

          k =-0.4047 0.2337 0.2756 (  7275 PWs)   bands (ev):

   -33.8327 -33.8257 -19.3133 -19.2236 -15.3390 -15.2708 -15.0299 -14.9885
   -14.8330 -14.8006 -14.5968 -14.5868 -14.3743 -14.3470  -2.5950  -2.2750
    -1.8452  -1.8260  -1.4654  -1.2813  -1.1969  -1.1304   2.7062   2.9604
     3.0727   3.0900   3.2900   3.7016   3.7168   4.2062   5.7422   5.9022

          k = 0.4047 0.7010 0.0000 (  7290 PWs)   bands (ev):

   -33.8291 -33.8291 -19.2708 -19.2707 -15.2506 -15.2490 -15.1157 -15.1147
   -14.8099 -14.8043 -14.5261 -14.5226 -14.3870 -14.3866  -2.4108  -2.3901
    -1.8259  -1.8168  -1.3559  -1.3002  -1.1802  -1.1375   2.6413   2.6482
     3.0249   3.0616   3.4095   3.4385   4.0191   4.0556   5.8755   5.8766

          k = 0.0000 0.0000 0.4134 (  7297 PWs)   bands (ev):

   -33.8329 -33.8259 -19.2963 -19.2364 -15.2222 -15.2222 -15.0811 -15.0811
   -14.8614 -14.8328 -14.5746 -14.5746 -14.3553 -14.3553  -2.7906  -2.5977
    -1.6533  -1.6284  -1.3528  -1.3528  -1.2524  -1.2524   2.9575   2.9575
     3.0746   3.0746   3.6417   3.6417   4.0925   4.0925   5.6231   5.8243

          k = 0.8095 0.4674 0.1378 (  7290 PWs)   bands (ev):

   -33.8292 -33.8292 -19.2771 -19.2621 -15.3528 -15.1693 -15.1651 -14.9003
   -14.8548 -14.7991 -14.6823 -14.4820 -14.4597 -14.2981  -2.5020  -2.4998
    -1.8289  -1.6889  -1.3990  -1.2986  -1.2137  -1.1577   2.7461   2.9279
     3.0558   3.1175   3.3160   3.6557   3.8615   4.0219   5.7328   5.8915

     highest occupied level (ev):     5.9607

!    total energy              =    -366.62952008 Ry
     Harris-Foulkes estimate   =    -366.62952226 Ry
     estimated scf accuracy    <       0.00000279 Ry

     The total energy is the sum of the following terms:

     one-electron contribution =    -171.69057443 Ry
     hartree contribution      =     116.25324705 Ry
     xc contribution           =     -76.99313682 Ry
     ewald contribution        =    -234.19905587 Ry

     convergence has been achieved in  10 iterations

     Forces acting on atoms (cartesian axes, Ry/au):

     atom    1 type  1   force =    -0.00000000    0.00000000   -0.00000000
     atom    2 type  1   force =     0.00000000    0.00000000    0.00000000
     atom    3 type  2   force =     0.00000000   -0.00000000   -0.00000000
     atom    4 type  2   force =    -0.00000000   -0.00000000   -0.00000000
     atom    5 type  3   force =     0.45585606   -0.78956586   -0.00000000
     atom    6 type  3   force =    -0.91171212    0.00000000   -0.00000000
     atom    7 type  3   force =     0.45585606    0.78956586    0.00000000
     atom    8 type  3   force =     0.91171212   -0.00000000    0.00000000
     atom    9 type  3   force =    -0.45585606   -0.78956586   -0.00000000
     atom   10 type  3   force =    -0.45585606    0.78956586    0.00000000

     Total force =     2.233229     Total SCF correction =     0.008059


     Computing stress (Cartesian axis) and pressure

          total   stress  (Ry/bohr**3)                   (kbar)     P=  619.76
   0.00631508  -0.00000000   0.00000000        928.98     -0.00      0.00
  -0.00000000   0.00631508   0.00000000         -0.00    928.98      0.00
   0.00000000   0.00000000   0.00000905          0.00      0.00      1.33


     number of scf cycles    =   3
     number of bfgs steps    =   2

     enthalpy old            =    -367.1745348780 Ry
     enthalpy new            =    -366.6295200768 Ry

     CASE: enthalpy_new > enthalpy_old

     new trust radius        =       0.2089941113 bohr
     new conv_thr            =       0.0000100000 Ry

     new unit-cell volume =    981.22387 a.u.^3 (   145.40237 Ang^3 )
     density =      2.28609 g/cm^3

CELL_PARAMETERS (alat= 12.00000000)
   0.449670253  -0.259617241   0.810672473
   0.000000000   0.519234483   0.810672473
  -0.449670253  -0.259617241   0.810672473

ATOMIC_POSITIONS (crystal)
Ca       0.500000000   0.500000000   0.500000000
Ca       0.000000000   0.000000000  -0.000000000
C        0.250000000   0.250000000   0.250000000
C        0.750000000   0.750000000   0.750000000
O        0.479753486   1.020246514   0.250000000
O        1.020246514   0.250000000   0.479753486
O        0.250000000   0.479753486   1.020246514
O       -0.020246514   0.750000000   0.520246514
O        0.750000000   0.520246514  -0.020246514
O        0.520246514  -0.020246514   0.750000000



     Writing output data file CCO_k.save/
     NEW-OLD atomic charge density approx. for the potential

     Check: negative core charge=   -0.000002
     extrapolated charge   74.62326, renormalised to   64.00000

     total cpu time spent up to now is       89.7 secs

     Self-consistent Calculation

     iteration #  1     ecut=    50.00 Ry     beta= 0.70
     CG style diagonalization
     c_bands:  4 eigenvalues not converged
     ethr =  1.00E-06,  avg # of iterations = 20.7

     total cpu time spent up to now is      101.3 secs

     total energy              =    -350.74165899 Ry
     Harris-Foulkes estimate   =    -348.41554845 Ry
     estimated scf accuracy    <      14.83865525 Ry

     iteration #  2     ecut=    50.00 Ry     beta= 0.70
     CG style diagonalization
     ethr =  1.00E-02,  avg # of iterations =  5.6

     total cpu time spent up to now is      104.6 secs

     total energy              =    -367.73948118 Ry
     Harris-Foulkes estimate   =    -379.32309917 Ry
     estimated scf accuracy    <      27.39572040 Ry

     iteration #  3     ecut=    50.00 Ry     beta= 0.70
     CG style diagonalization
     ethr =  1.00E-02,  avg # of iterations =  3.8

     total cpu time spent up to now is      106.9 secs

     total energy              =    -368.12629004 Ry
     Harris-Foulkes estimate   =    -369.60939978 Ry
     estimated scf accuracy    <       5.27362927 Ry

     iteration #  4     ecut=    50.00 Ry     beta= 0.70
     CG style diagonalization
     ethr =  8.24E-03,  avg # of iterations =  3.0

     total cpu time spent up to now is      108.8 secs

     total energy              =    -367.77779028 Ry
     Harris-Foulkes estimate   =    -368.22584504 Ry
     estimated scf accuracy    <       2.60950264 Ry

     iteration #  5     ecut=    50.00 Ry     beta= 0.70
     CG style diagonalization
     ethr =  4.08E-03,  avg # of iterations =  3.0

     total cpu time spent up to now is      110.6 secs

     total energy              =    -367.87608893 Ry
     Harris-Foulkes estimate   =    -367.82172405 Ry
     estimated scf accuracy    <       1.54555811 Ry

     iteration #  6     ecut=    50.00 Ry     beta= 0.70
     CG style diagonalization
     ethr =  2.41E-03,  avg # of iterations =  3.0

     total cpu time spent up to now is      112.5 secs

     total energy              =    -367.00572597 Ry
     Harris-Foulkes estimate   =    -367.88409084 Ry
     estimated scf accuracy    <       1.65211302 Ry

     iteration #  7     ecut=    50.00 Ry     beta= 0.70
     CG style diagonalization
     ethr =  2.41E-03,  avg # of iterations =  3.6

     total cpu time spent up to now is      114.7 secs

     total energy              =    -367.30614021 Ry
     Harris-Foulkes estimate   =    -367.31103579 Ry
     estimated scf accuracy    <       0.04063858 Ry

     iteration #  8     ecut=    50.00 Ry     beta= 0.70
     CG style diagonalization
     ethr =  6.35E-05,  avg # of iterations =  4.0

     total cpu time spent up to now is      117.1 secs

     total energy              =    -367.32861939 Ry
     Harris-Foulkes estimate   =    -367.32749906 Ry
     estimated scf accuracy    <       0.04140421 Ry

     iteration #  9     ecut=    50.00 Ry     beta= 0.70
     CG style diagonalization
     ethr =  6.35E-05,  avg # of iterations =  3.0

     total cpu time spent up to now is      118.8 secs

     total energy              =    -367.32203095 Ry
     Harris-Foulkes estimate   =    -367.32895042 Ry
     estimated scf accuracy    <       0.04372558 Ry

     iteration # 10     ecut=    50.00 Ry     beta= 0.70
     CG style diagonalization
     ethr =  6.35E-05,  avg # of iterations =  3.0

     total cpu time spent up to now is      120.6 secs

     total energy              =    -367.31496445 Ry
     Harris-Foulkes estimate   =    -367.32306590 Ry
     estimated scf accuracy    <       0.03029792 Ry

     iteration # 11     ecut=    50.00 Ry     beta= 0.70
     CG style diagonalization
     ethr =  4.73E-05,  avg # of iterations =  4.1

     total cpu time spent up to now is      123.0 secs

     total energy              =    -367.33013480 Ry
     Harris-Foulkes estimate   =    -367.33183521 Ry
     estimated scf accuracy    <       0.06424423 Ry

     iteration # 12     ecut=    50.00 Ry     beta= 0.70
     CG style diagonalization
     ethr =  4.73E-05,  avg # of iterations =  3.1

     total cpu time spent up to now is      124.8 secs

     total energy              =    -367.32092167 Ry
     Harris-Foulkes estimate   =    -367.33172021 Ry
     estimated scf accuracy    <       0.05685057 Ry

     iteration # 13     ecut=    50.00 Ry     beta= 0.70
     CG style diagonalization
     ethr =  4.73E-05,  avg # of iterations =  3.1

     total cpu time spent up to now is      126.6 secs

     total energy              =    -367.31122486 Ry
     Harris-Foulkes estimate   =    -367.32250952 Ry
     estimated scf accuracy    <       0.02491085 Ry

     iteration # 14     ecut=    50.00 Ry     beta= 0.70
     CG style diagonalization
     ethr =  3.89E-05,  avg # of iterations =  3.6

     total cpu time spent up to now is      128.7 secs

     total energy              =    -367.31544268 Ry
     Harris-Foulkes estimate   =    -367.31546458 Ry
     estimated scf accuracy    <       0.00097159 Ry

     iteration # 15     ecut=    50.00 Ry     beta= 0.70
     CG style diagonalization
     ethr =  1.52E-06,  avg # of iterations =  3.5

     total cpu time spent up to now is      130.7 secs

     total energy              =    -367.31528569 Ry
     Harris-Foulkes estimate   =    -367.31566469 Ry
     estimated scf accuracy    <       0.00094557 Ry

     iteration # 16     ecut=    50.00 Ry     beta= 0.70
     CG style diagonalization
     ethr =  1.48E-06,  avg # of iterations =  3.2

     total cpu time spent up to now is      132.6 secs

     total energy              =    -367.31522852 Ry
     Harris-Foulkes estimate   =    -367.31537539 Ry
     estimated scf accuracy    <       0.00030529 Ry

     iteration # 17     ecut=    50.00 Ry     beta= 0.70
     CG style diagonalization
     ethr =  4.77E-07,  avg # of iterations =  3.7

     total cpu time spent up to now is      134.7 secs

     total energy              =    -367.31538966 Ry
     Harris-Foulkes estimate   =    -367.31529842 Ry
     estimated scf accuracy    <       0.00015384 Ry

     iteration # 18     ecut=    50.00 Ry     beta= 0.70
     CG style diagonalization
     ethr =  2.40E-07,  avg # of iterations =  3.9

     total cpu time spent up to now is      137.0 secs

     total energy              =    -367.31538498 Ry
     Harris-Foulkes estimate   =    -367.31544089 Ry
     estimated scf accuracy    <       0.00062369 Ry

     iteration # 19     ecut=    50.00 Ry     beta= 0.70
     CG style diagonalization
     ethr =  2.40E-07,  avg # of iterations =  3.0

     total cpu time spent up to now is      138.8 secs

     total energy              =    -367.31537957 Ry
     Harris-Foulkes estimate   =    -367.31539071 Ry
     estimated scf accuracy    <       0.00045328 Ry

     iteration # 20     ecut=    50.00 Ry     beta= 0.70
     CG style diagonalization
     ethr =  2.40E-07,  avg # of iterations =  3.0

     total cpu time spent up to now is      140.6 secs

     total energy              =    -367.31537978 Ry
     Harris-Foulkes estimate   =    -367.31538073 Ry
     estimated scf accuracy    <       0.00042416 Ry

     iteration # 21     ecut=    50.00 Ry     beta= 0.70
     CG style diagonalization
     ethr =  2.40E-07,  avg # of iterations =  3.0

     total cpu time spent up to now is      142.4 secs

     total energy              =    -367.31535971 Ry
     Harris-Foulkes estimate   =    -367.31538004 Ry
     estimated scf accuracy    <       0.00041495 Ry

     iteration # 22     ecut=    50.00 Ry     beta= 0.70
     CG style diagonalization
     ethr =  2.40E-07,  avg # of iterations =  3.0

     total cpu time spent up to now is      144.3 secs

     total energy              =    -367.31537955 Ry
     Harris-Foulkes estimate   =    -367.31536132 Ry
     estimated scf accuracy    <       0.00034867 Ry

     iteration # 23     ecut=    50.00 Ry     beta= 0.70
     CG style diagonalization
     ethr =  2.40E-07,  avg # of iterations =  3.0

     total cpu time spent up to now is      146.2 secs

     total energy              =    -367.31517743 Ry
     Harris-Foulkes estimate   =    -367.31538028 Ry
     estimated scf accuracy    <       0.00040181 Ry

     iteration # 24     ecut=    50.00 Ry     beta= 0.70
     CG style diagonalization
     ethr =  2.40E-07,  avg # of iterations =  4.0

     total cpu time spent up to now is      148.6 secs

     End of self-consistent calculation

          k = 0.0000 0.0000 0.0000 (  7391 PWs)   bands (ev):

   -36.1534 -36.1476 -17.5689 -17.5561 -17.1409 -17.1409 -17.1354 -17.0758
   -17.0758 -16.9900 -14.5328 -14.5328 -14.3268 -14.3268  -4.0396  -3.8115
    -2.1006  -2.0933  -2.0933  -2.0764  -2.0764  -1.0238   1.6056   1.6056
     1.9137   1.9137   1.9413   1.9413   2.9618   2.9618   3.1437   3.5757

          k =-0.3706-0.2140 0.1371 (  7297 PWs)   bands (ev):

   -36.1519 -36.1490 -17.6417 -17.5350 -17.1687 -17.1538 -17.1127 -17.1124
   -17.0015 -16.9461 -14.4849 -14.4639 -14.4152 -14.3780  -3.8771  -3.8380
    -2.2305  -2.1153  -2.0758  -2.0125  -1.7272  -1.2511   1.5217   1.5721
     1.6306   1.6498   2.1570   2.1835   2.7086   2.7125   3.4135   3.4645

          k =-0.3706 0.2140 0.2741 (  7275 PWs)   bands (ev):

   -36.1519 -36.1490 -17.6903 -17.4808 -17.1618 -17.1465 -17.1201 -17.0842
   -17.0670 -16.9198 -14.4985 -14.4417 -14.4318 -14.3708  -3.8836  -3.8388
    -2.2489  -2.1096  -2.0917  -1.9379  -1.7310  -1.2892   1.4619   1.6645
     1.7321   1.7547   1.9487   2.3510   2.4103   2.8387   3.3866   3.4458

          k = 0.3706 0.6420 0.0000 (  7290 PWs)   bands (ev):

   -36.1505 -36.1505 -17.6140 -17.6117 -17.1836 -17.1719 -17.0891 -17.0773
   -16.9572 -16.9550 -14.4900 -14.4880 -14.3915 -14.3896  -3.8166  -3.8163
    -2.2604  -2.1551  -2.0849  -1.9585  -1.4684  -1.4462   1.3629   1.3736
     1.7371   1.8015   2.0858   2.1333   2.6322   2.6863   3.4626   3.4716

          k = 0.0000 0.0000 0.4112 (  7297 PWs)   bands (ev):

   -36.1520 -36.1491 -17.5814 -17.5722 -17.1261 -17.1261 -17.0936 -17.0936
   -17.0822 -17.0126 -14.4799 -14.4799 -14.3770 -14.3770  -4.0302  -3.9244
    -2.0803  -2.0803  -2.0720  -2.0720  -1.7679  -1.2396   1.6569   1.6569
     1.7654   1.7654   2.2395   2.2395   2.7087   2.7087   3.2220   3.4362

          k = 0.7413 0.4280 0.1371 (  7290 PWs)   bands (ev):

   -36.1505 -36.1505 -17.6490 -17.5526 -17.1610 -17.1482 -17.1298 -17.0786
   -17.0164 -16.9335 -14.4860 -14.4318 -14.4258 -14.4006  -3.9153  -3.8328
    -2.2445  -2.0721  -2.0708  -2.0080  -1.4937  -1.4718   1.4754   1.6049
     1.7420   1.8497   1.9891   2.3199   2.4803   2.6594   3.3507   3.4614

     highest occupied level (ev):     3.5757

!    total energy              =    -367.31524205 Ry
     Harris-Foulkes estimate   =    -367.31524846 Ry
     estimated scf accuracy    <       0.00000876 Ry

     The total energy is the sum of the following terms:

     one-electron contribution =    -166.41240480 Ry
     hartree contribution      =     109.63624563 Ry
     xc contribution           =     -74.74908504 Ry
     ewald contribution        =    -235.78999785 Ry

     convergence has been achieved in  24 iterations

     Forces acting on atoms (cartesian axes, Ry/au):

     atom    1 type  1   force =     0.00000000   -0.00000000    0.00000000
     atom    2 type  1   force =     0.00000000    0.00000000    0.00000000
     atom    3 type  2   force =    -0.00000000    0.00000000    0.00000000
     atom    4 type  2   force =    -0.00000000    0.00000000    0.00000000
     atom    5 type  3   force =    -0.00095013    0.00164567    0.00000000
     atom    6 type  3   force =     0.00190026   -0.00000000   -0.00000000
     atom    7 type  3   force =    -0.00095013   -0.00164567   -0.00000000
     atom    8 type  3   force =    -0.00190026    0.00000000    0.00000000
     atom    9 type  3   force =     0.00095013    0.00164567    0.00000000
     atom   10 type  3   force =     0.00095013   -0.00164567   -0.00000000

     Total force =     0.004655     Total SCF correction =     0.008326
     SCF correction compared to forces is large: reduce conv_thr to get better values


     Computing stress (Cartesian axis) and pressure

          total   stress  (Ry/bohr**3)                   (kbar)     P= -102.33
  -0.00097892  -0.00000000   0.00000000       -144.00     -0.00      0.00
   0.00000000  -0.00097892  -0.00000000          0.00   -144.00     -0.00
   0.00000000  -0.00000000  -0.00012894          0.00     -0.00    -18.97


     number of scf cycles    =   4
     number of bfgs steps    =   2

     enthalpy old            =    -367.1745348780 Ry
     enthalpy new            =    -367.3152420530 Ry

     CASE: enthalpy_new < enthalpy_old

     new trust radius        =       0.1963738706 bohr
     new conv_thr            =       0.0000001900 Ry

     new unit-cell volume =    917.38423 a.u.^3 (   135.94232 Ang^3 )
     density =      2.44517 g/cm^3

CELL_PARAMETERS (alat= 12.00000000)
   0.435575294  -0.251479513   0.807775048
   0.000000000   0.502959026   0.807775048
  -0.435575294  -0.251479513   0.807775048

ATOMIC_POSITIONS (crystal)
Ca       0.500000000   0.500000000   0.500000000
Ca      -0.000000000   0.000000000  -0.000000000
C        0.250000000   0.250000000   0.250000000
C        0.750000000   0.750000000   0.750000000
O        0.480297091   1.019702909   0.250000000
O        1.019702909   0.250000000   0.480297091
O        0.250000000   0.480297091   1.019702909
O       -0.019702909   0.750000000   0.519702909
O        0.750000000   0.519702909  -0.019702909
O        0.519702909  -0.019702909   0.750000000



     Writing output data file CCO_k.save/
     NEW-OLD atomic charge density approx. for the potential

     Check: negative core charge=   -0.000003
     extrapolated charge   59.54708, renormalised to   64.00000

     total cpu time spent up to now is      149.2 secs

     Self-consistent Calculation

     iteration #  1     ecut=    50.00 Ry     beta= 0.70
     CG style diagonalization
     c_bands:  2 eigenvalues not converged
     c_bands:  5 eigenvalues not converged
     c_bands:  4 eigenvalues not converged
     c_bands:  3 eigenvalues not converged
     c_bands:  4 eigenvalues not converged
     c_bands:  5 eigenvalues not converged
     ethr =  1.00E-06,  avg # of iterations = 12.0

     total cpu time spent up to now is      156.1 secs

     total energy              =    -366.23160959 Ry
     Harris-Foulkes estimate   =    -376.05181973 Ry
     estimated scf accuracy    <       0.82875201 Ry

     iteration #  2     ecut=    50.00 Ry     beta= 0.70
     CG style diagonalization
     ethr =  1.29E-03,  avg # of iterations =  5.1

     total cpu time spent up to now is      159.1 secs

     total energy              =    -367.18861948 Ry
     Harris-Foulkes estimate   =    -368.27858731 Ry
     estimated scf accuracy    <       3.17367394 Ry

     iteration #  3     ecut=    50.00 Ry     beta= 0.70
     CG style diagonalization
     ethr =  1.29E-03,  avg # of iterations =  4.0

     total cpu time spent up to now is      161.6 secs

     total energy              =    -367.37479442 Ry
     Harris-Foulkes estimate   =    -367.45353281 Ry
     estimated scf accuracy    <       0.33701017 Ry

     iteration #  4     ecut=    50.00 Ry     beta= 0.70
     CG style diagonalization
     ethr =  5.27E-04,  avg # of iterations =  3.0

     total cpu time spent up to now is      163.4 secs

     total energy              =    -367.34914637 Ry
     Harris-Foulkes estimate   =    -367.38608503 Ry
     estimated scf accuracy    <       0.15288563 Ry

     iteration #  5     ecut=    50.00 Ry     beta= 0.70
     CG style diagonalization
     ethr =  2.39E-04,  avg # of iterations =  3.2

     total cpu time spent up to now is      165.4 secs

     total energy              =    -367.34968956 Ry
     Harris-Foulkes estimate   =    -367.36096578 Ry
     estimated scf accuracy    <       0.03414080 Ry

     iteration #  6     ecut=    50.00 Ry     beta= 0.70
     CG style diagonalization
     ethr =  5.33E-05,  avg # of iterations =  3.3

     total cpu time spent up to now is      167.3 secs

     total energy              =    -367.35140120 Ry
     Harris-Foulkes estimate   =    -367.35280789 Ry
     estimated scf accuracy    <       0.00580943 Ry

     iteration #  7     ecut=    50.00 Ry     beta= 0.70
     CG style diagonalization
     ethr =  9.08E-06,  avg # of iterations =  3.4

     total cpu time spent up to now is      169.3 secs

     total energy              =    -367.35205932 Ry
     Harris-Foulkes estimate   =    -367.35216776 Ry
     estimated scf accuracy    <       0.00196456 Ry

     iteration #  8     ecut=    50.00 Ry     beta= 0.70
     CG style diagonalization
     ethr =  3.07E-06,  avg # of iterations =  3.3

     total cpu time spent up to now is      171.3 secs

     total energy              =    -367.35202423 Ry
     Harris-Foulkes estimate   =    -367.35226967 Ry
     estimated scf accuracy    <       0.00124426 Ry

     iteration #  9     ecut=    50.00 Ry     beta= 0.70
     CG style diagonalization
     ethr =  1.94E-06,  avg # of iterations =  3.0

     total cpu time spent up to now is      173.1 secs

     total energy              =    -367.35174298 Ry
     Harris-Foulkes estimate   =    -367.35206897 Ry
     estimated scf accuracy    <       0.00063076 Ry

     iteration # 10     ecut=    50.00 Ry     beta= 0.70
     CG style diagonalization
     ethr =  9.86E-07,  avg # of iterations =  3.8

     total cpu time spent up to now is      175.3 secs

     total energy              =    -367.35190700 Ry
     Harris-Foulkes estimate   =    -367.35192195 Ry
     estimated scf accuracy    <       0.00004137 Ry

     iteration # 11     ecut=    50.00 Ry     beta= 0.70
     CG style diagonalization
     ethr =  6.46E-08,  avg # of iterations =  3.9

     total cpu time spent up to now is      177.5 secs

     total energy              =    -367.35192691 Ry
     Harris-Foulkes estimate   =    -367.35192702 Ry
     estimated scf accuracy    <       0.00000200 Ry

     iteration # 12     ecut=    50.00 Ry     beta= 0.70
     CG style diagonalization
     ethr =  3.12E-09,  avg # of iterations =  4.4

     total cpu time spent up to now is      180.1 secs

     total energy              =    -367.35192732 Ry
     Harris-Foulkes estimate   =    -367.35192851 Ry
     estimated scf accuracy    <       0.00000389 Ry

     iteration # 13     ecut=    50.00 Ry     beta= 0.70
     CG style diagonalization
     ethr =  3.12E-09,  avg # of iterations =  3.3

     total cpu time spent up to now is      182.0 secs

     total energy              =    -367.35192728 Ry
     Harris-Foulkes estimate   =    -367.35192749 Ry
     estimated scf accuracy    <       0.00000158 Ry

     iteration # 14     ecut=    50.00 Ry     beta= 0.70
     CG style diagonalization
     ethr =  2.48E-09,  avg # of iterations =  3.1

     total cpu time spent up to now is      183.9 secs

     total energy              =    -367.35192719 Ry
     Harris-Foulkes estimate   =    -367.35192737 Ry
     estimated scf accuracy    <       0.00000130 Ry

     iteration # 15     ecut=    50.00 Ry     beta= 0.70
     CG style diagonalization
     ethr =  2.04E-09,  avg # of iterations =  3.0

     total cpu time spent up to now is      185.7 secs

     total energy              =    -367.35192708 Ry
     Harris-Foulkes estimate   =    -367.35192722 Ry
     estimated scf accuracy    <       0.00000089 Ry

     iteration # 16     ecut=    50.00 Ry     beta= 0.70
     CG style diagonalization
     ethr =  1.39E-09,  avg # of iterations =  3.3

     total cpu time spent up to now is      187.6 secs

     total energy              =    -367.35192694 Ry
     Harris-Foulkes estimate   =    -367.35192716 Ry
     estimated scf accuracy    <       0.00000089 Ry

     iteration # 17     ecut=    50.00 Ry     beta= 0.70
     CG style diagonalization
     ethr =  1.39E-09,  avg # of iterations =  3.3

     total cpu time spent up to now is      189.5 secs

     total energy              =    -367.35192689 Ry
     Harris-Foulkes estimate   =    -367.35192701 Ry
     estimated scf accuracy    <       0.00000034 Ry

     iteration # 18     ecut=    50.00 Ry     beta= 0.70
     CG style diagonalization
     ethr =  5.27E-10,  avg # of iterations =  3.2

     total cpu time spent up to now is      191.4 secs

     End of self-consistent calculation

          k = 0.0000 0.0000 0.0000 (  7391 PWs)   bands (ev):

   -35.2126 -35.2042 -17.6438 -17.5221 -16.2767 -16.2767 -16.2008 -16.1696
   -16.1626 -16.1626 -14.3468 -14.3468 -14.0740 -14.0740  -3.5235  -3.2250
    -2.0148  -1.7934  -1.7934  -1.7234  -1.7234  -0.8596   2.0417   2.0417
     2.3209   2.3209   2.4289   2.4289   3.4386   3.4386   3.7331   4.1681

          k =-0.3826-0.2209 0.1376 (  7297 PWs)   bands (ev):

   -35.2104 -35.2062 -17.6520 -17.5401 -16.2870 -16.2379 -16.2329 -16.2285
   -16.1428 -16.0902 -14.2816 -14.2405 -14.1979 -14.1370  -3.3185  -3.2653
    -1.9753  -1.8121  -1.7423  -1.6848  -1.5422  -1.0786   1.9582   2.0029
     2.0771   2.0830   2.5916   2.6231   3.1607   3.1682   4.0168   4.0519

          k =-0.3826 0.2209 0.2751 (  7275 PWs)   bands (ev):

   -35.2104 -35.2062 -17.6787 -17.5132 -16.2964 -16.2956 -16.1995 -16.1811
   -16.1497 -16.0955 -14.2952 -14.2225 -14.2004 -14.1400  -3.3265  -3.2690
    -1.9429  -1.8217  -1.8075  -1.5964  -1.5283  -1.1222   1.8742   2.0926
     2.1849   2.1901   2.3835   2.8043   2.8410   3.3063   3.9668   4.0610

          k = 0.3826 0.6627 0.0000 (  7290 PWs)   bands (ev):

   -35.2083 -35.2083 -17.6079 -17.6073 -16.2945 -16.2809 -16.1915 -16.1598
   -16.1378 -16.1190 -14.2794 -14.2776 -14.1600 -14.1582  -3.2406  -3.2399
    -1.9843  -1.8281  -1.8185  -1.6189  -1.2861  -1.2422   1.7824   1.7907
     2.1612   2.2248   2.5149   2.5614   3.0923   3.1488   4.0663   4.0724

          k = 0.0000 0.0000 0.4127 (  7297 PWs)   bands (ev):

   -35.2105 -35.2062 -17.6195 -17.5585 -16.2520 -16.2520 -16.1953 -16.1953
   -16.1854 -16.1702 -14.2746 -14.2746 -14.1386 -14.1386  -3.5162  -3.3858
    -1.7669  -1.7669  -1.7322  -1.7322  -1.6281  -1.0688   2.0938   2.0938
     2.1977   2.1977   2.7017   2.7017   3.1784   3.1784   3.8102   4.0250

          k = 0.7653 0.4418 0.1376 (  7290 PWs)   bands (ev):

   -35.2083 -35.2083 -17.6284 -17.5759 -16.2979 -16.2611 -16.2263 -16.1646
   -16.1350 -16.1191 -14.2712 -14.2361 -14.1780 -14.1737  -3.3699  -3.2624
    -1.9468  -1.7795  -1.7392  -1.6921  -1.3037  -1.2938   1.8964   2.0348
     2.1887   2.2743   2.4188   2.7570   2.9395   3.1159   3.9405   4.0663

     highest occupied level (ev):     4.1681

!    total energy              =    -367.35192686 Ry
     Harris-Foulkes estimate   =    -367.35192691 Ry
     estimated scf accuracy    <       0.00000008 Ry

     The total energy is the sum of the following terms:

     one-electron contribution =    -160.24091122 Ry
     hartree contribution      =     107.97284552 Ry
     xc contribution           =     -75.18308603 Ry
     ewald contribution        =    -239.90077512 Ry

     convergence has been achieved in  18 iterations

     Forces acting on atoms (cartesian axes, Ry/au):

     atom    1 type  1   force =    -0.00000000   -0.00000000    0.00000000
     atom    2 type  1   force =     0.00000000   -0.00000000    0.00000000
     atom    3 type  2   force =    -0.00000000   -0.00000000   -0.00000000
     atom    4 type  2   force =     0.00000000    0.00000000    0.00000000
     atom    5 type  3   force =     0.04418710   -0.07653430   -0.00000000
     atom    6 type  3   force =    -0.08837420    0.00000000    0.00000000
     atom    7 type  3   force =     0.04418710    0.07653430    0.00000000
     atom    8 type  3   force =     0.08837420   -0.00000000   -0.00000000
     atom    9 type  3   force =    -0.04418710   -0.07653430   -0.00000000
     atom   10 type  3   force =    -0.04418710    0.07653430    0.00000000

     Total force =     0.216472     Total SCF correction =     0.000707


     Computing stress (Cartesian axis) and pressure

          total   stress  (Ry/bohr**3)                   (kbar)     P=  -14.20
  -0.00012253  -0.00000000   0.00000000        -18.02     -0.00      0.00
  -0.00000000  -0.00012253  -0.00000000         -0.00    -18.02     -0.00
  -0.00000000  -0.00000000  -0.00004453         -0.00     -0.00     -6.55


     number of scf cycles    =   5
     number of bfgs steps    =   3

     enthalpy old            =    -367.3152420530 Ry
     enthalpy new            =    -367.3519268573 Ry

     CASE: enthalpy_new < enthalpy_old

     new trust radius        =       0.1633000276 bohr
     new conv_thr            =       0.0000088374 Ry

     new unit-cell volume =    865.83638 a.u.^3 (   128.30371 Ang^3 )
     density =      2.59075 g/cm^3

CELL_PARAMETERS (alat= 12.00000000)
   0.423833245  -0.244700238   0.805214207
   0.000000000   0.489400476   0.805214207
  -0.423833245  -0.244700238   0.805214207

ATOMIC_POSITIONS (crystal)
Ca       0.500000000   0.500000000   0.500000000
Ca       0.000000000   0.000000000  -0.000000000
C        0.250000000   0.250000000   0.250000000
C        0.750000000   0.750000000   0.750000000
O        0.486286997   1.013713003   0.250000000
O        1.013713003   0.250000000   0.486286997
O        0.250000000   0.486286997   1.013713003
O       -0.013713003   0.750000000   0.513713003
O        0.750000000   0.513713003  -0.013713003
O        0.513713003  -0.013713003   0.750000000



     Writing output data file CCO_k.save/
     NEW-OLD atomic charge density approx. for the potential

     Check: negative core charge=   -0.000003
     extrapolated charge   60.19039, renormalised to   64.00000

     total cpu time spent up to now is      191.9 secs

     Self-consistent Calculation

     iteration #  1     ecut=    50.00 Ry     beta= 0.70
     CG style diagonalization
     c_bands:  2 eigenvalues not converged
     c_bands:  4 eigenvalues not converged
     c_bands:  2 eigenvalues not converged
     c_bands:  2 eigenvalues not converged
     c_bands:  4 eigenvalues not converged
     ethr =  1.00E-06,  avg # of iterations = 11.9

     total cpu time spent up to now is      198.5 secs

     total energy              =    -366.66523032 Ry
     Harris-Foulkes estimate   =    -374.32308710 Ry
     estimated scf accuracy    <       0.48392862 Ry

     iteration #  2     ecut=    50.00 Ry     beta= 0.70
     CG style diagonalization
     ethr =  7.56E-04,  avg # of iterations =  5.1

     total cpu time spent up to now is      201.4 secs

     total energy              =    -367.32985036 Ry
     Harris-Foulkes estimate   =    -367.96149197 Ry
     estimated scf accuracy    <       1.85155231 Ry

     iteration #  3     ecut=    50.00 Ry     beta= 0.70
     CG style diagonalization
     ethr =  7.56E-04,  avg # of iterations =  4.0

     total cpu time spent up to now is      203.7 secs

     total energy              =    -367.40044356 Ry
     Harris-Foulkes estimate   =    -367.46173838 Ry
     estimated scf accuracy    <       0.25089413 Ry

     iteration #  4     ecut=    50.00 Ry     beta= 0.70
     CG style diagonalization
     ethr =  3.92E-04,  avg # of iterations =  3.0

     total cpu time spent up to now is      205.5 secs

     total energy              =    -367.38112244 Ry
     Harris-Foulkes estimate   =    -367.40855388 Ry
     estimated scf accuracy    <       0.10408679 Ry

     iteration #  5     ecut=    50.00 Ry     beta= 0.70
     CG style diagonalization
     ethr =  1.63E-04,  avg # of iterations =  3.2

     total cpu time spent up to now is      207.4 secs

     total energy              =    -367.38256368 Ry
     Harris-Foulkes estimate   =    -367.38972444 Ry
     estimated scf accuracy    <       0.02158450 Ry

     iteration #  6     ecut=    50.00 Ry     beta= 0.70
     CG style diagonalization
     ethr =  3.37E-05,  avg # of iterations =  3.3

     total cpu time spent up to now is      209.3 secs

     total energy              =    -367.38423123 Ry
     Harris-Foulkes estimate   =    -367.38455223 Ry
     estimated scf accuracy    <       0.00380574 Ry

     iteration #  7     ecut=    50.00 Ry     beta= 0.70
     CG style diagonalization
     ethr =  5.95E-06,  avg # of iterations =  3.3

     total cpu time spent up to now is      211.2 secs

     total energy              =    -367.38415805 Ry
     Harris-Foulkes estimate   =    -367.38454604 Ry
     estimated scf accuracy    <       0.00301398 Ry

     iteration #  8     ecut=    50.00 Ry     beta= 0.70
     CG style diagonalization
     ethr =  4.71E-06,  avg # of iterations =  3.1

     total cpu time spent up to now is      213.0 secs

     total energy              =    -367.38358700 Ry
     Harris-Foulkes estimate   =    -367.38429106 Ry
     estimated scf accuracy    <       0.00173704 Ry

     iteration #  9     ecut=    50.00 Ry     beta= 0.70
     CG style diagonalization
     ethr =  2.71E-06,  avg # of iterations =  3.5

     total cpu time spent up to now is      215.1 secs

     total energy              =    -367.38380915 Ry
     Harris-Foulkes estimate   =    -367.38384449 Ry
     estimated scf accuracy    <       0.00005304 Ry

     iteration # 10     ecut=    50.00 Ry     beta= 0.70
     CG style diagonalization
     ethr =  8.29E-08,  avg # of iterations =  4.8

     total cpu time spent up to now is      217.9 secs

     total energy              =    -367.38385325 Ry
     Harris-Foulkes estimate   =    -367.38387254 Ry
     estimated scf accuracy    <       0.00004773 Ry

     iteration # 11     ecut=    50.00 Ry     beta= 0.70
     CG style diagonalization
     ethr =  7.46E-08,  avg # of iterations =  3.6

     total cpu time spent up to now is      219.9 secs

     End of self-consistent calculation

          k = 0.0000 0.0000 0.0000 (  7391 PWs)   bands (ev):

   -34.2617 -34.2497 -17.2974 -17.1563 -15.4630 -15.4630 -15.2601 -15.2508
   -15.2508 -15.2356 -13.9830 -13.9830 -13.5809 -13.5809  -3.1448  -2.8350
    -1.7240  -1.4515  -1.4515  -1.3223  -1.3223  -0.4149   2.4429   2.4429
     2.6596   2.6596   2.8776   2.8776   3.8654   3.8654   4.1028   4.5607

          k =-0.3932-0.2270 0.1380 (  7297 PWs)   bands (ev):

   -34.2586 -34.2526 -17.3012 -17.1763 -15.4511 -15.3888 -15.3773 -15.3217
   -15.2241 -15.1688 -13.8825 -13.7983 -13.7645 -13.6638  -2.9142  -2.8809
    -1.6333  -1.4468  -1.3528  -1.3011  -1.1805  -0.6701   2.3437   2.3910
     2.4846   2.4907   2.9562   3.0046   3.5511   3.5604   4.4237   4.4413

          k =-0.3932 0.2270 0.2760 (  7275 PWs)   bands (ev):

   -34.2586 -34.2526 -17.3294 -17.1475 -15.4899 -15.4619 -15.2776 -15.2662
   -15.2324 -15.1974 -13.9003 -13.8198 -13.7204 -13.6748  -2.9588  -2.8501
    -1.5865  -1.4594  -1.4371  -1.1984  -1.1504  -0.7244   2.2451   2.4681
     2.5589   2.6214   2.7657   3.1940   3.2132   3.7156   4.3460   4.4744

          k = 0.3932 0.6811 0.0000 (  7290 PWs)   bands (ev):

   -34.2555 -34.2555 -17.2499 -17.2494 -15.4500 -15.4276 -15.3183 -15.2621
   -15.2371 -15.2028 -13.8645 -13.8625 -13.7010 -13.6990  -2.8408  -2.8397
    -1.6325  -1.4531  -1.4528  -1.2189  -0.8925  -0.8381   2.1579   2.1628
     2.5397   2.6100   2.8785   2.9258   3.4864   3.5495   4.4732   4.4786

          k = 0.0000 0.0000 0.4140 (  7297 PWs)   bands (ev):

   -34.2587 -34.2527 -17.2680 -17.1974 -15.4207 -15.4207 -15.3168 -15.3168
   -15.2463 -15.2344 -13.8697 -13.8697 -13.6708 -13.6708  -3.1441  -3.0134
    -1.4093  -1.4093  -1.3452  -1.3452  -1.2845  -0.6509   2.4923   2.4923
     2.5783   2.5783   3.1118   3.1118   3.5936   3.5936   4.1836   4.4071

          k = 0.7865 0.4541 0.1380 (  7290 PWs)   bands (ev):

   -34.2556 -34.2556 -17.2727 -17.2167 -15.4949 -15.3940 -15.3410 -15.2514
   -15.2204 -15.2102 -13.8527 -13.8463 -13.7352 -13.6816  -2.9940  -2.8564
    -1.5908  -1.4086  -1.3480  -1.3161  -0.9165  -0.9011   2.2739   2.4135
     2.6069   2.6534   2.7903   3.1331   3.3327   3.5086   4.3299   4.4683

     highest occupied level (ev):     4.5607

!    total energy              =    -367.38385631 Ry
     Harris-Foulkes estimate   =    -367.38386044 Ry
     estimated scf accuracy    <       0.00000558 Ry

     The total energy is the sum of the following terms:

     one-electron contribution =    -149.83334298 Ry
     hartree contribution      =     104.08751847 Ry
     xc contribution           =     -75.33775913 Ry
     ewald contribution        =    -246.30027267 Ry

     convergence has been achieved in  11 iterations

     Forces acting on atoms (cartesian axes, Ry/au):

     atom    1 type  1   force =     0.00000000   -0.00000000    0.00000000
     atom    2 type  1   force =     0.00000000    0.00000000    0.00000000
     atom    3 type  2   force =    -0.00000000    0.00000000   -0.00000000
     atom    4 type  2   force =     0.00000000   -0.00000000   -0.00000000
     atom    5 type  3   force =     0.04211742   -0.07294951   -0.00000000
     atom    6 type  3   force =    -0.08423484   -0.00000000    0.00000000
     atom    7 type  3   force =     0.04211742    0.07294951    0.00000000
     atom    8 type  3   force =     0.08423484    0.00000000   -0.00000000
     atom    9 type  3   force =    -0.04211742   -0.07294951   -0.00000000
     atom   10 type  3   force =    -0.04211742    0.07294951    0.00000000

     Total force =     0.206332     Total SCF correction =     0.004191


     Computing stress (Cartesian axis) and pressure

          total   stress  (Ry/bohr**3)                   (kbar)     P=   18.15
   0.00013929   0.00000000  -0.00000000         20.49      0.00     -0.00
  -0.00000000   0.00013929   0.00000000         -0.00     20.49      0.00
  -0.00000000   0.00000000   0.00009164         -0.00      0.00     13.48


     number of scf cycles    =   6
     number of bfgs steps    =   4

     enthalpy old            =    -367.3519268573 Ry
     enthalpy new            =    -367.3838563121 Ry

     CASE: enthalpy_new < enthalpy_old

     new trust radius        =       0.2385031143 bohr
     new conv_thr            =       0.0000084235 Ry

     new unit-cell volume =    796.92351 a.u.^3 (   118.09188 Ang^3 )
     density =      2.81478 g/cm^3

CELL_PARAMETERS (alat= 12.00000000)
   0.406656488  -0.234783233   0.805057434
   0.000000000   0.469566466   0.805057434
  -0.406656488  -0.234783233   0.805057434

ATOMIC_POSITIONS (crystal)
Ca       0.500000000   0.500000000   0.500000000
Ca       0.000000000   0.000000000  -0.000000000
C        0.250000000   0.250000000   0.250000000
C        0.750000000   0.750000000   0.750000000
O        0.499208962   1.000791038   0.250000000
O        1.000791038   0.250000000   0.499208962
O        0.250000000   0.499208962   1.000791038
O       -0.000791038   0.750000000   0.500791038
O        0.750000000   0.500791038  -0.000791038
O        0.500791038  -0.000791038   0.750000000



     Writing output data file CCO_k.save/
     NEW-OLD atomic charge density approx. for the potential

     Check: negative core charge=   -0.000003
     extrapolated charge   58.46664, renormalised to   64.00000

     total cpu time spent up to now is      220.5 secs

     Self-consistent Calculation

     iteration #  1     ecut=    50.00 Ry     beta= 0.70
     CG style diagonalization
     c_bands:  2 eigenvalues not converged
     c_bands:  4 eigenvalues not converged
     ethr =  1.00E-06,  avg # of iterations = 14.4

     total cpu time spent up to now is      228.3 secs

     total energy              =    -366.15547527 Ry
     Harris-Foulkes estimate   =    -376.32198824 Ry
     estimated scf accuracy    <       0.81416514 Ry

     iteration #  2     ecut=    50.00 Ry     beta= 0.70
     CG style diagonalization
     ethr =  1.27E-03,  avg # of iterations =  5.1

     total cpu time spent up to now is      231.2 secs

     total energy              =    -367.34459517 Ry
     Harris-Foulkes estimate   =    -368.36061625 Ry
     estimated scf accuracy    <       2.96394396 Ry

     iteration #  3     ecut=    50.00 Ry     beta= 0.70
     CG style diagonalization
     ethr =  1.27E-03,  avg # of iterations =  3.8

     total cpu time spent up to now is      233.5 secs

     total energy              =    -367.44195795 Ry
     Harris-Foulkes estimate   =    -367.54656388 Ry
     estimated scf accuracy    <       0.40620583 Ry

     iteration #  4     ecut=    50.00 Ry     beta= 0.70
     CG style diagonalization
     ethr =  6.35E-04,  avg # of iterations =  3.0

     total cpu time spent up to now is      235.2 secs

     total energy              =    -367.38738851 Ry
     Harris-Foulkes estimate   =    -367.45478446 Ry
     estimated scf accuracy    <       0.17090256 Ry

     iteration #  5     ecut=    50.00 Ry     beta= 0.70
     CG style diagonalization
     ethr =  2.67E-04,  avg # of iterations =  3.6

     total cpu time spent up to now is      237.3 secs

     total energy              =    -367.40991490 Ry
     Harris-Foulkes estimate   =    -367.41224379 Ry
     estimated scf accuracy    <       0.00550371 Ry

     iteration #  6     ecut=    50.00 Ry     beta= 0.70
     CG style diagonalization
     ethr =  8.60E-06,  avg # of iterations =  3.9

     total cpu time spent up to now is      239.6 secs

     total energy              =    -367.41220598 Ry
     Harris-Foulkes estimate   =    -367.41125783 Ry
     estimated scf accuracy    <       0.00155861 Ry

     iteration #  7     ecut=    50.00 Ry     beta= 0.70
     CG style diagonalization
     ethr =  2.44E-06,  avg # of iterations =  3.8

     total cpu time spent up to now is      241.8 secs

     total energy              =    -367.41025166 Ry
     Harris-Foulkes estimate   =    -367.41260549 Ry
     estimated scf accuracy    <       0.00592706 Ry

     iteration #  8     ecut=    50.00 Ry     beta= 0.70
     CG style diagonalization
     ethr =  2.44E-06,  avg # of iterations =  4.0

     total cpu time spent up to now is      244.1 secs

     total energy              =    -367.41069114 Ry
     Harris-Foulkes estimate   =    -367.41093072 Ry
     estimated scf accuracy    <       0.00044436 Ry

     iteration #  9     ecut=    50.00 Ry     beta= 0.70
     CG style diagonalization
     ethr =  6.94E-07,  avg # of iterations =  3.9

     total cpu time spent up to now is      246.4 secs

     total energy              =    -367.41082899 Ry
     Harris-Foulkes estimate   =    -367.41083303 Ry
     estimated scf accuracy    <       0.00002948 Ry

     iteration # 10     ecut=    50.00 Ry     beta= 0.70
     CG style diagonalization
     ethr =  4.61E-08,  avg # of iterations =  3.4

     total cpu time spent up to now is      248.4 secs

     total energy              =    -367.41082753 Ry
     Harris-Foulkes estimate   =    -367.41083382 Ry
     estimated scf accuracy    <       0.00001313 Ry

     iteration # 11     ecut=    50.00 Ry     beta= 0.70
     CG style diagonalization
     ethr =  2.05E-08,  avg # of iterations =  3.8

     total cpu time spent up to now is      250.6 secs

     End of self-consistent calculation

          k = 0.0000 0.0000 0.0000 (  7391 PWs)   bands (ev):

   -32.7938 -32.7734 -16.5194 -16.3777 -14.3713 -14.3713 -13.8644 -13.8644
   -13.8142 -13.7682 -13.2984 -13.2984 -12.5345 -12.5345  -2.5857  -2.2796
    -1.1529  -0.8881  -0.8881  -0.6244  -0.6244   0.4540   3.0672   3.0672
     3.2072   3.2072   3.6194   3.6194   4.5207   4.5207   4.5811   5.0936

          k =-0.4098-0.2366 0.1380 (  7297 PWs)   bands (ev):

   -32.7883 -32.7782 -16.5340 -16.3838 -14.3465 -14.2204 -14.2067 -14.0139
   -13.8010 -13.7423 -13.0532 -12.8407 -12.8393 -12.6515  -2.3408  -2.3205
    -1.0077  -0.8131  -0.6720  -0.6408  -0.5205   0.1039   2.9524   3.0141
     3.1546   3.1758   3.5078   3.5995   4.1336   4.1472   4.9778   4.9940

          k =-0.4098 0.2366 0.2760 (  7275 PWs)   bands (ev):

   -32.7883 -32.7782 -16.5741 -16.3420 -14.4241 -14.3538 -13.9512 -13.8926
   -13.8345 -13.8269 -13.0774 -13.0140 -12.6822 -12.6591  -2.4509  -2.2241
    -0.9703  -0.7890  -0.7884  -0.5148  -0.4651   0.0271   2.8271   3.0559
     3.1398   3.3356   3.3947   3.7815   3.7928   4.3311   4.8644   5.0549

          k = 0.4098 0.7099 0.0000 (  7290 PWs)   bands (ev):

   -32.7831 -32.7831 -16.4723 -16.4716 -14.3258 -14.2854 -14.0971 -14.0153
   -13.8211 -13.7750 -12.9902 -12.9812 -12.7048 -12.6998  -2.2703  -2.2684
    -1.0037  -0.8057  -0.7857  -0.5230  -0.1484  -0.0838   2.7584   2.7622
     3.1389   3.2204   3.4390   3.4778   4.0814   4.1542   5.0482   5.0530

          k = 0.0000 0.0000 0.4140 (  7297 PWs)   bands (ev):

   -32.7886 -32.7785 -16.4904 -16.4196 -14.2929 -14.2929 -14.0696 -14.0696
   -13.7934 -13.7707 -13.0294 -13.0294 -12.6776 -12.6776  -2.5917  -2.4648
    -0.8125  -0.8125  -0.6816  -0.6816  -0.6402   0.1451   3.1181   3.1181
     3.1965   3.1965   3.7796   3.7796   4.2385   4.2385   4.6742   4.9181

          k = 0.8197 0.4732 0.1380 (  7290 PWs)   bands (ev):

   -32.7832 -32.7832 -16.5071 -16.4265 -14.4353 -14.2137 -14.1308 -13.8869
   -13.8176 -13.7768 -13.1047 -12.9300 -12.7789 -12.6228  -2.4601  -2.2581
    -0.9716  -0.7504  -0.6711  -0.6580  -0.2021  -0.1585   2.8697   3.0175
     3.2379   3.2899   3.3953   3.7141   3.9240   4.0998   4.8711   5.0269

     highest occupied level (ev):     5.0936

!    total energy              =    -367.41082940 Ry
     Harris-Foulkes estimate   =    -367.41083035 Ry
     estimated scf accuracy    <       0.00000141 Ry

     The total energy is the sum of the following terms:

     one-electron contribution =    -132.57320169 Ry
     hartree contribution      =      97.52123919 Ry
     xc contribution           =     -75.45381318 Ry
     ewald contribution        =    -256.90505373 Ry

     convergence has been achieved in  11 iterations

     Forces acting on atoms (cartesian axes, Ry/au):

     atom    1 type  1   force =     0.00000000   -0.00000000    0.00000000
     atom    2 type  1   force =     0.00000000    0.00000000    0.00000000
     atom    3 type  2   force =    -0.00000000   -0.00000000   -0.00000000
     atom    4 type  2   force =    -0.00000000    0.00000000   -0.00000000
     atom    5 type  3   force =     0.00969963   -0.01680026   -0.00000000
     atom    6 type  3   force =    -0.01939926   -0.00000000    0.00000000
     atom    7 type  3   force =     0.00969963    0.01680026    0.00000000
     atom    8 type  3   force =     0.01939926    0.00000000   -0.00000000
     atom    9 type  3   force =    -0.00969963   -0.01680026   -0.00000000
     atom   10 type  3   force =    -0.00969963    0.01680026    0.00000000

     Total force =     0.047518     Total SCF correction =     0.003242


     Computing stress (Cartesian axis) and pressure

          total   stress  (Ry/bohr**3)                   (kbar)     P=   48.18
   0.00026555  -0.00000000   0.00000000         39.06     -0.00      0.00
   0.00000000   0.00026555   0.00000000          0.00     39.06      0.00
  -0.00000000   0.00000000   0.00045146         -0.00      0.00     66.41


     number of scf cycles    =   7
     number of bfgs steps    =   5

     enthalpy old            =    -367.3838563121 Ry
     enthalpy new            =    -367.4108294005 Ry

     CASE: enthalpy_new < enthalpy_old

     new trust radius        =       0.0400045079 bohr
     new conv_thr            =       0.0000019399 Ry

     new unit-cell volume =    813.88580 a.u.^3 (   120.60543 Ang^3 )
     density =      2.75611 g/cm^3

CELL_PARAMETERS (alat= 12.00000000)
   0.409513244  -0.236432581   0.810761671
   0.000000000   0.472865163   0.810761671
  -0.409513244  -0.236432581   0.810761671

ATOMIC_POSITIONS (crystal)
Ca       0.500000000   0.500000000   0.500000000
Ca       0.000000000   0.000000000  -0.000000000
C        0.250000000   0.250000000   0.250000000
C        0.750000000   0.750000000   0.750000000
O        0.499225485   1.000774515   0.250000000
O        1.000774515   0.250000000   0.499225485
O        0.250000000   0.499225485   1.000774515
O       -0.000774515   0.750000000   0.500774515
O        0.750000000   0.500774515  -0.000774515
O        0.500774515  -0.000774515   0.750000000



     Writing output data file CCO_k.save/
     NEW-OLD atomic charge density approx. for the potential

     Check: negative core charge=   -0.000003
     extrapolated charge   65.33360, renormalised to   64.00000

     total cpu time spent up to now is      251.1 secs

     Self-consistent Calculation

     iteration #  1     ecut=    50.00 Ry     beta= 0.70
     CG style diagonalization
     c_bands:  3 eigenvalues not converged
     c_bands:  5 eigenvalues not converged
     c_bands:  2 eigenvalues not converged
     c_bands:  2 eigenvalues not converged
     c_bands:  4 eigenvalues not converged
     ethr =  1.00E-06,  avg # of iterations =  9.2

     total cpu time spent up to now is      256.3 secs

     total energy              =    -367.31796903 Ry
     Harris-Foulkes estimate   =    -365.24890536 Ry
     estimated scf accuracy    <       0.06818120 Ry

     iteration #  2     ecut=    50.00 Ry     beta= 0.70
     CG style diagonalization
     ethr =  1.07E-04,  avg # of iterations =  5.0

     total cpu time spent up to now is      259.1 secs

     total energy              =    -367.40947305 Ry
     Harris-Foulkes estimate   =    -367.48771473 Ry
     estimated scf accuracy    <       0.21969000 Ry

     iteration #  3     ecut=    50.00 Ry     beta= 0.70
     CG style diagonalization
     ethr =  1.07E-04,  avg # of iterations =  3.8

     total cpu time spent up to now is      261.3 secs

     total energy              =    -367.41789162 Ry
     Harris-Foulkes estimate   =    -367.42475754 Ry
     estimated scf accuracy    <       0.02978807 Ry

     iteration #  4     ecut=    50.00 Ry     beta= 0.70
     CG style diagonalization
     ethr =  4.65E-05,  avg # of iterations =  3.0

     total cpu time spent up to now is      263.1 secs

     total energy              =    -367.41556427 Ry
     Harris-Foulkes estimate   =    -367.41870393 Ry
     estimated scf accuracy    <       0.01400529 Ry

     iteration #  5     ecut=    50.00 Ry     beta= 0.70
     CG style diagonalization
     ethr =  2.19E-05,  avg # of iterations =  3.0

     total cpu time spent up to now is      264.9 secs

     total energy              =    -367.41396808 Ry
     Harris-Foulkes estimate   =    -367.41606133 Ry
[...]
   -14.7203 -14.6910 -13.7986 -13.7398 -13.4587 -13.4182  -3.1159  -2.9424
    -1.5409  -1.3930  -1.3493  -1.2167  -1.1246  -0.7712   2.1456   2.3768
     2.4967   2.7065   2.7140   2.9596   2.9882   3.3453   4.1605   4.3263

          k = 0.4196 0.7268 0.0000 (  7290 PWs)   bands (ev):

   -33.6907 -33.6907 -17.0616 -17.0614 -15.1172 -15.0823 -14.9169 -14.8276
   -14.7177 -14.6596 -13.7338 -13.7270 -13.4524 -13.4492  -2.9279  -2.9274
    -1.5236  -1.4142  -1.3561  -1.2010  -0.8907  -0.8447   2.1316   2.1433
     2.4595   2.4766   2.6589   2.6955   3.1794   3.2227   4.3696   4.3731

          k = 0.0000-0.0000 0.3684 (  7297 PWs)   bands (ev):

   -33.6944 -33.6881 -17.0848 -17.0791 -15.0610 -15.0610 -14.8873 -14.8873
   -14.6390 -14.5844 -13.7418 -13.7418 -13.4852 -13.4852  -3.2873  -3.1614
    -1.4717  -1.4717  -1.3421  -1.3421  -1.3368  -0.7017   2.4627   2.4627
     2.6755   2.6755   3.1036   3.1036   3.4001   3.4001   3.8641   4.0710

          k = 0.8392 0.4845 0.1228 (  7290 PWs)   bands (ev):

   -33.6909 -33.6909 -17.1080 -17.0288 -15.1695 -15.0207 -14.9331 -14.7666
   -14.7215 -14.6247 -13.8096 -13.6726 -13.5178 -13.4114  -3.1247  -2.9498
    -1.5274  -1.3639  -1.3550  -1.2649  -0.9565  -0.8916   2.1878   2.3414
     2.5851   2.6640   2.6831   2.9439   3.0756   3.1815   4.1673   4.3088

     highest occupied level (ev):     4.3731

!    total energy              =    -367.43231146 Ry
     Harris-Foulkes estimate   =    -367.43231150 Ry
     estimated scf accuracy    <       0.00000005 Ry

     The total energy is the sum of the following terms:

     one-electron contribution =    -148.15121282 Ry
     hartree contribution      =     103.45708187 Ry
     xc contribution           =     -75.26858680 Ry
     ewald contribution        =    -247.46959370 Ry

     convergence has been achieved in   9 iterations

     Forces acting on atoms (cartesian axes, Ry/au):

     atom    1 type  1   force =    -0.00000000   -0.00000000   -0.00000000
     atom    2 type  1   force =    -0.00000000   -0.00000000   -0.00000000
     atom    3 type  2   force =     0.00000000   -0.00000000    0.00000000
     atom    4 type  2   force =     0.00000000   -0.00000000    0.00000000
     atom    5 type  3   force =    -0.00019361    0.00033535    0.00000000
     atom    6 type  3   force =     0.00038723    0.00000000   -0.00000000
     atom    7 type  3   force =    -0.00019361   -0.00033535   -0.00000000
     atom    8 type  3   force =    -0.00038723   -0.00000000    0.00000000
     atom    9 type  3   force =     0.00019361    0.00033535    0.00000000
     atom   10 type  3   force =     0.00019361   -0.00033535   -0.00000000

     Total force =     0.000949     Total SCF correction =     0.000411
     SCF correction compared to forces is large: reduce conv_thr to get better values


     Computing stress (Cartesian axis) and pressure

          total   stress  (Ry/bohr**3)                   (kbar)     P=    0.22
   0.00000187   0.00000000   0.00000000          0.28      0.00      0.00
   0.00000000   0.00000187   0.00000000          0.00      0.28      0.00
   0.00000000   0.00000000   0.00000074          0.00      0.00      0.11


     bfgs converged in  14 scf cycles and  12 bfgs steps
     (criteria: energy <  1.0E-04 Ry, force <  1.0E-03Ry/Bohr, cell <  5.0E-01kbar)

     End of BFGS Geometry Optimization

     Final enthalpy =    -367.4323114552 Ry
Begin final coordinates
     new unit-cell volume =    854.62032 a.u.^3 (   126.64166 Ang^3 )
     density =      2.62475 g/cm^3

CELL_PARAMETERS (alat= 12.00000000)
   0.397209234  -0.229328858   0.904899152
   0.000000000   0.458657716   0.904899152
  -0.397209234  -0.229328858   0.904899152

ATOMIC_POSITIONS (crystal)
Ca       0.500000000   0.500000000   0.500000000
Ca       0.000000000  -0.000000000  -0.000000000
C        0.250000000   0.250000000   0.250000000
C        0.750000000   0.750000000   0.750000000
O        0.507117093   0.992882907   0.250000000
O        0.992882907   0.250000000   0.507117093
O        0.250000000   0.507117093   0.992882907
O        0.007117093   0.750000000   0.492882907
O        0.750000000   0.492882907   0.007117093
O        0.492882907   0.007117093   0.750000000
End final coordinates



     Writing output data file CCO_k.save/

     A final scf calculation at the relaxed structure.
     The G-vectors are recalculated for the final unit cell
     Results may differ from those at the preceding step.
 
     Parallelization info
     --------------------
     sticks:   dense  smooth     PW     G-vecs:    dense   smooth      PW
     Min          14      14      4                  339      339      51
     Max          15      15      5                  342      342      54
     Sum        1707    1707    485                40885    40885    6333
 


     bravais-lattice index     =            5
     lattice parameter (alat)  =      12.0000  a.u.
     unit-cell volume          =     854.6203 (a.u.)^3
     number of atoms/cell      =           10
     number of atomic types    =            3
     number of electrons       =        64.00
     number of Kohn-Sham states=           32
     kinetic-energy cutoff     =      50.0000  Ry
     charge density cutoff     =     200.0000  Ry
     convergence threshold     =      2.3E-07
     mixing beta               =       0.7000
     number of iterations used =            8  plain     mixing
     Exchange-correlation      = SLA  PW   PBE  PBE ( 1  4  3  4 0 0)

     celldm(1)=  12.000000  celldm(2)=   0.000000  celldm(3)=   0.000000
     celldm(4)=   0.500000  celldm(5)=   0.000000  celldm(6)=   0.000000

     crystal axes: (cart. coord. in units of alat)
               a(1) = (   0.397209  -0.229329   0.904899 )  
               a(2) = (   0.000000   0.458658   0.904899 )  
               a(3) = (  -0.397209  -0.229329   0.904899 )  

     reciprocal axes: (cart. coord. in units 2 pi/alat)
               b(1) = (  1.258782 -0.726758  0.368365 )  
               b(2) = (  0.000000  1.453517  0.368365 )  
               b(3) = ( -1.258782 -0.726758  0.368365 )  


     PseudoPot. # 1 for Ca read from file:
     ./Ca_PBE.UPF
     MD5 check sum: 403a4c14b9e4d4dfdc3024c9a3812218
     Pseudo is Ultrasoft + core correction, Zval = 10.0
     Generated by new atomic code, or converted to UPF format
     Using radial grid of  845 points,  6 beta functions with: 
                l(1) =   0
                l(2) =   0
                l(3) =   1
                l(4) =   1
                l(5) =   2
                l(6) =   2
     Q(r) pseudized with  8 coefficients,  rinner =    1.500   1.500   1.500
                                                       1.500   1.500

     PseudoPot. # 2 for C  read from file:
     ./C_PBE.UPF
     MD5 check sum: d1aef80898a10debaa0f26306b886e00
     Pseudo is Ultrasoft + core correction, Zval =  4.0
     Generated by new atomic code, or converted to UPF format
     Using radial grid of  721 points,  4 beta functions with: 
                l(1) =   0
                l(2) =   0
                l(3) =   1
                l(4) =   1
     Q(r) pseudized with  8 coefficients,  rinner =    1.100   1.100   1.100


     PseudoPot. # 3 for O  read from file:
     ./O_PBE.UPF
     MD5 check sum: 734c27235a0248c51dbae37a1fbe46ec
     Pseudo is Ultrasoft + core correction, Zval =  6.0
     Generated by new atomic code, or converted to UPF format
     Using radial grid of  737 points,  5 beta functions with: 
                l(1) =   0
                l(2) =   0
                l(3) =   1
                l(4) =   1
                l(5) =   2
     Q(r) pseudized with  8 coefficients,  rinner =    0.900   0.900   0.900
                                                       0.900   0.900

     atomic species   valence    mass     pseudopotential
        Ca            10.00    40.07800     Ca( 1.00)
        C              4.00    12.01070     C ( 1.00)
        O              6.00    16.00000     O ( 1.00)

     12 Sym. Ops., with inversion, found ( 6 have fractional translation)



   Cartesian axes

     site n.     atom                  positions (alat units)
         1           Ca  tau(   1) = (   0.0000000  -0.0000000   1.3573487  )
         2           Ca  tau(   2) = (   0.0000000  -0.0000000   0.0000000  )
         3           C   tau(   3) = (   0.0000000  -0.0000000   0.6786744  )
         4           C   tau(   4) = (   0.0000000  -0.0000000   2.0360231  )
         5           O   tau(   5) = (   0.1021293   0.2817646   1.5835735  )
         6           O   tau(   6) = (   0.1929507  -0.2293289   1.5835735  )
         7           O   tau(   7) = (  -0.2950800  -0.0524357   1.5835735  )
         8           O   tau(   8) = (  -0.1929507   0.2293289   1.1311239  )
         9           O   tau(   9) = (   0.2950800   0.0524357   1.1311239  )
        10           O   tau(  10) = (  -0.1021293  -0.2817646   1.1311239  )

     number of k points=     6
                       cart. coord. in units 2pi/alat
        k(    1) = (   0.0000000   0.0000000   0.0000000), wk =   0.0740741
        k(    2) = (  -0.4195941  -0.2422528   0.1227884), wk =   0.4444444
        k(    3) = (  -0.4195941   0.2422528   0.2455768), wk =   0.4444444
        k(    4) = (   0.4195941   0.7267584   0.0000000), wk =   0.4444444
        k(    5) = (   0.0000000  -0.0000000   0.3683652), wk =   0.1481481
        k(    6) = (   0.8391883   0.4845056   0.1227884), wk =   0.4444444

     Dense  grid:    40885 G-vectors     FFT dimensions: (  60,  60,  60)

     Estimated max dynamical RAM per process >      14.81 MB

     Estimated total dynamical RAM >       1.74 GB
     Message from routine sym_rho_init:
     some processors have no G-vectors for symmetrization
     Message from routine sym_rho_init:
     some processors have no G-vectors for symmetrization

     Check: negative core charge=   -0.000003

     Initial potential from superposition of free atoms

     starting charge   63.98899, renormalised to   64.00000
     Starting wfcs are   52 randomized atomic wfcs

     total cpu time spent up to now is      406.7 secs

     Self-consistent Calculation

     iteration #  1     ecut=    50.00 Ry     beta= 0.70
     CG style diagonalization
     c_bands:  3 eigenvalues not converged
     c_bands:  4 eigenvalues not converged
     c_bands:  4 eigenvalues not converged
     c_bands:  2 eigenvalues not converged
     c_bands:  1 eigenvalues not converged
     c_bands:  3 eigenvalues not converged
     ethr =  1.00E-06,  avg # of iterations = 11.6

     total cpu time spent up to now is      412.9 secs

     total energy              =    -366.72832525 Ry
     Harris-Foulkes estimate   =    -367.90349681 Ry
     estimated scf accuracy    <       1.68749469 Ry

     iteration #  2     ecut=    50.00 Ry     beta= 0.70
     CG style diagonalization
     ethr =  2.64E-03,  avg # of iterations =  4.3

     total cpu time spent up to now is      415.3 secs

     total energy              =    -367.11277637 Ry
     Harris-Foulkes estimate   =    -367.87599397 Ry
     estimated scf accuracy    <       1.56078692 Ry

     iteration #  3     ecut=    50.00 Ry     beta= 0.70
     CG style diagonalization
     ethr =  2.44E-03,  avg # of iterations =  3.8

     total cpu time spent up to now is      417.4 secs

     total energy              =    -367.41880114 Ry
     Harris-Foulkes estimate   =    -367.42163952 Ry
     estimated scf accuracy    <       0.01275482 Ry

     iteration #  4     ecut=    50.00 Ry     beta= 0.70
     CG style diagonalization
     ethr =  1.99E-05,  avg # of iterations =  4.2

     total cpu time spent up to now is      419.8 secs

     total energy              =    -367.42989100 Ry
     Harris-Foulkes estimate   =    -367.43090318 Ry
     estimated scf accuracy    <       0.00268748 Ry

     iteration #  5     ecut=    50.00 Ry     beta= 0.70
     CG style diagonalization
     ethr =  4.20E-06,  avg # of iterations =  3.5

     total cpu time spent up to now is      421.8 secs

     total energy              =    -367.43027954 Ry
     Harris-Foulkes estimate   =    -367.43031050 Ry
     estimated scf accuracy    <       0.00013923 Ry

     iteration #  6     ecut=    50.00 Ry     beta= 0.70
     CG style diagonalization
     ethr =  2.18E-07,  avg # of iterations =  4.1

     total cpu time spent up to now is      424.0 secs

     total energy              =    -367.43031476 Ry
     Harris-Foulkes estimate   =    -367.43032060 Ry
     estimated scf accuracy    <       0.00001085 Ry

     iteration #  7     ecut=    50.00 Ry     beta= 0.70
     CG style diagonalization
     ethr =  1.70E-08,  avg # of iterations =  4.2

     total cpu time spent up to now is      426.4 secs

     total energy              =    -367.43031982 Ry
     Harris-Foulkes estimate   =    -367.43032186 Ry
     estimated scf accuracy    <       0.00000454 Ry

     iteration #  8     ecut=    50.00 Ry     beta= 0.70
     CG style diagonalization
     ethr =  7.10E-09,  avg # of iterations =  3.7

     total cpu time spent up to now is      428.4 secs

     End of self-consistent calculation

          k = 0.0000 0.0000 0.0000 (  5173 PWs)   bands (ev):

   -33.6971 -33.6845 -17.0858 -17.0742 -15.1288 -15.1288 -14.7629 -14.7629
   -14.6689 -14.5597 -13.9068 -13.9068 -13.3752 -13.3752  -3.3174  -3.0442
    -1.6927  -1.5360  -1.5360  -1.2761  -1.2761  -0.4056   2.3528   2.3528
     2.7909   2.7909   2.9600   2.9600   3.5715   3.5715   3.7710   4.1982

          k =-0.4196-0.2423 0.1228 (  5099 PWs)   bands (ev):

   -33.6936 -33.6873 -17.1020 -17.0283 -15.1168 -15.0102 -14.9933 -14.8381
   -14.6712 -14.6539 -13.7332 -13.6171 -13.5566 -13.4615  -3.0263  -3.0239
    -1.5402  -1.4168  -1.2781  -1.2722  -1.2072  -0.7123   2.2848   2.3598
     2.5707   2.5937   2.7186   2.8245   3.1951   3.2289   4.2422   4.2570

          k =-0.4196 0.2423 0.2456 (  5098 PWs)   bands (ev):

   -33.6936 -33.6873 -17.1413 -16.9882 -15.1554 -15.1293 -14.8000 -14.7421
   -14.7199 -14.6908 -13.7986 -13.7398 -13.4586 -13.4181  -3.1155  -2.9419
    -1.5401  -1.3922  -1.3486  -1.2159  -1.1239  -0.7707   2.1460   2.3771
     2.4972   2.7068   2.7145   2.9600   2.9884   3.3455   4.1611   4.3270

          k = 0.4196 0.7268 0.0000 (  5081 PWs)   bands (ev):

   -33.6903 -33.6903 -17.0615 -17.0613 -15.1170 -15.0822 -14.9165 -14.8273
   -14.7174 -14.6592 -13.7338 -13.7270 -13.4524 -13.4491  -2.9274  -2.9269
    -1.5228  -1.4134  -1.3554  -1.2001  -0.8901  -0.8441   2.1320   2.1437
     2.4600   2.4771   2.6591   2.6958   3.1796   3.2229   4.3702   4.3738

          k = 0.0000-0.0000 0.3684 (  5112 PWs)   bands (ev):

   -33.6939 -33.6877 -17.0848 -17.0790 -15.0607 -15.0607 -14.8869 -14.8869
   -14.6388 -14.5842 -13.7417 -13.7417 -13.4851 -13.4851  -3.2868  -3.1609
    -1.4709  -1.4709  -1.3413  -1.3413  -1.3363  -0.7011   2.4630   2.4630
     2.6760   2.6760   3.1040   3.1040   3.4005   3.4005   3.8647   4.0716

          k = 0.8392 0.4845 0.1228 (  5109 PWs)   bands (ev):

   -33.6905 -33.6904 -17.1079 -17.0287 -15.1692 -15.0205 -14.9328 -14.7662
   -14.7211 -14.6244 -13.8096 -13.6726 -13.5178 -13.4112  -3.1242  -2.9493
    -1.5266  -1.3631  -1.3543  -1.2640  -0.9559  -0.8910   2.1883   2.3417
     2.5857   2.6645   2.6833   2.9442   3.0757   3.1818   4.1679   4.3095

     highest occupied level (ev):     4.3738

!    total energy              =    -367.43032062 Ry
     Harris-Foulkes estimate   =    -367.43032069 Ry
     estimated scf accuracy    <       0.00000009 Ry

     The total energy is the sum of the following terms:

     one-electron contribution =    -148.14697713 Ry
     hartree contribution      =     103.45420161 Ry
     xc contribution           =     -75.26795141 Ry
     ewald contribution        =    -247.46959369 Ry

     convergence has been achieved in   8 iterations

     Forces acting on atoms (cartesian axes, Ry/au):

     atom    1 type  1   force =    -0.00000000   -0.00000000    0.00000000
     atom    2 type  1   force =     0.00000000    0.00000000    0.00000000
     atom    3 type  2   force =     0.00000000   -0.00000000    0.00000000
     atom    4 type  2   force =    -0.00000000    0.00000000   -0.00000000
     atom    5 type  3   force =    -0.00019955    0.00034563    0.00000000
     atom    6 type  3   force =     0.00039910    0.00000000   -0.00000000
     atom    7 type  3   force =    -0.00019955   -0.00034563   -0.00000000
     atom    8 type  3   force =    -0.00039910   -0.00000000    0.00000000
     atom    9 type  3   force =     0.00019955    0.00034563    0.00000000
     atom   10 type  3   force =     0.00019955   -0.00034563   -0.00000000

     Total force =     0.000978     Total SCF correction =     0.001210
     SCF correction compared to forces is large: reduce conv_thr to get better values


     Computing stress (Cartesian axis) and pressure

          total   stress  (Ry/bohr**3)                   (kbar)     P=   -1.10
  -0.00000887  -0.00000000  -0.00000000         -1.30     -0.00     -0.00
  -0.00000000  -0.00000887  -0.00000000         -0.00     -1.30     -0.00
  -0.00000000  -0.00000000  -0.00000464         -0.00     -0.00     -0.68


     Writing output data file CCO_k.save/
 
     init_run     :      2.41s CPU      5.24s WALL (       2 calls)
     electrons    :    368.86s CPU    412.77s WALL (      15 calls)
     update_pot   :      1.01s CPU      1.08s WALL (      13 calls)
     forces       :      1.70s CPU      1.93s WALL (      15 calls)
     stress       :      2.90s CPU      3.07s WALL (      15 calls)

     Called by init_run:
     wfcinit      :      1.74s CPU      2.78s WALL (       2 calls)
     potinit      :      0.13s CPU      0.35s WALL (       2 calls)
     hinit0       :      0.40s CPU      1.36s WALL (       2 calls)

     Called by electrons:
     c_bands      :    341.77s CPU    382.64s WALL (     163 calls)
     sum_band     :     22.42s CPU     23.89s WALL (     163 calls)
     v_of_rho     :      2.91s CPU      3.18s WALL (     178 calls)
     newd         :      1.27s CPU      1.52s WALL (     178 calls)
     mix_rho      :      0.46s CPU      0.58s WALL (     163 calls)

     Called by c_bands:
     init_us_2    :      0.49s CPU      0.62s WALL (    2148 calls)
     ccgdiagg     :    270.54s CPU    295.35s WALL (     992 calls)
     wfcrot       :     72.30s CPU     87.83s WALL (     914 calls)

     Called by sum_band:
     sum_band:bec :      0.27s CPU      0.31s WALL (     978 calls)
     addusdens    :      0.86s CPU      0.94s WALL (     163 calls)

     Called by *cgdiagg:
     h_psi        :    227.15s CPU    243.45s WALL (  107943 calls)
     s_psi        :     11.78s CPU     13.39s WALL (  214972 calls)
     cdiaghg      :     26.96s CPU     39.51s WALL (     914 calls)

     Called by h_psi:
     h_psi:pot    :    224.26s CPU    240.11s WALL (  107943 calls)
     h_psi:calbec :     26.66s CPU     29.02s WALL (  107943 calls)
     vloc_psi     :    185.38s CPU    197.88s WALL (  107943 calls)
     add_vuspsi   :      8.65s CPU      9.57s WALL (  107943 calls)
     hs_1psi      :    201.80s CPU    217.07s WALL (  107029 calls)
     s_1psi       :     24.05s CPU     27.34s WALL (  107029 calls)

     General routines
     calbec       :     39.67s CPU     44.41s WALL (  216400 calls)
     fft          :      3.23s CPU      3.91s WALL (    2346 calls)
     ffts         :      0.22s CPU      0.22s WALL (     163 calls)
     fftw         :    194.54s CPU    207.25s WALL (  304330 calls)
 
     Parallel routines
     fft_scatt_xy :      9.06s CPU      9.62s WALL (  306839 calls)
     fft_scatt_yz :    148.82s CPU    158.72s WALL (  306839 calls)
 
     PWSCF        :   6m19.46s CPU   7m11.76s WALL

 
   This run was terminated on:  15:22:41  24Apr2022            

=------------------------------------------------------------------------------=
   JOB DONE.
=------------------------------------------------------------------------------=
