
     Program PWSCF v.6.4.1 starts on 24Apr2022 at 20: 4:45 

     This program is part of the open-source Quantum ESPRESSO suite
     for quantum simulation of materials; please cite
         "P. Giannozzi et al., J. Phys.:Condens. Matter 21 395502 (2009);
         "P. Giannozzi et al., J. Phys.:Condens. Matter 29 465901 (2017);
          URL http://www.quantum-espresso.org", 
     in publications or presentations arising from this work. More details at
     http://www.quantum-espresso.org/quote

     Parallel version (MPI & OpenMP), running on     120 processor cores
     Number of MPI processes:               120
     Threads/MPI process:                     1

     MPI processes distributed on     2 nodes
     R & G space division:  proc/nbgrp/npool/nimage =     120
     Waiting for input...
     Reading input from standard input

     Current dimensions of program PWSCF are:
     Max number of different atomic species (ntypx) = 10
     Max number of k-points (npk) =  40000
     Max angular momentum in pseudopotentials (lmaxx) =  3

     Subspace diagonalization in iterative solution of the eigenvalue problem:
     one sub-group per band group will be used
     scalapack distributed-memory algorithm (size of sub-group:  7*  7 procs)

 
     Parallelization info
     --------------------
     sticks:   dense  smooth     PW     G-vecs:    dense   smooth      PW
     Min          16      16      4                  484      484      72
     Max          17      17      5                  491      491      81
     Sum        1981    1981    583                58383    58383    9257
 


     bravais-lattice index     =            5
     lattice parameter (alat)  =      12.0000  a.u.
     unit-cell volume          =    1221.8805 (a.u.)^3
     number of atoms/cell      =           10
     number of atomic types    =            3
     number of electrons       =        64.00
     number of Kohn-Sham states=           32
     kinetic-energy cutoff     =      50.0000  Ry
     charge density cutoff     =     200.0000  Ry
     convergence threshold     =      1.0E-05
     mixing beta               =       0.7000
     number of iterations used =            8  plain     mixing
     Exchange-correlation      = SLA  PW   PBE  PBE ( 1  4  3  4 0 0)
     nstep                     =           50


     celldm(1)=  12.000000  celldm(2)=   0.000000  celldm(3)=   0.000000
     celldm(4)=   0.500000  celldm(5)=   0.000000  celldm(6)=   0.000000

     crystal axes: (cart. coord. in units of alat)
               a(1) = (   0.500000  -0.288675   0.816497 )  
               a(2) = (   0.000000   0.577350   0.816497 )  
               a(3) = (  -0.500000  -0.288675   0.816497 )  

     reciprocal axes: (cart. coord. in units 2 pi/alat)
               b(1) = (  1.000000 -0.577350  0.408248 )  
               b(2) = (  0.000000  1.154701  0.408248 )  
               b(3) = ( -1.000000 -0.577350  0.408248 )  


     PseudoPot. # 1 for Ca read from file:
     ./Ca_PBE.UPF
     MD5 check sum: 403a4c14b9e4d4dfdc3024c9a3812218
     Pseudo is Ultrasoft + core correction, Zval = 10.0
     Generated by new atomic code, or converted to UPF format
     Using radial grid of  845 points,  6 beta functions with: 
                l(1) =   0
                l(2) =   0
                l(3) =   1
                l(4) =   1
                l(5) =   2
                l(6) =   2
     Q(r) pseudized with  8 coefficients,  rinner =    1.500   1.500   1.500
                                                       1.500   1.500

     PseudoPot. # 2 for C  read from file:
     ./C_PBE.UPF
     MD5 check sum: d1aef80898a10debaa0f26306b886e00
     Pseudo is Ultrasoft + core correction, Zval =  4.0
     Generated by new atomic code, or converted to UPF format
     Using radial grid of  721 points,  4 beta functions with: 
                l(1) =   0
                l(2) =   0
                l(3) =   1
                l(4) =   1
     Q(r) pseudized with  8 coefficients,  rinner =    1.100   1.100   1.100


     PseudoPot. # 3 for O  read from file:
     ./O_PBE.UPF
     MD5 check sum: 734c27235a0248c51dbae37a1fbe46ec
     Pseudo is Ultrasoft + core correction, Zval =  6.0
     Generated by new atomic code, or converted to UPF format
     Using radial grid of  737 points,  5 beta functions with: 
                l(1) =   0
                l(2) =   0
                l(3) =   1
                l(4) =   1
                l(5) =   2
     Q(r) pseudized with  8 coefficients,  rinner =    0.900   0.900   0.900
                                                       0.900   0.900

     atomic species   valence    mass     pseudopotential
        Ca            10.00    40.07800     Ca( 1.00)
        C              4.00    12.01070     C ( 1.00)
        O              6.00    16.00000     O ( 1.00)

     12 Sym. Ops., with inversion, found ( 6 have fractional translation)



   Cartesian axes

     site n.     atom                  positions (alat units)
         1           Ca  tau(   1) = (   0.0000000  -0.0000000   1.2247449  )
         2           Ca  tau(   2) = (   0.0000000   0.0000000   0.0000000  )
         3           C   tau(   3) = (   0.0000000  -0.0000000   0.6123724  )
         4           C   tau(   4) = (  -0.0000000  -0.0000000   1.8371173  )
         5           O   tau(   5) = (   0.1284501   0.3548681   1.4288690  )
         6           O   tau(   6) = (   0.2430998  -0.2886751   1.4288690  )
         7           O   tau(   7) = (  -0.3715499  -0.0661930   1.4288690  )
         8           O   tau(   8) = (  -0.2430998   0.2886751   1.0206207  )
         9           O   tau(   9) = (   0.3715499   0.0661930   1.0206207  )
        10           O   tau(  10) = (  -0.1284501  -0.3548681   1.0206207  )

     number of k points=   116

     Number of k-points >= 100: set verbosity='high' to print them.

     Dense  grid:    58383 G-vectors     FFT dimensions: (  60,  60,  60)

     Estimated max dynamical RAM per process >      18.67 MB

     Estimated total dynamical RAM >       2.19 GB
     Message from routine sym_rho_init:
     some processors have no G-vectors for symmetrization
     Message from routine sym_rho_init:
     some processors have no G-vectors for symmetrization
     Message from routine sym_rho_init:
     some processors have no G-vectors for symmetrization
     Message from routine sym_rho_init:
     some processors have no G-vectors for symmetrization
     Message from routine sym_rho_init:
     some processors have no G-vectors for symmetrization

     Check: negative core charge=   -0.000002

     Initial potential from superposition of free atoms

     starting charge   63.98899, renormalised to   64.00000
     Starting wfcs are   52 randomized atomic wfcs

     total cpu time spent up to now is       17.2 secs

     Self-consistent Calculation

     iteration #  1     ecut=    50.00 Ry     beta= 0.70
     CG style diagonalization
     ethr =  1.00E-02,  avg # of iterations =  2.2

     total cpu time spent up to now is       41.4 secs

     total energy              =    -365.13656227 Ry
     Harris-Foulkes estimate   =    -366.89795656 Ry
     estimated scf accuracy    <       2.39168575 Ry

     iteration #  2     ecut=    50.00 Ry     beta= 0.70
     CG style diagonalization
     ethr =  3.74E-03,  avg # of iterations =  4.8

     total cpu time spent up to now is       94.0 secs

     total energy              =    -364.97937021 Ry
     Harris-Foulkes estimate   =    -368.32918234 Ry
     estimated scf accuracy    <       9.62347276 Ry

     iteration #  3     ecut=    50.00 Ry     beta= 0.70
     CG style diagonalization
     ethr =  3.74E-03,  avg # of iterations =  4.3

     total cpu time spent up to now is      140.9 secs

     total energy              =    -366.40037807 Ry
     Harris-Foulkes estimate   =    -366.42501842 Ry
     estimated scf accuracy    <       0.05357698 Ry

     iteration #  4     ecut=    50.00 Ry     beta= 0.70
     CG style diagonalization
     ethr =  8.37E-05,  avg # of iterations =  4.3

     total cpu time spent up to now is      188.1 secs

     total energy              =    -366.43478320 Ry
     Harris-Foulkes estimate   =    -366.43798004 Ry
     estimated scf accuracy    <       0.00996162 Ry

     iteration #  5     ecut=    50.00 Ry     beta= 0.70
     CG style diagonalization
     ethr =  1.56E-05,  avg # of iterations =  3.8

     total cpu time spent up to now is      230.2 secs

     total energy              =    -366.43764427 Ry
     Harris-Foulkes estimate   =    -366.43765224 Ry
     estimated scf accuracy    <       0.00016620 Ry

     iteration #  6     ecut=    50.00 Ry     beta= 0.70
     CG style diagonalization
     ethr =  2.60E-07,  avg # of iterations =  5.2

     total cpu time spent up to now is      286.9 secs

     total energy              =    -366.43785229 Ry
     Harris-Foulkes estimate   =    -366.43789288 Ry
     estimated scf accuracy    <       0.00009610 Ry

     iteration #  7     ecut=    50.00 Ry     beta= 0.70
     CG style diagonalization
     ethr =  1.50E-07,  avg # of iterations =  3.9

     total cpu time spent up to now is      329.5 secs

     total energy              =    -366.43788019 Ry
     Harris-Foulkes estimate   =    -366.43788485 Ry
     estimated scf accuracy    <       0.00001577 Ry

     iteration #  8     ecut=    50.00 Ry     beta= 0.70
     CG style diagonalization
     ethr =  2.46E-08,  avg # of iterations =  3.5

     total cpu time spent up to now is      368.6 secs

     End of self-consistent calculation

     Number of k-points >= 100: set verbosity='high' to print the bands.

     highest occupied level (ev):     1.4954

!    total energy              =    -366.43788141 Ry
     Harris-Foulkes estimate   =    -366.43788273 Ry
     estimated scf accuracy    <       0.00000169 Ry

     The total energy is the sum of the following terms:

     one-electron contribution =    -167.19381668 Ry
     hartree contribution      =     105.90338160 Ry
     xc contribution           =     -72.68137357 Ry
     ewald contribution        =    -232.46607275 Ry

     convergence has been achieved in   8 iterations

     Forces acting on atoms (cartesian axes, Ry/au):

     atom    1 type  1   force =     0.00000000    0.00000000    0.00000000
     atom    2 type  1   force =     0.00000000    0.00000000    0.00000000
     atom    3 type  2   force =     0.00000000    0.00000000   -0.00000000
     atom    4 type  2   force =    -0.00000000   -0.00000000    0.00000000
     atom    5 type  3   force =    -0.12157191    0.21056873    0.00000000
     atom    6 type  3   force =     0.24314382    0.00000000    0.00000000
     atom    7 type  3   force =    -0.12157191   -0.21056873   -0.00000000
     atom    8 type  3   force =    -0.24314382   -0.00000000   -0.00000000
     atom    9 type  3   force =     0.12157191    0.21056873    0.00000000
     atom   10 type  3   force =     0.12157191   -0.21056873   -0.00000000

     Total force =     0.595578     Total SCF correction =     0.001706


     Computing stress (Cartesian axis) and pressure

          total   stress  (Ry/bohr**3)                   (kbar)     P= -286.67
  -0.00282339   0.00000000  -0.00000000       -415.34      0.00     -0.00
   0.00000000  -0.00282339  -0.00000000          0.00   -415.34     -0.00
  -0.00000000  -0.00000000  -0.00019947         -0.00     -0.00    -29.34


     BFGS Geometry Optimization

     number of scf cycles    =   1
     number of bfgs steps    =   0

     enthalpy new            =    -366.4378814063 Ry

     new trust radius        =       0.4934641435 bohr
     new conv_thr            =       0.0000100000 Ry

     new unit-cell volume =   1050.21249 a.u.^3 (   155.62543 Ang^3 )
     density =      2.13591 g/cm^3

CELL_PARAMETERS (alat= 12.00000000)
   0.464707596  -0.268299056   0.812424993
   0.000000000   0.536598111   0.812424993
  -0.464707596  -0.268299056   0.812424993

ATOMIC_POSITIONS (crystal)
Ca       0.500000000   0.500000000   0.500000000
Ca       0.000000000   0.000000000   0.000000000
C        0.250000000   0.250000000   0.250000000
C        0.750000000   0.750000000   0.750000000
O        0.486638260   1.013361740   0.250000000
O        1.013361740   0.250000000   0.486638260
O        0.250000000   0.486638260   1.013361740
O       -0.013361740   0.750000000   0.513361740
O        0.750000000   0.513361740  -0.013361740
O        0.513361740  -0.013361740   0.750000000



     Writing output data file CCO_k.save/
     NEW-OLD atomic charge density approx. for the potential

     Check: negative core charge=   -0.000002
     extrapolated charge   53.54034, renormalised to   64.00000

     total cpu time spent up to now is      371.8 secs

     Self-consistent Calculation

     iteration #  1     ecut=    50.00 Ry     beta= 0.70
     CG style diagonalization
     c_bands:  2 eigenvalues not converged
     c_bands:  2 eigenvalues not converged
     c_bands:  5 eigenvalues not converged
     c_bands:  4 eigenvalues not converged
     c_bands:  3 eigenvalues not converged
     c_bands:  4 eigenvalues not converged
     c_bands:  4 eigenvalues not converged
     c_bands:  5 eigenvalues not converged
     c_bands:  3 eigenvalues not converged
     c_bands:  4 eigenvalues not converged
     c_bands:  3 eigenvalues not converged
     c_bands:  4 eigenvalues not converged
     c_bands:  3 eigenvalues not converged
     c_bands:  4 eigenvalues not converged
     c_bands:  2 eigenvalues not converged
     c_bands:  4 eigenvalues not converged
     c_bands:  1 eigenvalues not converged
     c_bands:  3 eigenvalues not converged
     c_bands:  1 eigenvalues not converged
     c_bands:  3 eigenvalues not converged
     c_bands:  1 eigenvalues not converged
     c_bands:  2 eigenvalues not converged
     c_bands:  1 eigenvalues not converged
     c_bands:  2 eigenvalues not converged
     c_bands:  4 eigenvalues not converged
     c_bands:  5 eigenvalues not converged
     c_bands:  3 eigenvalues not converged
     c_bands:  5 eigenvalues not converged
     c_bands:  4 eigenvalues not converged
     c_bands:  2 eigenvalues not converged
     c_bands:  4 eigenvalues not converged
     c_bands:  3 eigenvalues not converged
     c_bands:  5 eigenvalues not converged
     c_bands:  5 eigenvalues not converged
     c_bands:  3 eigenvalues not converged
     c_bands:  3 eigenvalues not converged
     c_bands:  3 eigenvalues not converged
     c_bands:  5 eigenvalues not converged
     c_bands:  4 eigenvalues not converged
     c_bands:  4 eigenvalues not converged
     c_bands:  5 eigenvalues not converged
     c_bands:  5 eigenvalues not converged
     c_bands:  3 eigenvalues not converged
     c_bands:  2 eigenvalues not converged
     c_bands:  3 eigenvalues not converged
     c_bands:  3 eigenvalues not converged
     c_bands:  1 eigenvalues not converged
     c_bands:  3 eigenvalues not converged
     c_bands:  1 eigenvalues not converged
     c_bands:  4 eigenvalues not converged
     c_bands:  4 eigenvalues not converged
     c_bands:  5 eigenvalues not converged
     c_bands:  5 eigenvalues not converged
     c_bands:  5 eigenvalues not converged
     c_bands:  5 eigenvalues not converged
     c_bands:  2 eigenvalues not converged
     c_bands:  3 eigenvalues not converged
     c_bands:  5 eigenvalues not converged
     c_bands:  2 eigenvalues not converged
     c_bands:  4 eigenvalues not converged
     c_bands:  4 eigenvalues not converged
     c_bands:  4 eigenvalues not converged
     c_bands:  5 eigenvalues not converged
     c_bands:  4 eigenvalues not converged
     c_bands:  5 eigenvalues not converged
     c_bands:  3 eigenvalues not converged
     c_bands:  4 eigenvalues not converged
     c_bands:  5 eigenvalues not converged
     c_bands:  4 eigenvalues not converged
     c_bands:  2 eigenvalues not converged
     c_bands:  2 eigenvalues not converged
     c_bands:  4 eigenvalues not converged
     c_bands:  4 eigenvalues not converged
     c_bands:  3 eigenvalues not converged
     c_bands:  3 eigenvalues not converged
     c_bands:  4 eigenvalues not converged
     c_bands:  5 eigenvalues not converged
     c_bands:  3 eigenvalues not converged
     c_bands:  4 eigenvalues not converged
     c_bands:  4 eigenvalues not converged
     c_bands:  4 eigenvalues not converged
     c_bands:  5 eigenvalues not converged
     c_bands:  5 eigenvalues not converged
     c_bands:  2 eigenvalues not converged
     c_bands:  1 eigenvalues not converged
     c_bands:  4 eigenvalues not converged
     c_bands:  4 eigenvalues not converged
     c_bands:  2 eigenvalues not converged
     c_bands:  1 eigenvalues not converged
     c_bands:  1 eigenvalues not converged
     c_bands:  2 eigenvalues not converged
     ethr =  1.00E-06,  avg # of iterations = 13.5

     total cpu time spent up to now is      514.6 secs

     total energy              =    -360.78220149 Ry
     Harris-Foulkes estimate   =    -388.25682502 Ry
     estimated scf accuracy    <       5.66888935 Ry

     iteration #  2     ecut=    50.00 Ry     beta= 0.70
     CG style diagonalization
     ethr =  8.86E-03,  avg # of iterations =  5.4

     total cpu time spent up to now is      573.4 secs

     total energy              =    -364.87143670 Ry
     Harris-Foulkes estimate   =    -373.43589811 Ry
     estimated scf accuracy    <      26.30804386 Ry

     iteration #  3     ecut=    50.00 Ry     beta= 0.70
     CG style diagonalization
     ethr =  8.86E-03,  avg # of iterations =  4.2

     total cpu time spent up to now is      621.8 secs

     total energy              =    -367.22815424 Ry
     Harris-Foulkes estimate   =    -367.68324242 Ry
     estimated scf accuracy    <       1.76684955 Ry

     iteration #  4     ecut=    50.00 Ry     beta= 0.70
     CG style diagonalization
     ethr =  2.76E-03,  avg # of iterations =  3.1

     total cpu time spent up to now is      656.5 secs

     total energy              =    -367.20112228 Ry
     Harris-Foulkes estimate   =    -367.34861951 Ry
     estimated scf accuracy    <       0.75739015 Ry

     iteration #  5     ecut=    50.00 Ry     beta= 0.70
     CG style diagonalization
     ethr =  1.18E-03,  avg # of iterations =  3.0

     total cpu time spent up to now is      690.5 secs

     total energy              =    -367.10584405 Ry
     Harris-Foulkes estimate   =    -367.23803086 Ry
     estimated scf accuracy    <       0.34213716 Ry

     iteration #  6     ecut=    50.00 Ry     beta= 0.70
     CG style diagonalization
     ethr =  5.35E-04,  avg # of iterations =  3.7

     total cpu time spent up to now is      731.3 secs

     total energy              =    -367.16814836 Ry
     Harris-Foulkes estimate   =    -367.16958838 Ry
     estimated scf accuracy    <       0.00343876 Ry

     iteration #  7     ecut=    50.00 Ry     beta= 0.70
     CG style diagonalization
     ethr =  5.37E-06,  avg # of iterations =  5.3

     total cpu time spent up to now is      788.7 secs

     total energy              =    -367.17420224 Ry
     Harris-Foulkes estimate   =    -367.17528325 Ry
     estimated scf accuracy    <       0.00217001 Ry

     iteration #  8     ecut=    50.00 Ry     beta= 0.70
     CG style diagonalization
     ethr =  3.39E-06,  avg # of iterations =  3.9

     total cpu time spent up to now is      831.8 secs

     total energy              =    -367.17461173 Ry
     Harris-Foulkes estimate   =    -367.17473488 Ry
     estimated scf accuracy    <       0.00020410 Ry

     iteration #  9     ecut=    50.00 Ry     beta= 0.70
     CG style diagonalization
     ethr =  3.19E-07,  avg # of iterations =  4.2

     total cpu time spent up to now is      878.4 secs

     total energy              =    -367.17468880 Ry
     Harris-Foulkes estimate   =    -367.17471104 Ry
     estimated scf accuracy    <       0.00008577 Ry

     iteration # 10     ecut=    50.00 Ry     beta= 0.70
     CG style diagonalization
     ethr =  1.34E-07,  avg # of iterations =  3.2

     total cpu time spent up to now is      914.5 secs

     total energy              =    -367.17468541 Ry
     Harris-Foulkes estimate   =    -367.17469459 Ry
     estimated scf accuracy    <       0.00002237 Ry

     iteration # 11     ecut=    50.00 Ry     beta= 0.70
     CG style diagonalization
     ethr =  3.50E-08,  avg # of iterations =  3.7

     total cpu time spent up to now is      955.4 secs

     End of self-consistent calculation

     Number of k-points >= 100: set verbosity='high' to print the bands.

     highest occupied level (ev):     2.8511

!    total energy              =    -367.17468922 Ry
     Harris-Foulkes estimate   =    -367.17469050 Ry
     estimated scf accuracy    <       0.00000171 Ry

     The total energy is the sum of the following terms:

     one-electron contribution =    -166.20242990 Ry
     hartree contribution      =     108.18515504 Ry
     xc contribution           =     -74.05038644 Ry
     ewald contribution        =    -235.10702792 Ry

     convergence has been achieved in  11 iterations

     Forces acting on atoms (cartesian axes, Ry/au):

     atom    1 type  1   force =     0.00000000   -0.00000000    0.00000000
     atom    2 type  1   force =     0.00000000    0.00000000    0.00000000
     atom    3 type  2   force =     0.00000000   -0.00000000    0.00000000
     atom    4 type  2   force =    -0.00000000   -0.00000000    0.00000000
     atom    5 type  3   force =    -0.06971040    0.12074195    0.00000000
     atom    6 type  3   force =     0.13942079    0.00000000   -0.00000000
     atom    7 type  3   force =    -0.06971040   -0.12074195   -0.00000000
     atom    8 type  3   force =    -0.13942079   -0.00000000    0.00000000
     atom    9 type  3   force =     0.06971040    0.12074195    0.00000000
     atom   10 type  3   force =     0.06971040   -0.12074195   -0.00000000

     Total force =     0.341510     Total SCF correction =     0.002982


     Computing stress (Cartesian axis) and pressure

          total   stress  (Ry/bohr**3)                   (kbar)     P= -208.77
  -0.00204931   0.00000000   0.00000000       -301.46      0.00      0.00
  -0.00000000  -0.00204931  -0.00000000         -0.00   -301.46     -0.00
  -0.00000000  -0.00000000  -0.00015885         -0.00     -0.00    -23.37


     number of scf cycles    =   2
     number of bfgs steps    =   1

     enthalpy old            =    -366.4378814063 Ry
     enthalpy new            =    -367.1746892203 Ry

     CASE: enthalpy_new < enthalpy_old

     new trust radius        =       0.7383483568 bohr
     new conv_thr            =       0.0000100000 Ry

     new unit-cell volume =    818.21500 a.u.^3 (   121.24695 Ang^3 )
     density =      2.74153 g/cm^3

CELL_PARAMETERS (alat= 12.00000000)
   0.411768990  -0.237734937   0.806168459
   0.000000000   0.475469874   0.806168459
  -0.411768990  -0.237734937   0.806168459

ATOMIC_POSITIONS (crystal)
Ca       0.500000000   0.500000000   0.500000000
Ca       0.000000000   0.000000000   0.000000000
C        0.250000000   0.250000000   0.250000000
C        0.750000000   0.750000000   0.750000000
O        0.462396984   1.037603016   0.250000000
O        1.037603016   0.250000000   0.462396984
O        0.250000000   0.462396984   1.037603016
O       -0.037603016   0.750000000   0.537603016
O        0.750000000   0.537603016  -0.037603016
O        0.537603016  -0.037603016   0.750000000



     Writing output data file CCO_k.save/
     NEW-OLD atomic charge density approx. for the potential

     Check: negative core charge=   -0.000003

     negative rho (up, down):  1.840E-03 0.000E+00
     extrapolated charge   45.85650, renormalised to   64.00000

     total cpu time spent up to now is      959.4 secs

     Self-consistent Calculation

     iteration #  1     ecut=    50.00 Ry     beta= 0.70
     CG style diagonalization
     c_bands:  5 eigenvalues not converged
     c_bands:  2 eigenvalues not converged
     c_bands:  2 eigenvalues not converged
     c_bands:  4 eigenvalues not converged
     c_bands:  4 eigenvalues not converged
     c_bands:  5 eigenvalues not converged
     c_bands:  4 eigenvalues not converged
     ethr =  1.00E-06,  avg # of iterations = 20.6

     negative rho (up, down):  2.829E-04 0.000E+00

     total cpu time spent up to now is     1174.1 secs

     total energy              =    -354.01103553 Ry
     Harris-Foulkes estimate   =    -406.14393681 Ry
     estimated scf accuracy    <      10.95439982 Ry

     iteration #  2     ecut=    50.00 Ry     beta= 0.70
     CG style diagonalization
     ethr =  1.00E-02,  avg # of iterations =  6.2

     total cpu time spent up to now is     1241.9 secs

     total energy              =    -360.22212955 Ry
     Harris-Foulkes estimate   =    -377.02364187 Ry
     estimated scf accuracy    <      53.00151908 Ry

     iteration #  3     ecut=    50.00 Ry     beta= 0.70
     CG style diagonalization
     ethr =  1.00E-02,  avg # of iterations =  4.7

     total cpu time spent up to now is     1293.2 secs

     total energy              =    -366.54976738 Ry
     Harris-Foulkes estimate   =    -367.76246480 Ry
     estimated scf accuracy    <       3.27134400 Ry

     iteration #  4     ecut=    50.00 Ry     beta= 0.70
     CG style diagonalization
     ethr =  5.11E-03,  avg # of iterations =  3.3

     total cpu time spent up to now is     1330.3 secs

     total energy              =    -366.49456033 Ry
     Harris-Foulkes estimate   =    -366.86571510 Ry
     estimated scf accuracy    <       1.08114716 Ry

     iteration #  5     ecut=    50.00 Ry     beta= 0.70
     CG style diagonalization
     ethr =  1.69E-03,  avg # of iterations =  3.4

     total cpu time spent up to now is     1368.1 secs

     total energy              =    -366.59560281 Ry
     Harris-Foulkes estimate   =    -366.64341348 Ry
     estimated scf accuracy    <       0.15039592 Ry

     iteration #  6     ecut=    50.00 Ry     beta= 0.70
     CG style diagonalization
     ethr =  2.35E-04,  avg # of iterations =  3.6

     total cpu time spent up to now is     1408.1 secs

     total energy              =    -366.62577296 Ry
     Harris-Foulkes estimate   =    -366.63285214 Ry
     estimated scf accuracy    <       0.01916722 Ry

     iteration #  7     ecut=    50.00 Ry     beta= 0.70
     CG style diagonalization
     ethr =  2.99E-05,  avg # of iterations =  3.8

     total cpu time spent up to now is     1449.6 secs

     total energy              =    -366.62936602 Ry
     Harris-Foulkes estimate   =    -366.62992250 Ry
     estimated scf accuracy    <       0.00194568 Ry

     iteration #  8     ecut=    50.00 Ry     beta= 0.70
     CG style diagonalization
     ethr =  3.04E-06,  avg # of iterations =  3.9

     total cpu time spent up to now is     1492.4 secs

     total energy              =    -366.62965897 Ry
     Harris-Foulkes estimate   =    -366.62988575 Ry
     estimated scf accuracy    <       0.00047133 Ry

     iteration #  9     ecut=    50.00 Ry     beta= 0.70
     CG style diagonalization
     ethr =  7.36E-07,  avg # of iterations =  3.6

     total cpu time spent up to now is     1532.5 secs

     total energy              =    -366.62971969 Ry
     Harris-Foulkes estimate   =    -366.62975128 Ry
     estimated scf accuracy    <       0.00004957 Ry

     iteration # 10     ecut=    50.00 Ry     beta= 0.70
     CG style diagonalization
     ethr =  7.74E-08,  avg # of iterations =  4.0

     total cpu time spent up to now is     1576.7 secs

     End of self-consistent calculation

     Number of k-points >= 100: set verbosity='high' to print the bands.

     highest occupied level (ev):     6.0174

!    total energy              =    -366.62973453 Ry
     Harris-Foulkes estimate   =    -366.62973735 Ry
     estimated scf accuracy    <       0.00000356 Ry

     The total energy is the sum of the following terms:

     one-electron contribution =    -171.64991606 Ry
     hartree contribution      =     116.23163553 Ry
     xc contribution           =     -76.99154227 Ry
     ewald contribution        =    -234.21991172 Ry

     convergence has been achieved in  10 iterations

     Forces acting on atoms (cartesian axes, Ry/au):

     atom    1 type  1   force =     0.00000000    0.00000000    0.00000000
     atom    2 type  1   force =     0.00000000    0.00000000    0.00000000
     atom    3 type  2   force =    -0.00000000   -0.00000000   -0.00000000
     atom    4 type  2   force =     0.00000000    0.00000000   -0.00000000
     atom    5 type  3   force =     0.45587023   -0.78959039   -0.00000000
     atom    6 type  3   force =    -0.91174045   -0.00000000    0.00000000
     atom    7 type  3   force =     0.45587023    0.78959039    0.00000000
     atom    8 type  3   force =     0.91174045    0.00000000   -0.00000000
     atom    9 type  3   force =    -0.45587023   -0.78959039   -0.00000000
     atom   10 type  3   force =    -0.45587023    0.78959039    0.00000000

     Total force =     2.233299     Total SCF correction =     0.008721


     Computing stress (Cartesian axis) and pressure

          total   stress  (Ry/bohr**3)                   (kbar)     P=  618.54
   0.00630689   0.00000000   0.00000000        927.78      0.00      0.00
  -0.00000000   0.00630689   0.00000000         -0.00    927.78      0.00
   0.00000000   0.00000000   0.00000040          0.00      0.00      0.06


     number of scf cycles    =   3
     number of bfgs steps    =   2

     enthalpy old            =    -367.1746892203 Ry
     enthalpy new            =    -366.6297345280 Ry

     CASE: enthalpy_new > enthalpy_old

     new trust radius        =       0.2090439561 bohr
     new conv_thr            =       0.0000100000 Ry

     new unit-cell volume =    981.15399 a.u.^3 (   145.39202 Ang^3 )
     density =      2.28625 g/cm^3

CELL_PARAMETERS (alat= 12.00000000)
   0.449661371  -0.259612114   0.810646760
   0.000000000   0.519224227   0.810646760
  -0.449661371  -0.259612114   0.810646760

ATOMIC_POSITIONS (crystal)
Ca       0.500000000   0.500000000   0.500000000
Ca       0.000000000   0.000000000   0.000000000
C        0.250000000   0.250000000   0.250000000
C        0.750000000   0.750000000   0.750000000
O        0.479748398   1.020251602   0.250000000
O        1.020251602   0.250000000   0.479748398
O        0.250000000   0.479748398   1.020251602
O       -0.020251602   0.750000000   0.520251602
O        0.750000000   0.520251602  -0.020251602
O        0.520251602  -0.020251602   0.750000000



     Writing output data file CCO_k.save/
     NEW-OLD atomic charge density approx. for the potential

     Check: negative core charge=   -0.000002
     extrapolated charge   74.62657, renormalised to   64.00000

     total cpu time spent up to now is     1580.0 secs

     Self-consistent Calculation

     iteration #  1     ecut=    50.00 Ry     beta= 0.70
     CG style diagonalization
     c_bands:  4 eigenvalues not converged
     c_bands:  1 eigenvalues not converged
     c_bands:  1 eigenvalues not converged
     c_bands:  1 eigenvalues not converged
     c_bands:  1 eigenvalues not converged
     c_bands:  1 eigenvalues not converged
     c_bands:  2 eigenvalues not converged
     c_bands:  1 eigenvalues not converged
     c_bands:  1 eigenvalues not converged
     c_bands:  1 eigenvalues not converged
     c_bands:  2 eigenvalues not converged
     c_bands:  2 eigenvalues not converged
     c_bands:  1 eigenvalues not converged
     c_bands:  1 eigenvalues not converged
     c_bands:  1 eigenvalues not converged
     c_bands:  1 eigenvalues not converged
     c_bands:  2 eigenvalues not converged
     ethr =  1.00E-06,  avg # of iterations = 24.4

     total cpu time spent up to now is     1831.3 secs

     total energy              =    -350.46644635 Ry
     Harris-Foulkes estimate   =    -348.42296536 Ry
     estimated scf accuracy    <      15.11013843 Ry

     iteration #  2     ecut=    50.00 Ry     beta= 0.70
     CG style diagonalization
     ethr =  1.00E-02,  avg # of iterations =  5.9

     total cpu time spent up to now is     1896.0 secs

     total energy              =    -367.74451670 Ry
     Harris-Foulkes estimate   =    -379.53896237 Ry
     estimated scf accuracy    <      27.88939597 Ry

     iteration #  3     ecut=    50.00 Ry     beta= 0.70
     CG style diagonalization
     ethr =  1.00E-02,  avg # of iterations =  3.8

     total cpu time spent up to now is     1938.0 secs

     total energy              =    -368.17122868 Ry
     Harris-Foulkes estimate   =    -369.66299993 Ry
     estimated scf accuracy    <       5.38127724 Ry

     iteration #  4     ecut=    50.00 Ry     beta= 0.70
     CG style diagonalization
     ethr =  8.41E-03,  avg # of iterations =  3.0

     total cpu time spent up to now is     1971.5 secs

     total energy              =    -367.81245866 Ry
     Harris-Foulkes estimate   =    -368.27658920 Ry
     estimated scf accuracy    <       2.73711320 Ry

     iteration #  5     ecut=    50.00 Ry     beta= 0.70
     CG style diagonalization
     ethr =  4.28E-03,  avg # of iterations =  3.0

     total cpu time spent up to now is     2005.0 secs

     total energy              =    -367.92706624 Ry
     Harris-Foulkes estimate   =    -367.85937901 Ry
     estimated scf accuracy    <       1.65541415 Ry

     iteration #  6     ecut=    50.00 Ry     beta= 0.70
     CG style diagonalization
     ethr =  2.59E-03,  avg # of iterations =  3.0

     total cpu time spent up to now is     2038.5 secs

     total energy              =    -366.99414726 Ry
     Harris-Foulkes estimate   =    -367.93646378 Ry
     estimated scf accuracy    <       1.78710810 Ry

     iteration #  7     ecut=    50.00 Ry     beta= 0.70
     CG style diagonalization
     ethr =  2.59E-03,  avg # of iterations =  3.6

     total cpu time spent up to now is     2077.9 secs

     total energy              =    -367.31228771 Ry
     Harris-Foulkes estimate   =    -367.32197414 Ry
     estimated scf accuracy    <       0.07317525 Ry

     iteration #  8     ecut=    50.00 Ry     beta= 0.70
     CG style diagonalization
     ethr =  1.14E-04,  avg # of iterations =  3.8

     total cpu time spent up to now is     2119.8 secs

     total energy              =    -367.33581694 Ry
     Harris-Foulkes estimate   =    -367.33475569 Ry
     estimated scf accuracy    <       0.06920301 Ry

     iteration #  9     ecut=    50.00 Ry     beta= 0.70
     CG style diagonalization
     ethr =  1.08E-04,  avg # of iterations =  3.0

     total cpu time spent up to now is     2153.5 secs

     total energy              =    -367.32679124 Ry
     Harris-Foulkes estimate   =    -367.33659519 Ry
     estimated scf accuracy    <       0.07021823 Ry

     iteration # 10     ecut=    50.00 Ry     beta= 0.70
     CG style diagonalization
     ethr =  1.08E-04,  avg # of iterations =  3.2

     total cpu time spent up to now is     2189.4 secs

     total energy              =    -367.34178852 Ry
     Harris-Foulkes estimate   =    -367.33123597 Ry
     estimated scf accuracy    <       0.06184180 Ry

     iteration # 11     ecut=    50.00 Ry     beta= 0.70
     CG style diagonalization
     ethr =  9.66E-05,  avg # of iterations =  3.6

     total cpu time spent up to now is     2229.2 secs

     total energy              =    -367.35442095 Ry
     Harris-Foulkes estimate   =    -367.35154521 Ry
     estimated scf accuracy    <       0.13457560 Ry

     iteration # 12     ecut=    50.00 Ry     beta= 0.70
     CG style diagonalization
     ethr =  9.66E-05,  avg # of iterations =  3.6

     total cpu time spent up to now is     2269.2 secs

     total energy              =    -367.36198589 Ry
     Harris-Foulkes estimate   =    -367.36748416 Ry
     estimated scf accuracy    <       0.18610024 Ry

     iteration # 13     ecut=    50.00 Ry     beta= 0.70
     CG style diagonalization
     ethr =  9.66E-05,  avg # of iterations =  3.0

     total cpu time spent up to now is     2302.8 secs

     total energy              =    -367.36544224 Ry
     Harris-Foulkes estimate   =    -367.36293637 Ry
     estimated scf accuracy    <       0.17697727 Ry

     iteration # 14     ecut=    50.00 Ry     beta= 0.70
     CG style diagonalization
     ethr =  9.66E-05,  avg # of iterations =  3.0

     total cpu time spent up to now is     2336.3 secs

     total energy              =    -367.36992551 Ry
     Harris-Foulkes estimate   =    -367.36578670 Ry
     estimated scf accuracy    <       0.18503295 Ry

     iteration # 15     ecut=    50.00 Ry     beta= 0.70
     CG style diagonalization
     ethr =  9.66E-05,  avg # of iterations =  3.0

     total cpu time spent up to now is     2369.8 secs

     total energy              =    -367.41526618 Ry
     Harris-Foulkes estimate   =    -367.37009828 Ry
     estimated scf accuracy    <       0.19951478 Ry

     iteration # 16     ecut=    50.00 Ry     beta= 0.70
     CG style diagonalization
     ethr =  9.66E-05,  avg # of iterations =  3.5

     total cpu time spent up to now is     2408.4 secs

     total energy              =    -367.28725855 Ry
     Harris-Foulkes estimate   =    -367.42194035 Ry
     estimated scf accuracy    <       0.41398870 Ry

     iteration # 17     ecut=    50.00 Ry     beta= 0.70
     CG style diagonalization
     ethr =  9.66E-05,  avg # of iterations =  4.1

     total cpu time spent up to now is     2453.9 secs

     total energy              =    -367.30815968 Ry
     Harris-Foulkes estimate   =    -367.32615381 Ry
     estimated scf accuracy    <       0.04493106 Ry

     iteration # 18     ecut=    50.00 Ry     beta= 0.70
     CG style diagonalization
     ethr =  7.02E-05,  avg # of iterations =  3.6

     total cpu time spent up to now is     2493.9 secs

     total energy              =    -367.31539499 Ry
     Harris-Foulkes estimate   =    -367.31567176 Ry
     estimated scf accuracy    <       0.00244573 Ry

     iteration # 19     ecut=    50.00 Ry     beta= 0.70
     CG style diagonalization
     ethr =  3.82E-06,  avg # of iterations =  3.4

     total cpu time spent up to now is     2531.3 secs

     total energy              =    -367.31557372 Ry
     Harris-Foulkes estimate   =    -367.31576956 Ry
     estimated scf accuracy    <       0.00243256 Ry

     iteration # 20     ecut=    50.00 Ry     beta= 0.70
     CG style diagonalization
     ethr =  3.80E-06,  avg # of iterations =  3.0

     total cpu time spent up to now is     2564.8 secs

     total energy              =    -367.31523339 Ry
     Harris-Foulkes estimate   =    -367.31561789 Ry
     estimated scf accuracy    <       0.00169153 Ry

     iteration # 21     ecut=    50.00 Ry     beta= 0.70
     CG style diagonalization
     ethr =  2.64E-06,  avg # of iterations =  3.1

     total cpu time spent up to now is     2599.4 secs

     total energy              =    -367.31519357 Ry
     Harris-Foulkes estimate   =    -367.31535726 Ry
     estimated scf accuracy    <       0.00036196 Ry

     iteration # 22     ecut=    50.00 Ry     beta= 0.70
     CG style diagonalization
     ethr =  5.66E-07,  avg # of iterations =  3.9

     total cpu time spent up to now is     2642.7 secs

     total energy              =    -367.31529831 Ry
     Harris-Foulkes estimate   =    -367.31530590 Ry
     estimated scf accuracy    <       0.00001912 Ry

     iteration # 23     ecut=    50.00 Ry     beta= 0.70
     CG style diagonalization
     ethr =  2.99E-08,  avg # of iterations =  3.9

     total cpu time spent up to now is     2686.1 secs

     End of self-consistent calculation

     Number of k-points >= 100: set verbosity='high' to print the bands.

     highest occupied level (ev):     3.5793

!    total energy              =    -367.31530508 Ry
     Harris-Foulkes estimate   =    -367.31530573 Ry
     estimated scf accuracy    <       0.00000090 Ry

     The total energy is the sum of the following terms:

     one-electron contribution =    -166.39963109 Ry
     hartree contribution      =     109.62654413 Ry
     xc contribution           =     -74.74853786 Ry
     ewald contribution        =    -235.79368025 Ry

     convergence has been achieved in  23 iterations

     Forces acting on atoms (cartesian axes, Ry/au):

     atom    1 type  1   force =    -0.00000000    0.00000000   -0.00000000
     atom    2 type  1   force =     0.00000000    0.00000000    0.00000000
     atom    3 type  2   force =     0.00000000    0.00000000    0.00000000
     atom    4 type  2   force =    -0.00000000   -0.00000000    0.00000000
     atom    5 type  3   force =    -0.00066767    0.00115643    0.00000000
     atom    6 type  3   force =     0.00133533   -0.00000000   -0.00000000
     atom    7 type  3   force =    -0.00066767   -0.00115643   -0.00000000
     atom    8 type  3   force =    -0.00133533    0.00000000    0.00000000
     atom    9 type  3   force =     0.00066767    0.00115643    0.00000000
     atom   10 type  3   force =     0.00066767   -0.00115643   -0.00000000

     Total force =     0.003271     Total SCF correction =     0.000110


     Computing stress (Cartesian axis) and pressure

          total   stress  (Ry/bohr**3)                   (kbar)     P= -102.11
  -0.00097503   0.00000000   0.00000000       -143.43      0.00      0.00
  -0.00000000  -0.00097503  -0.00000000         -0.00   -143.43     -0.00
   0.00000000  -0.00000000  -0.00013244          0.00     -0.00    -19.48


     number of scf cycles    =   4
     number of bfgs steps    =   2

     enthalpy old            =    -367.1746892203 Ry
     enthalpy new            =    -367.3153050769 Ry

     CASE: enthalpy_new < enthalpy_old

     new trust radius        =       0.1952345850 bohr
     new conv_thr            =       0.0000001335 Ry

     new unit-cell volume =    917.57567 a.u.^3 (   135.97068 Ang^3 )
     density =      2.44466 g/cm^3

CELL_PARAMETERS (alat= 12.00000000)
   0.435647963  -0.251521469   0.807674096
   0.000000000   0.503042938   0.807674096
  -0.435647963  -0.251521469   0.807674096

ATOMIC_POSITIONS (crystal)
Ca       0.500000000   0.500000000   0.500000000
Ca       0.000000000   0.000000000   0.000000000
C        0.250000000   0.250000000   0.250000000
C        0.750000000   0.750000000   0.750000000
O        0.480333301   1.019666699   0.250000000
O        1.019666699   0.250000000   0.480333301
O        0.250000000   0.480333301   1.019666699
O       -0.019666699   0.750000000   0.519666699
O        0.750000000   0.519666699  -0.019666699
O        0.519666699  -0.019666699   0.750000000



     Writing output data file CCO_k.save/
     NEW-OLD atomic charge density approx. for the potential

     Check: negative core charge=   -0.000003
     extrapolated charge   59.56624, renormalised to   64.00000

     total cpu time spent up to now is     2689.3 secs

     Self-consistent Calculation

     iteration #  1     ecut=    50.00 Ry     beta= 0.70
     CG style diagonalization
     c_bands:  2 eigenvalues not converged
     c_bands:  2 eigenvalues not converged
     c_bands:  2 eigenvalues not converged
     c_bands:  5 eigenvalues not converged
     c_bands:  5 eigenvalues not converged
     c_bands:  5 eigenvalues not converged
     c_bands:  3 eigenvalues not converged
     c_bands:  5 eigenvalues not converged
     c_bands:  3 eigenvalues not converged
     c_bands:  1 eigenvalues not converged
     c_bands:  4 eigenvalues not converged
     c_bands:  5 eigenvalues not converged
     c_bands:  3 eigenvalues not converged
     c_bands:  4 eigenvalues not converged
     c_bands:  5 eigenvalues not converged
     c_bands:  5 eigenvalues not converged
     c_bands:  5 eigenvalues not converged
     c_bands:  4 eigenvalues not converged
     c_bands:  2 eigenvalues not converged
     c_bands:  4 eigenvalues not converged
     c_bands:  5 eigenvalues not converged
     c_bands:  5 eigenvalues not converged
     c_bands:  5 eigenvalues not converged
     c_bands:  5 eigenvalues not converged
     c_bands:  5 eigenvalues not converged
     c_bands:  2 eigenvalues not converged
     c_bands:  4 eigenvalues not converged
     c_bands:  4 eigenvalues not converged
     c_bands:  4 eigenvalues not converged
     c_bands:  5 eigenvalues not converged
     c_bands:  4 eigenvalues not converged
     c_bands:  4 eigenvalues not converged
     c_bands:  4 eigenvalues not converged
     ethr =  1.00E-06,  avg # of iterations = 15.7

     total cpu time spent up to now is     2853.9 secs

     total energy              =    -366.24078778 Ry
     Harris-Foulkes estimate   =    -376.01170995 Ry
     estimated scf accuracy    <       0.82252102 Ry

     iteration #  2     ecut=    50.00 Ry     beta= 0.70
     CG style diagonalization
     ethr =  1.29E-03,  avg # of iterations =  5.1

     total cpu time spent up to now is     2909.7 secs

     total energy              =    -367.19432777 Ry
     Harris-Foulkes estimate   =    -368.26994112 Ry
     estimated scf accuracy    <       3.12518334 Ry

     iteration #  3     ecut=    50.00 Ry     beta= 0.70
     CG style diagonalization
     ethr =  1.29E-03,  avg # of iterations =  4.0

     total cpu time spent up to now is     2953.8 secs

     total energy              =    -367.37371402 Ry
     Harris-Foulkes estimate   =    -367.45300819 Ry
     estimated scf accuracy    <       0.33744894 Ry

     iteration #  4     ecut=    50.00 Ry     beta= 0.70
     CG style diagonalization
     ethr =  5.27E-04,  avg # of iterations =  3.0

     total cpu time spent up to now is     2987.3 secs

     total energy              =    -367.34857793 Ry
     Harris-Foulkes estimate   =    -367.38527334 Ry
     estimated scf accuracy    <       0.15061647 Ry

     iteration #  5     ecut=    50.00 Ry     beta= 0.70
     CG style diagonalization
     ethr =  2.35E-04,  avg # of iterations =  3.3

     total cpu time spent up to now is     3023.6 secs

     total energy              =    -367.35038033 Ry
     Harris-Foulkes estimate   =    -367.36078925 Ry
     estimated scf accuracy    <       0.03225159 Ry

     iteration #  6     ecut=    50.00 Ry     beta= 0.70
     CG style diagonalization
     ethr =  5.04E-05,  avg # of iterations =  3.2

     total cpu time spent up to now is     3060.2 secs

     total energy              =    -367.35163095 Ry
     Harris-Foulkes estimate   =    -367.35311143 Ry
     estimated scf accuracy    <       0.00657228 Ry

     iteration #  7     ecut=    50.00 Ry     beta= 0.70
     CG style diagonalization
     ethr =  1.03E-05,  avg # of iterations =  3.3

     total cpu time spent up to now is     3097.2 secs

     total energy              =    -367.35202234 Ry
     Harris-Foulkes estimate   =    -367.35236551 Ry
     estimated scf accuracy    <       0.00229176 Ry

     iteration #  8     ecut=    50.00 Ry     beta= 0.70
     CG style diagonalization
     ethr =  3.58E-06,  avg # of iterations =  3.4

     total cpu time spent up to now is     3135.0 secs

     total energy              =    -367.35206548 Ry
     Harris-Foulkes estimate   =    -367.35233227 Ry
     estimated scf accuracy    <       0.00089725 Ry

     iteration #  9     ecut=    50.00 Ry     beta= 0.70
     CG style diagonalization
     ethr =  1.40E-06,  avg # of iterations =  3.3

     total cpu time spent up to now is     3171.6 secs

     total energy              =    -367.35201482 Ry
     Harris-Foulkes estimate   =    -367.35214585 Ry
     estimated scf accuracy    <       0.00022099 Ry

     iteration # 10     ecut=    50.00 Ry     beta= 0.70
     CG style diagonalization
     ethr =  3.45E-07,  avg # of iterations =  4.1

     total cpu time spent up to now is     3216.1 secs

     total energy              =    -367.35209076 Ry
     Harris-Foulkes estimate   =    -367.35211664 Ry
     estimated scf accuracy    <       0.00005238 Ry

     iteration # 11     ecut=    50.00 Ry     beta= 0.70
     CG style diagonalization
     ethr =  8.18E-08,  avg # of iterations =  3.8

     total cpu time spent up to now is     3257.5 secs

     total energy              =    -367.35210684 Ry
     Harris-Foulkes estimate   =    -367.35210740 Ry
     estimated scf accuracy    <       0.00000135 Ry

     iteration # 12     ecut=    50.00 Ry     beta= 0.70
     CG style diagonalization
     ethr =  2.10E-09,  avg # of iterations =  4.2

     total cpu time spent up to now is     3303.3 secs

     End of self-consistent calculation

     Number of k-points >= 100: set verbosity='high' to print the bands.

     highest occupied level (ev):     4.1658

!    total energy              =    -367.35210765 Ry
     Harris-Foulkes estimate   =    -367.35210772 Ry
     estimated scf accuracy    <       0.00000009 Ry

     The total energy is the sum of the following terms:

     one-electron contribution =    -160.20237478 Ry
     hartree contribution      =     107.94747539 Ry
     xc contribution           =     -75.17856892 Ry
     ewald contribution        =    -239.91863935 Ry

     convergence has been achieved in  12 iterations

     Forces acting on atoms (cartesian axes, Ry/au):

     atom    1 type  1   force =     0.00000000    0.00000000   -0.00000000
     atom    2 type  1   force =     0.00000000    0.00000000    0.00000000
     atom    3 type  2   force =     0.00000000   -0.00000000    0.00000000
     atom    4 type  2   force =    -0.00000000   -0.00000000    0.00000000
     atom    5 type  3   force =     0.04358496   -0.07549137   -0.00000000
     atom    6 type  3   force =    -0.08716993    0.00000000    0.00000000
     atom    7 type  3   force =     0.04358496    0.07549137    0.00000000
     atom    8 type  3   force =     0.08716993   -0.00000000   -0.00000000
     atom    9 type  3   force =    -0.04358496   -0.07549137   -0.00000000
     atom   10 type  3   force =    -0.04358496    0.07549137    0.00000000

     Total force =     0.213522     Total SCF correction =     0.000020


     Computing stress (Cartesian axis) and pressure

          total   stress  (Ry/bohr**3)                   (kbar)     P=  -15.55
  -0.00013467  -0.00000000   0.00000000        -19.81     -0.00      0.00
   0.00000000  -0.00013467  -0.00000000          0.00    -19.81     -0.00
   0.00000000  -0.00000000  -0.00004776          0.00     -0.00     -7.03


     number of scf cycles    =   5
     number of bfgs steps    =   3

     enthalpy old            =    -367.3153050769 Ry
     enthalpy new            =    -367.3521076546 Ry

     CASE: enthalpy_new < enthalpy_old

     new trust radius        =       0.1685085992 bohr
     new conv_thr            =       0.0000087170 Ry

     new unit-cell volume =    864.32024 a.u.^3 (   128.07904 Ang^3 )
     density =      2.59529 g/cm^3

CELL_PARAMETERS (alat= 12.00000000)
   0.423530637  -0.244525527   0.804953256
   0.000000000   0.489051054   0.804953256
  -0.423530637  -0.244525527   0.804953256

ATOMIC_POSITIONS (crystal)
Ca       0.500000000   0.500000000   0.500000000
Ca       0.000000000   0.000000000   0.000000000
C        0.250000000   0.250000000   0.250000000
C        0.750000000   0.750000000   0.750000000
O        0.486393594   1.013606406   0.250000000
O        1.013606406   0.250000000   0.486393594
O        0.250000000   0.486393594   1.013606406
O       -0.013606406   0.750000000   0.513606406
O        0.750000000   0.513606406  -0.013606406
O        0.513606406  -0.013606406   0.750000000



     Writing output data file CCO_k.save/
     NEW-OLD atomic charge density approx. for the potential

     Check: negative core charge=   -0.000003
     extrapolated charge   60.05729, renormalised to   64.00000

     total cpu time spent up to now is     3306.5 secs

     Self-consistent Calculation

     iteration #  1     ecut=    50.00 Ry     beta= 0.70
     CG style diagonalization
     c_bands:  2 eigenvalues not converged
     c_bands:  5 eigenvalues not converged
     c_bands:  4 eigenvalues not converged
     c_bands:  5 eigenvalues not converged
     c_bands:  5 eigenvalues not converged
     c_bands:  5 eigenvalues not converged
     c_bands:  5 eigenvalues not converged
     c_bands:  3 eigenvalues not converged
     c_bands:  2 eigenvalues not converged
     c_bands:  3 eigenvalues not converged
     c_bands:  3 eigenvalues not converged
     c_bands:  4 eigenvalues not converged
     c_bands:  2 eigenvalues not converged
     c_bands:  4 eigenvalues not converged
     c_bands:  5 eigenvalues not converged
     c_bands:  5 eigenvalues not converged
     c_bands:  5 eigenvalues not converged
     c_bands:  4 eigenvalues not converged
     c_bands:  3 eigenvalues not converged
     c_bands:  4 eigenvalues not converged
     c_bands:  3 eigenvalues not converged
     c_bands:  4 eigenvalues not converged
     c_bands:  5 eigenvalues not converged
     c_bands:  5 eigenvalues not converged
     c_bands:  3 eigenvalues not converged
     c_bands:  3 eigenvalues not converged
     c_bands:  4 eigenvalues not converged
     c_bands:  5 eigenvalues not converged
     c_bands:  5 eigenvalues not converged
     c_bands:  4 eigenvalues not converged
     c_bands:  5 eigenvalues not converged
     c_bands:  5 eigenvalues not converged
     c_bands:  4 eigenvalues not converged
     c_bands:  2 eigenvalues not converged
     c_bands:  4 eigenvalues not converged
     ethr =  1.00E-06,  avg # of iterations = 15.2

     total cpu time spent up to now is     3464.7 secs

     total energy              =    -366.61624960 Ry
     Harris-Foulkes estimate   =    -374.55434071 Ry
     estimated scf accuracy    <       0.51875372 Ry

     iteration #  2     ecut=    50.00 Ry     beta= 0.70
     CG style diagonalization
     ethr =  8.11E-04,  avg # of iterations =  5.1

     total cpu time spent up to now is     3520.1 secs

     total energy              =    -367.32550570 Ry
     Harris-Foulkes estimate   =    -368.00012016 Ry
     estimated scf accuracy    <       1.97475089 Ry

     iteration #  3     ecut=    50.00 Ry     beta= 0.70
     CG style diagonalization
     ethr =  8.11E-04,  avg # of iterations =  3.9

     total cpu time spent up to now is     3563.1 secs

     total energy              =    -367.40160317 Ry
     Harris-Foulkes estimate   =    -367.46648579 Ry
     estimated scf accuracy    <       0.26438502 Ry

     iteration #  4     ecut=    50.00 Ry     beta= 0.70
     CG style diagonalization
     ethr =  4.13E-04,  avg # of iterations =  3.0

     total cpu time spent up to now is     3596.3 secs

     total energy              =    -367.38101416 Ry
     Harris-Foulkes estimate   =    -367.41028488 Ry
     estimated scf accuracy    <       0.10949884 Ry

     iteration #  5     ecut=    50.00 Ry     beta= 0.70
     CG style diagonalization
     ethr =  1.71E-04,  avg # of iterations =  3.2

     total cpu time spent up to now is     3632.0 secs

     total energy              =    -367.38308513 Ry
     Harris-Foulkes estimate   =    -367.39020609 Ry
     estimated scf accuracy    <       0.02220882 Ry

     iteration #  6     ecut=    50.00 Ry     beta= 0.70
     CG style diagonalization
     ethr =  3.47E-05,  avg # of iterations =  3.3

     total cpu time spent up to now is     3668.5 secs

     total energy              =    -367.38468726 Ry
     Harris-Foulkes estimate   =    -367.38504044 Ry
     estimated scf accuracy    <       0.00450672 Ry

     iteration #  7     ecut=    50.00 Ry     beta= 0.70
     CG style diagonalization
     ethr =  7.04E-06,  avg # of iterations =  3.3

     total cpu time spent up to now is     3704.3 secs

     total energy              =    -367.38439767 Ry
     Harris-Foulkes estimate   =    -367.38503057 Ry
     estimated scf accuracy    <       0.00356948 Ry

     iteration #  8     ecut=    50.00 Ry     beta= 0.70
     CG style diagonalization
     ethr =  5.58E-06,  avg # of iterations =  3.1

     total cpu time spent up to now is     3738.7 secs

     total energy              =    -367.38388064 Ry
     Harris-Foulkes estimate   =    -367.38458724 Ry
     estimated scf accuracy    <       0.00159740 Ry

     iteration #  9     ecut=    50.00 Ry     beta= 0.70
     CG style diagonalization
     ethr =  2.50E-06,  avg # of iterations =  3.7

     total cpu time spent up to now is     3778.7 secs

     total energy              =    -367.38418262 Ry
     Harris-Foulkes estimate   =    -367.38418546 Ry
     estimated scf accuracy    <       0.00001536 Ry

     iteration # 10     ecut=    50.00 Ry     beta= 0.70
     CG style diagonalization
     ethr =  2.40E-08,  avg # of iterations =  5.4

     total cpu time spent up to now is     3836.5 secs

     total energy              =    -367.38420837 Ry
     Harris-Foulkes estimate   =    -367.38423140 Ry
     estimated scf accuracy    <       0.00005447 Ry

     iteration # 11     ecut=    50.00 Ry     beta= 0.70
     CG style diagonalization
     ethr =  2.40E-08,  avg # of iterations =  4.1

     total cpu time spent up to now is     3881.1 secs

     End of self-consistent calculation

     Number of k-points >= 100: set verbosity='high' to print the bands.

     highest occupied level (ev):     4.6007

!    total energy              =    -367.38421288 Ry
     Harris-Foulkes estimate   =    -367.38421744 Ry
     estimated scf accuracy    <       0.00000623 Ry

     The total energy is the sum of the following terms:

     one-electron contribution =    -149.55088384 Ry
     hartree contribution      =     103.98567437 Ry
     xc contribution           =     -75.34377315 Ry
     ewald contribution        =    -246.47523026 Ry

     convergence has been achieved in  11 iterations

     Forces acting on atoms (cartesian axes, Ry/au):

     atom    1 type  1   force =    -0.00000000    0.00000000   -0.00000000
     atom    2 type  1   force =     0.00000000    0.00000000   -0.00000000
     atom    3 type  2   force =    -0.00000000    0.00000000    0.00000000
     atom    4 type  2   force =     0.00000000    0.00000000    0.00000000
     atom    5 type  3   force =     0.04238076   -0.07340562   -0.00000000
     atom    6 type  3   force =    -0.08476151   -0.00000000    0.00000000
     atom    7 type  3   force =     0.04238076    0.07340562    0.00000000
     atom    8 type  3   force =     0.08476151    0.00000000   -0.00000000
     atom    9 type  3   force =    -0.04238076   -0.07340562   -0.00000000
     atom   10 type  3   force =    -0.04238076    0.07340562    0.00000000

     Total force =     0.207622     Total SCF correction =     0.004995


     Computing stress (Cartesian axis) and pressure

          total   stress  (Ry/bohr**3)                   (kbar)     P=   19.18
   0.00014967   0.00000000  -0.00000000         22.02      0.00     -0.00
   0.00000000   0.00014967   0.00000000          0.00     22.02      0.00
  -0.00000000   0.00000000   0.00009192         -0.00      0.00     13.52


     number of scf cycles    =   6
     number of bfgs steps    =   4

     enthalpy old            =    -367.3521076546 Ry
     enthalpy new            =    -367.3842128812 Ry

     CASE: enthalpy_new < enthalpy_old

     new trust radius        =       0.2335583404 bohr
     new conv_thr            =       0.0000084762 Ry

     new unit-cell volume =    796.66879 a.u.^3 (   118.05413 Ang^3 )
     density =      2.81568 g/cm^3

CELL_PARAMETERS (alat= 12.00000000)
   0.406707271  -0.234812553   0.804599148
   0.000000000   0.469625105   0.804599148
  -0.406707271  -0.234812553   0.804599148

ATOMIC_POSITIONS (crystal)
Ca       0.500000000   0.500000000   0.500000000
Ca       0.000000000   0.000000000  -0.000000000
C        0.250000000   0.250000000   0.250000000
C        0.750000000   0.750000000   0.750000000
O        0.499048387   1.000951613   0.250000000
O        1.000951613   0.250000000   0.499048387
O        0.250000000   0.499048387   1.000951613
O       -0.000951613   0.750000000   0.500951613
O        0.750000000   0.500951613  -0.000951613
O        0.500951613  -0.000951613   0.750000000



     Writing output data file CCO_k.save/
     NEW-OLD atomic charge density approx. for the potential

     Check: negative core charge=   -0.000003
     extrapolated charge   58.56619, renormalised to   64.00000

     total cpu time spent up to now is     3884.4 secs

     Self-consistent Calculation

     iteration #  1     ecut=    50.00 Ry     beta= 0.70
     CG style diagonalization
     c_bands:  2 eigenvalues not converged
     c_bands:  5 eigenvalues not converged
     c_bands:  4 eigenvalues not converged
     c_bands:  4 eigenvalues not converged
     c_bands:  4 eigenvalues not converged
     c_bands:  5 eigenvalues not converged
     c_bands:  4 eigenvalues not converged
     c_bands:  3 eigenvalues not converged
     ethr =  1.00E-06,  avg # of iterations = 16.9

     total cpu time spent up to now is     4057.5 secs

     total energy              =    -366.19608423 Ry
     Harris-Foulkes estimate   =    -376.16331266 Ry
     estimated scf accuracy    <       0.78755237 Ry

     iteration #  2     ecut=    50.00 Ry     beta= 0.70
     CG style diagonalization
     ethr =  1.23E-03,  avg # of iterations =  5.1

     total cpu time spent up to now is     4112.4 secs

     total energy              =    -367.34804676 Ry
     Harris-Foulkes estimate   =    -368.32974346 Ry
     estimated scf accuracy    <       2.86196387 Ry

     iteration #  3     ecut=    50.00 Ry     beta= 0.70
     CG style diagonalization
     ethr =  1.23E-03,  avg # of iterations =  3.8

     total cpu time spent up to now is     4153.5 secs

     total energy              =    -367.44128146 Ry
     Harris-Foulkes estimate   =    -367.54177358 Ry
     estimated scf accuracy    <       0.39025175 Ry

     iteration #  4     ecut=    50.00 Ry     beta= 0.70
     CG style diagonalization
     ethr =  6.10E-04,  avg # of iterations =  3.0

     total cpu time spent up to now is     4186.2 secs

     total energy              =    -367.38692123 Ry
     Harris-Foulkes estimate   =    -367.45355251 Ry
     estimated scf accuracy    <       0.16476841 Ry

     iteration #  5     ecut=    50.00 Ry     beta= 0.70
     CG style diagonalization
     ethr =  2.57E-04,  avg # of iterations =  3.6

     total cpu time spent up to now is     4224.7 secs

     total energy              =    -367.40991576 Ry
     Harris-Foulkes estimate   =    -367.41143012 Ry
     estimated scf accuracy    <       0.00420956 Ry

     iteration #  6     ecut=    50.00 Ry     beta= 0.70
     CG style diagonalization
     ethr =  6.58E-06,  avg # of iterations =  4.0

     total cpu time spent up to now is     4267.8 secs

     total energy              =    -367.41211238 Ry
     Harris-Foulkes estimate   =    -367.41115106 Ry
     estimated scf accuracy    <       0.00237726 Ry

     iteration #  7     ecut=    50.00 Ry     beta= 0.70
     CG style diagonalization
     ethr =  3.71E-06,  avg # of iterations =  3.5

     total cpu time spent up to now is     4305.3 secs

     total energy              =    -367.41023808 Ry
     Harris-Foulkes estimate   =    -367.41236724 Ry
     estimated scf accuracy    <       0.00598769 Ry

     iteration #  8     ecut=    50.00 Ry     beta= 0.70
     CG style diagonalization
     ethr =  3.71E-06,  avg # of iterations =  3.6

     total cpu time spent up to now is     4343.9 secs

     total energy              =    -367.41029794 Ry
     Harris-Foulkes estimate   =    -367.41073566 Ry
     estimated scf accuracy    <       0.00088557 Ry

     iteration #  9     ecut=    50.00 Ry     beta= 0.70
     CG style diagonalization
     ethr =  1.38E-06,  avg # of iterations =  3.8

     total cpu time spent up to now is     4384.4 secs

     total energy              =    -367.41050216 Ry
     Harris-Foulkes estimate   =    -367.41050322 Ry
     estimated scf accuracy    <       0.00001613 Ry

     iteration # 10     ecut=    50.00 Ry     beta= 0.70
     CG style diagonalization
     ethr =  2.52E-08,  avg # of iterations =  4.1

     total cpu time spent up to now is     4428.8 secs

     End of self-consistent calculation

     Number of k-points >= 100: set verbosity='high' to print the bands.

     highest occupied level (ev):     5.1915

!    total energy              =    -367.41050885 Ry
     Harris-Foulkes estimate   =    -367.41051236 Ry
     estimated scf accuracy    <       0.00000474 Ry

     The total energy is the sum of the following terms:

     one-electron contribution =    -132.60002279 Ry
     hartree contribution      =      97.55440493 Ry
     xc contribution           =     -75.46369738 Ry
     ewald contribution        =    -256.90119361 Ry

     convergence has been achieved in  10 iterations

     Forces acting on atoms (cartesian axes, Ry/au):

     atom    1 type  1   force =    -0.00000000   -0.00000000    0.00000000
     atom    2 type  1   force =     0.00000000    0.00000000    0.00000000
     atom    3 type  2   force =    -0.00000000    0.00000000    0.00000000
     atom    4 type  2   force =     0.00000000    0.00000000    0.00000000
     atom    5 type  3   force =     0.01069349   -0.01852168   -0.00000000
     atom    6 type  3   force =    -0.02138699   -0.00000000    0.00000000
     atom    7 type  3   force =     0.01069349    0.01852168    0.00000000
     atom    8 type  3   force =     0.02138699    0.00000000   -0.00000000
     atom    9 type  3   force =    -0.01069349   -0.01852168   -0.00000000
     atom   10 type  3   force =    -0.01069349    0.01852168    0.00000000

     Total force =     0.052387     Total SCF correction =     0.003529


     Computing stress (Cartesian axis) and pressure

          total   stress  (Ry/bohr**3)                   (kbar)     P=   53.82
   0.00030676   0.00000000   0.00000000         45.13      0.00      0.00
   0.00000000   0.00030676   0.00000000          0.00     45.13      0.00
   0.00000000   0.00000000   0.00048412          0.00      0.00     71.22


     number of scf cycles    =   7
     number of bfgs steps    =   5

     enthalpy old            =    -367.3842128812 Ry
     enthalpy new            =    -367.4105088487 Ry

     CASE: enthalpy_new < enthalpy_old

     new trust radius        =       0.0463380213 bohr
     new conv_thr            =       0.0000021387 Ry

     new unit-cell volume =    815.84921 a.u.^3 (   120.89638 Ang^3 )
     density =      2.74948 g/cm^3

CELL_PARAMETERS (alat= 12.00000000)
   0.410045765  -0.236740033   0.810607982
   0.000000000   0.473480065   0.810607982
  -0.410045765  -0.236740033   0.810607982

ATOMIC_POSITIONS (crystal)
Ca       0.500000000   0.500000000   0.500000000
Ca       0.000000000   0.000000000  -0.000000000
C        0.250000000   0.250000000   0.250000000
C        0.750000000   0.750000000   0.750000000
O        0.498977696   1.001022304   0.250000000
O        1.001022304   0.250000000   0.498977696
O        0.250000000   0.498977696   1.001022304
O       -0.001022304   0.750000000   0.501022304
O        0.750000000   0.501022304  -0.001022304
O        0.501022304  -0.001022304   0.750000000



     Writing output data file CCO_k.save/
     NEW-OLD atomic charge density approx. for the potential

     Check: negative core charge=   -0.000003
     extrapolated charge   65.50437, renormalised to   64.00000

     total cpu time spent up to now is     4432.1 secs

     Self-consistent Calculation

     iteration #  1     ecut=    50.00 Ry     beta= 0.70
     CG style diagonalization
     c_bands:  3 eigenvalues not converged
     c_bands:  3 eigenvalues not converged
     c_bands:  3 eigenvalues not converged
     c_bands:  4 eigenvalues not converged
     c_bands:  4 eigenvalues not converged
     c_bands:  4 eigenvalues not converged
     c_bands:  5 eigenvalues not converged
     c_bands:  4 eigenvalues not converged
     c_bands:  4 eigenvalues not converged
     c_bands:  5 eigenvalues not converged
     c_bands:  2 eigenvalues not converged
     c_bands:  4 eigenvalues not converged
     c_bands:  5 eigenvalues not converged
     c_bands:  4 eigenvalues not converged
     c_bands:  2 eigenvalues not converged
     c_bands:  3 eigenvalues not converged
     c_bands:  5 eigenvalues not converged
     c_bands:  4 eigenvalues not converged
     c_bands:  1 eigenvalues not converged
     c_bands:  4 eigenvalues not converged
     c_bands:  5 eigenvalues not converged
     c_bands:  4 eigenvalues not converged
     c_bands:  1 eigenvalues not converged
     c_bands:  5 eigenvalues not converged
     c_bands:  4 eigenvalues not converged
     c_bands:  5 eigenvalues not converged
     c_bands:  4 eigenvalues not converged
     c_bands:  3 eigenvalues not converged
     c_bands:  4 eigenvalues not converged
     c_bands:  5 eigenvalues not converged
     c_bands:  3 eigenvalues not converged
     c_bands:  2 eigenvalues not converged
     c_bands:  5 eigenvalues not converged
     c_bands:  5 eigenvalues not converged
     c_bands:  5 eigenvalues not converged
     c_bands:  4 eigenvalues not converged
     c_bands:  4 eigenvalues not converged
     c_bands:  5 eigenvalues not converged
     c_bands:  3 eigenvalues not converged
     c_bands:  4 eigenvalues not converged
     c_bands:  3 eigenvalues not converged
     c_bands:  5 eigenvalues not converged
     c_bands:  5 eigenvalues not converged
     c_bands:  4 eigenvalues not converged
     c_bands:  3 eigenvalues not converged
     c_bands:  5 eigenvalues not converged
     c_bands:  2 eigenvalues not converged
     c_bands:  4 eigenvalues not converged
     c_bands:  5 eigenvalues not converged
     c_bands:  4 eigenvalues not converged
     c_bands:  4 eigenvalues not converged
     c_bands:  4 eigenvalues not converged
     c_bands:  5 eigenvalues not converged
     c_bands:  4 eigenvalues not converged
     c_bands:  4 eigenvalues not converged
     c_bands:  4 eigenvalues not converged
     c_bands:  5 eigenvalues not converged
     c_bands:  4 eigenvalues not converged
     c_bands:  4 eigenvalues not converged
     c_bands:  3 eigenvalues not converged
     c_bands:  3 eigenvalues not converged
     c_bands:  4 eigenvalues not converged
     c_bands:  5 eigenvalues not converged
     c_bands:  5 eigenvalues not converged
     c_bands:  4 eigenvalues not converged
     c_bands:  4 eigenvalues not converged
     c_bands:  4 eigenvalues not converged
     c_bands:  1 eigenvalues not converged
     c_bands:  3 eigenvalues not converged
     ethr =  1.00E-06,  avg # of iterations = 12.1

     total cpu time spent up to now is     4560.5 secs

     total energy              =    -367.28938859 Ry
     Harris-Foulkes estimate   =    -364.96701231 Ry
     estimated scf accuracy    <       0.08894121 Ry

     iteration #  2     ecut=    50.00 Ry     beta= 0.70
     CG style diagonalization
     ethr =  1.39E-04,  avg # of iterations =  5.0

     total cpu time spent up to now is     4613.7 secs

     total energy              =    -367.40768008 Ry
     Harris-Foulkes estimate   =    -367.50928226 Ry
     estimated scf accuracy    <       0.28464244 Ry

     iteration #  3     ecut=    50.00 Ry     beta= 0.70
     CG style diagonalization
     ethr =  1.39E-04,  avg # of iterations =  3.7

     total cpu time spent up to now is     4654.0 secs

     total energy              =    -367.41875814 Ry
     Harris-Foulkes estimate   =    -367.42755804 Ry
     estimated scf accuracy    <       0.03838453 Ry

     iteration #  4     ecut=    50.00 Ry     beta= 0.70
     CG style diagonalization
     ethr =  6.00E-05,  avg # of iterations =  3.0

     total cpu time spent up to now is     4686.6 secs

     total energy              =    -367.41561741 Ry
     Harris-Foulkes estimate   =    -367.41981831 Ry
     estimated scf accuracy    <       0.01814977 Ry

     iteration #  5     ecut=    50.00 Ry     beta= 0.70
     CG style diagonalization
     ethr =  2.84E-05,  avg # of iterations =  3.0

     total cpu time spent up to now is     4719.4 secs

     total energy              =    -367.41368531 Ry
     Harris-Foulkes estimate   =    -367.41629967 Ry
     estimated scf accuracy    <       0.00697116 Ry

     iteration #  6     ecut=    50.00 Ry     beta= 0.70
     CG style diagonalization
     ethr =  1.09E-05,  avg # of iterations =  3.5

     total cpu time spent up to now is     4757.4 secs

     total energy              =    -367.41455113 Ry
     Harris-Foulkes estimate   =    -367.41454899 Ry
     estimated scf accuracy    <       0.00035831 Ry

     iteration #  7     ecut=    50.00 Ry     beta= 0.70
     CG style diagonalization
     ethr =  5.60E-07,  avg # of iterations =  3.8

     total cpu time spent up to now is     4798.0 secs

     total energy              =    -367.41462983 Ry
     Harris-Foulkes estimate   =    -367.41463124 Ry
     estimated scf accuracy    <       0.00055343 Ry

     iteration #  8     ecut=    50.00 Ry     beta= 0.70
     CG style diagonalization
     ethr =  5.60E-07,  avg # of iterations =  3.0

     total cpu time spent up to now is     4830.8 secs

     total energy              =    -367.41436308 Ry
     Harris-Foulkes estimate   =    -367.41463445 Ry
     estimated scf accuracy    <       0.00050709 Ry

     iteration #  9     ecut=    50.00 Ry     beta= 0.70
     CG style diagonalization
     ethr =  5.60E-07,  avg # of iterations =  3.8

     total cpu time spent up to now is     4872.1 secs

     total energy              =    -367.41446753 Ry
     Harris-Foulkes estimate   =    -367.41447096 Ry
     estimated scf accuracy    <       0.00000772 Ry

     iteration # 10     ecut=    50.00 Ry     beta= 0.70
     CG style diagonalization
     ethr =  1.21E-08,  avg # of iterations =  4.5

     total cpu time spent up to now is     4920.5 secs

     End of self-consistent calculation

     Number of k-points >= 100: set verbosity='high' to print the bands.

     highest occupied level (ev):     4.9363

!    total energy              =    -367.41447448 Ry
     Harris-Foulkes estimate   =    -367.41447496 Ry
     estimated scf accuracy    <       0.00000076 Ry

     The total energy is the sum of the following terms:

     one-electron contribution =    -135.70350392 Ry
     hartree contribution      =      98.49102587 Ry
     xc contribution           =     -75.32270437 Ry
     ewald contribution        =    -254.87929206 Ry

     convergence has been achieved in  10 iterations

     Forces acting on atoms (cartesian axes, Ry/au):

     atom    1 type  1   force =     0.00000000    0.00000000    0.00000000
     atom    2 type  1   force =     0.00000000    0.00000000    0.00000000
     atom    3 type  2   force =     0.00000000    0.00000000   -0.00000000
     atom    4 type  2   force =     0.00000000    0.00000000   -0.00000000
     atom    5 type  3   force =    -0.00013662    0.00023663    0.00000000
     atom    6 type  3   force =     0.00027324    0.00000000   -0.00000000
     atom    7 type  3   force =    -0.00013662   -0.00023663   -0.00000000
     atom    8 type  3   force =    -0.00027324   -0.00000000    0.00000000
     atom    9 type  3   force =     0.00013662    0.00023663    0.00000000
     atom   10 type  3   force =     0.00013662   -0.00023663   -0.00000000

     Total force =     0.000669     Total SCF correction =     0.001468
     SCF correction compared to forces is large: reduce conv_thr to get better values


     Computing stress (Cartesian axis) and pressure

          total   stress  (Ry/bohr**3)                   (kbar)     P=   13.24
  -0.00004629   0.00000000   0.00000000         -6.81      0.00      0.00
  -0.00000000  -0.00004629   0.00000000         -0.00     -6.81      0.00
   0.00000000   0.00000000   0.00036267          0.00      0.00     53.35


     number of scf cycles    =   8
     number of bfgs steps    =   6

     enthalpy old            =    -367.4105088487 Ry
     enthalpy new            =    -367.4144744841 Ry

     CASE: enthalpy_new < enthalpy_old

     new trust radius        =       0.0663275979 bohr
     new conv_thr            =       0.0000001000 Ry

     new unit-cell volume =    822.36501 a.u.^3 (   121.86192 Ang^3 )
     density =      2.72770 g/cm^3

CELL_PARAMETERS (alat= 12.00000000)
   0.409310589  -0.236315579   0.820019728
   0.000000000   0.472631157   0.820019728
  -0.409310589  -0.236315579   0.820019728

ATOMIC_POSITIONS (crystal)
Ca       0.500000000   0.500000000   0.500000000
Ca       0.000000000   0.000000000  -0.000000000
C        0.250000000   0.250000000   0.250000000
C        0.750000000   0.750000000   0.750000000
O        0.500177611   0.999822389   0.250000000
O        0.999822389   0.250000000   0.500177611
O        0.250000000   0.500177611   0.999822389
O        0.000177611   0.750000000   0.499822389
O        0.750000000   0.499822389   0.000177611
O        0.499822389   0.000177611   0.750000000



     Writing output data file CCO_k.save/
     NEW-OLD atomic charge density approx. for the potential

     Check: negative core charge=   -0.000003
     extrapolated charge   64.50700, renormalised to   64.00000

     total cpu time spent up to now is     4924.7 secs

     Self-consistent Calculation

     iteration #  1     ecut=    50.00 Ry     beta= 0.70
     CG style diagonalization
     c_bands:  2 eigenvalues not converged
     c_bands:  2 eigenvalues not converged
     c_bands:  2 eigenvalues not converged
     c_bands:  1 eigenvalues not converged
     c_bands:  2 eigenvalues not converged
     c_bands:  1 eigenvalues not converged
     c_bands:  1 eigenvalues not converged
     c_bands:  2 eigenvalues not converged
     c_bands:  1 eigenvalues not converged
     c_bands:  2 eigenvalues not converged
     c_bands:  2 eigenvalues not converged
     c_bands:  3 eigenvalues not converged
     c_bands:  1 eigenvalues not converged
     c_bands:  1 eigenvalues not converged
     c_bands:  1 eigenvalues not converged
     c_bands:  1 eigenvalues not converged
     c_bands:  2 eigenvalues not converged
     c_bands:  2 eigenvalues not converged
     c_bands:  1 eigenvalues not converged
     c_bands:  1 eigenvalues not converged
     c_bands:  1 eigenvalues not converged
     c_bands:  1 eigenvalues not converged
     c_bands:  1 eigenvalues not converged
     c_bands:  2 eigenvalues not converged
     c_bands:  1 eigenvalues not converged
     c_bands:  1 eigenvalues not converged
     c_bands:  1 eigenvalues not converged
     c_bands:  1 eigenvalues not converged
     c_bands:  1 eigenvalues not converged
     c_bands:  1 eigenvalues not converged
     c_bands:  1 eigenvalues not converged
     c_bands:  1 eigenvalues not converged
     c_bands:  2 eigenvalues not converged
     c_bands:  1 eigenvalues not converged
     c_bands:  1 eigenvalues not converged
     c_bands:  1 eigenvalues not converged
     ethr =  1.00E-06,  avg # of iterations =  7.5

     total cpu time spent up to now is     5004.3 secs

     total energy              =    -367.40258764 Ry
     Harris-Foulkes estimate   =    -366.58283913 Ry
     estimated scf accuracy    <       0.01152497 Ry

     iteration #  2     ecut=    50.00 Ry     beta= 0.70
     CG style diagonalization
     ethr =  1.80E-05,  avg # of iterations =  5.0

     total cpu time spent up to now is     5057.4 secs

     total energy              =    -367.41655081 Ry
     Harris-Foulkes estimate   =    -367.42857185 Ry
     estimated scf accuracy    <       0.03258809 Ry

     iteration #  3     ecut=    50.00 Ry     beta= 0.70
     CG style diagonalization
     ethr =  1.80E-05,  avg # of iterations =  3.8

     total cpu time spent up to now is     5098.1 secs

     total energy              =    -367.41788293 Ry
     Harris-Foulkes estimate   =    -367.41896084 Ry
     estimated scf accuracy    <       0.00385337 Ry

     iteration #  4     ecut=    50.00 Ry     beta= 0.70
     CG style diagonalization
     ethr =  6.02E-06,  avg # of iterations =  3.0

     total cpu time spent up to now is     5131.1 secs

     total energy              =    -367.41760451 Ry
[...]

     total energy              =    -367.43235380 Ry
     Harris-Foulkes estimate   =    -367.43235419 Ry
     estimated scf accuracy    <       0.00000089 Ry

     iteration #  7     ecut=    50.00 Ry     beta= 0.70
     CG style diagonalization
     ethr =  1.39E-09,  avg # of iterations =  3.6

     total cpu time spent up to now is     7404.1 secs

     End of self-consistent calculation

     Number of k-points >= 100: set verbosity='high' to print the bands.

     highest occupied level (ev):     4.4823

!    total energy              =    -367.43235394 Ry
     Harris-Foulkes estimate   =    -367.43235395 Ry
     estimated scf accuracy    <       0.00000001 Ry

     The total energy is the sum of the following terms:

     one-electron contribution =    -148.22241893 Ry
     hartree contribution      =     103.48107539 Ry
     xc contribution           =     -75.26774723 Ry
     ewald contribution        =    -247.42326318 Ry

     convergence has been achieved in   7 iterations

     Forces acting on atoms (cartesian axes, Ry/au):

     atom    1 type  1   force =     0.00000000    0.00000000    0.00000000
     atom    2 type  1   force =     0.00000000    0.00000000    0.00000000
     atom    3 type  2   force =     0.00000000    0.00000000    0.00000000
     atom    4 type  2   force =     0.00000000    0.00000000   -0.00000000
     atom    5 type  3   force =     0.00007067   -0.00012240   -0.00000000
     atom    6 type  3   force =    -0.00014133   -0.00000000    0.00000000
     atom    7 type  3   force =     0.00007067    0.00012240    0.00000000
     atom    8 type  3   force =     0.00014133    0.00000000   -0.00000000
     atom    9 type  3   force =    -0.00007067   -0.00012240   -0.00000000
     atom   10 type  3   force =    -0.00007067    0.00012240    0.00000000

     Total force =     0.000346     Total SCF correction =     0.000437
     SCF correction compared to forces is large: reduce conv_thr to get better values


     Computing stress (Cartesian axis) and pressure

          total   stress  (Ry/bohr**3)                   (kbar)     P=   -0.05
  -0.00000062  -0.00000000   0.00000000         -0.09     -0.00      0.00
  -0.00000000  -0.00000062  -0.00000000         -0.00     -0.09     -0.00
   0.00000000  -0.00000000   0.00000030          0.00     -0.00      0.04


     bfgs converged in  15 scf cycles and  13 bfgs steps
     (criteria: energy <  1.0E-04 Ry, force <  1.0E-03Ry/Bohr, cell <  5.0E-01kbar)

     End of BFGS Geometry Optimization

     Final enthalpy =    -367.4323539425 Ry
Begin final coordinates
     new unit-cell volume =    855.01928 a.u.^3 (   126.70078 Ang^3 )
     density =      2.62352 g/cm^3

CELL_PARAMETERS (alat= 12.00000000)
   0.397474549  -0.229482038   0.904113376
  -0.000000000   0.458964076   0.904113376
  -0.397474549  -0.229482038   0.904113376

ATOMIC_POSITIONS (crystal)
Ca       0.500000000   0.500000000   0.500000000
Ca       0.000000000  -0.000000000  -0.000000000
C        0.250000000   0.250000000   0.250000000
C        0.750000000   0.750000000   0.750000000
O        0.506919635   0.993080365   0.250000000
O        0.993080365   0.250000000   0.506919635
O        0.250000000   0.506919635   0.993080365
O        0.006919635   0.750000000   0.493080365
O        0.750000000   0.493080365   0.006919635
O        0.493080365   0.006919635   0.750000000
End final coordinates



     Writing output data file CCO_k.save/

     A final scf calculation at the relaxed structure.
     The G-vectors are recalculated for the final unit cell
     Results may differ from those at the preceding step.
 
     Parallelization info
     --------------------
     sticks:   dense  smooth     PW     G-vecs:    dense   smooth      PW
     Min          14      14      4                  339      339      55
     Max          15      15      5                  342      342      60
     Sum        1707    1707    513                40861    40861    6771
 


     bravais-lattice index     =            5
     lattice parameter (alat)  =      12.0000  a.u.
     unit-cell volume          =     855.0193 (a.u.)^3
     number of atoms/cell      =           10
     number of atomic types    =            3
     number of electrons       =        64.00
     number of Kohn-Sham states=           32
     kinetic-energy cutoff     =      50.0000  Ry
     charge density cutoff     =     200.0000  Ry
     convergence threshold     =      1.0E-07
     mixing beta               =       0.7000
     number of iterations used =            8  plain     mixing
     Exchange-correlation      = SLA  PW   PBE  PBE ( 1  4  3  4 0 0)

     celldm(1)=  12.000000  celldm(2)=   0.000000  celldm(3)=   0.000000
     celldm(4)=   0.500000  celldm(5)=   0.000000  celldm(6)=   0.000000

     crystal axes: (cart. coord. in units of alat)
               a(1) = (   0.397475  -0.229482   0.904113 )  
               a(2) = (  -0.000000   0.458964   0.904113 )  
               a(3) = (  -0.397475  -0.229482   0.904113 )  

     reciprocal axes: (cart. coord. in units 2 pi/alat)
               b(1) = (  1.257942 -0.726273  0.368685 )  
               b(2) = (  0.000000  1.452547  0.368685 )  
               b(3) = ( -1.257942 -0.726273  0.368685 )  


     PseudoPot. # 1 for Ca read from file:
     ./Ca_PBE.UPF
     MD5 check sum: 403a4c14b9e4d4dfdc3024c9a3812218
     Pseudo is Ultrasoft + core correction, Zval = 10.0
     Generated by new atomic code, or converted to UPF format
     Using radial grid of  845 points,  6 beta functions with: 
                l(1) =   0
                l(2) =   0
                l(3) =   1
                l(4) =   1
                l(5) =   2
                l(6) =   2
     Q(r) pseudized with  8 coefficients,  rinner =    1.500   1.500   1.500
                                                       1.500   1.500

     PseudoPot. # 2 for C  read from file:
     ./C_PBE.UPF
     MD5 check sum: d1aef80898a10debaa0f26306b886e00
     Pseudo is Ultrasoft + core correction, Zval =  4.0
     Generated by new atomic code, or converted to UPF format
     Using radial grid of  721 points,  4 beta functions with: 
                l(1) =   0
                l(2) =   0
                l(3) =   1
                l(4) =   1
     Q(r) pseudized with  8 coefficients,  rinner =    1.100   1.100   1.100


     PseudoPot. # 3 for O  read from file:
     ./O_PBE.UPF
     MD5 check sum: 734c27235a0248c51dbae37a1fbe46ec
     Pseudo is Ultrasoft + core correction, Zval =  6.0
     Generated by new atomic code, or converted to UPF format
     Using radial grid of  737 points,  5 beta functions with: 
                l(1) =   0
                l(2) =   0
                l(3) =   1
                l(4) =   1
                l(5) =   2
     Q(r) pseudized with  8 coefficients,  rinner =    0.900   0.900   0.900
                                                       0.900   0.900

     atomic species   valence    mass     pseudopotential
        Ca            10.00    40.07800     Ca( 1.00)
        C              4.00    12.01070     C ( 1.00)
        O              6.00    16.00000     O ( 1.00)

     12 Sym. Ops., with inversion, found ( 6 have fractional translation)



   Cartesian axes

     site n.     atom                  positions (alat units)
         1           Ca  tau(   1) = (  -0.0000000  -0.0000000   1.3561701  )
         2           Ca  tau(   2) = (   0.0000000  -0.0000000  -0.0000000  )
         3           C   tau(   3) = (   0.0000000  -0.0000000   0.6780850  )
         4           C   tau(   4) = (   0.0000000  -0.0000000   2.0342551  )
         5           O   tau(   5) = (   0.1021190   0.2820888   1.5821984  )
         6           O   tau(   6) = (   0.1932365  -0.2294820   1.5821984  )
         7           O   tau(   7) = (  -0.2953555  -0.0526067   1.5821984  )
         8           O   tau(   8) = (  -0.1932365   0.2294820   1.1301417  )
         9           O   tau(   9) = (   0.2953555   0.0526067   1.1301417  )
        10           O   tau(  10) = (  -0.1021190  -0.2820888   1.1301417  )

     number of k points=   116

     Number of k-points >= 100: set verbosity='high' to print them.

     Dense  grid:    40861 G-vectors     FFT dimensions: (  60,  60,  60)

     Estimated max dynamical RAM per process >      17.06 MB

     Estimated total dynamical RAM >       2.00 GB
     Message from routine sym_rho_init:
     some processors have no G-vectors for symmetrization
     Message from routine sym_rho_init:
     some processors have no G-vectors for symmetrization
     Message from routine sym_rho_init:
     some processors have no G-vectors for symmetrization
     Message from routine sym_rho_init:
     some processors have no G-vectors for symmetrization

     Check: negative core charge=   -0.000003

     Initial potential from superposition of free atoms

     starting charge   63.98899, renormalised to   64.00000
     Starting wfcs are   52 randomized atomic wfcs

     total cpu time spent up to now is     7423.9 secs

     Self-consistent Calculation

     iteration #  1     ecut=    50.00 Ry     beta= 0.70
     CG style diagonalization
     c_bands:  3 eigenvalues not converged
     c_bands:  5 eigenvalues not converged
     c_bands:  5 eigenvalues not converged
     c_bands:  5 eigenvalues not converged
     c_bands:  5 eigenvalues not converged
     c_bands:  3 eigenvalues not converged
     c_bands:  3 eigenvalues not converged
     c_bands:  5 eigenvalues not converged
     c_bands:  5 eigenvalues not converged
     c_bands:  5 eigenvalues not converged
     c_bands:  3 eigenvalues not converged
     c_bands:  4 eigenvalues not converged
     c_bands:  5 eigenvalues not converged
     c_bands:  5 eigenvalues not converged
     c_bands:  5 eigenvalues not converged
     c_bands:  4 eigenvalues not converged
     c_bands:  5 eigenvalues not converged
     c_bands:  5 eigenvalues not converged
     c_bands:  5 eigenvalues not converged
     c_bands:  2 eigenvalues not converged
     c_bands:  2 eigenvalues not converged
     c_bands:  4 eigenvalues not converged
     c_bands:  5 eigenvalues not converged
     c_bands:  4 eigenvalues not converged
     c_bands:  5 eigenvalues not converged
     c_bands:  4 eigenvalues not converged
     c_bands:  5 eigenvalues not converged
     c_bands:  5 eigenvalues not converged
     c_bands:  4 eigenvalues not converged
     c_bands:  5 eigenvalues not converged
     c_bands:  4 eigenvalues not converged
     c_bands:  2 eigenvalues not converged
     c_bands:  3 eigenvalues not converged
     c_bands:  3 eigenvalues not converged
     c_bands:  5 eigenvalues not converged
     c_bands:  5 eigenvalues not converged
     c_bands:  4 eigenvalues not converged
     c_bands:  5 eigenvalues not converged
     c_bands:  4 eigenvalues not converged
     c_bands:  5 eigenvalues not converged
     c_bands:  4 eigenvalues not converged
     c_bands:  4 eigenvalues not converged
     c_bands:  3 eigenvalues not converged
     c_bands:  4 eigenvalues not converged
     c_bands:  2 eigenvalues not converged
     c_bands:  4 eigenvalues not converged
     c_bands:  5 eigenvalues not converged
     c_bands:  1 eigenvalues not converged
     c_bands:  5 eigenvalues not converged
     c_bands:  4 eigenvalues not converged
     c_bands:  5 eigenvalues not converged
     c_bands:  5 eigenvalues not converged
     c_bands:  1 eigenvalues not converged
     c_bands:  5 eigenvalues not converged
     c_bands:  4 eigenvalues not converged
     c_bands:  5 eigenvalues not converged
     c_bands:  4 eigenvalues not converged
     c_bands:  3 eigenvalues not converged
     c_bands:  2 eigenvalues not converged
     c_bands:  5 eigenvalues not converged
     c_bands:  5 eigenvalues not converged
     c_bands:  5 eigenvalues not converged
     c_bands:  3 eigenvalues not converged
     c_bands:  5 eigenvalues not converged
     c_bands:  4 eigenvalues not converged
     c_bands:  3 eigenvalues not converged
     c_bands:  5 eigenvalues not converged
     c_bands:  4 eigenvalues not converged
     c_bands:  3 eigenvalues not converged
     c_bands:  4 eigenvalues not converged
     c_bands:  3 eigenvalues not converged
     c_bands:  5 eigenvalues not converged
     c_bands:  5 eigenvalues not converged
     ethr =  1.00E-06,  avg # of iterations = 13.4

     total cpu time spent up to now is     7558.9 secs

     total energy              =    -366.72812717 Ry
     Harris-Foulkes estimate   =    -367.90351423 Ry
     estimated scf accuracy    <       1.68776654 Ry

     iteration #  2     ecut=    50.00 Ry     beta= 0.70
     CG style diagonalization
     ethr =  2.64E-03,  avg # of iterations =  4.3

     total cpu time spent up to now is     7604.5 secs

     total energy              =    -367.11607756 Ry
     Harris-Foulkes estimate   =    -367.87716409 Ry
     estimated scf accuracy    <       1.55441182 Ry

     iteration #  3     ecut=    50.00 Ry     beta= 0.70
     CG style diagonalization
     ethr =  2.43E-03,  avg # of iterations =  3.8

     total cpu time spent up to now is     7644.6 secs

     total energy              =    -367.41884120 Ry
     Harris-Foulkes estimate   =    -367.42143338 Ry
     estimated scf accuracy    <       0.01240386 Ry

     iteration #  4     ecut=    50.00 Ry     beta= 0.70
     CG style diagonalization
     ethr =  1.94E-05,  avg # of iterations =  4.3

     total cpu time spent up to now is     7690.1 secs

     total energy              =    -367.42993969 Ry
     Harris-Foulkes estimate   =    -367.43090045 Ry
     estimated scf accuracy    <       0.00257964 Ry

     iteration #  5     ecut=    50.00 Ry     beta= 0.70
     CG style diagonalization
     ethr =  4.03E-06,  avg # of iterations =  3.5

     total cpu time spent up to now is     7728.0 secs

     total energy              =    -367.43033054 Ry
     Harris-Foulkes estimate   =    -367.43034756 Ry
     estimated scf accuracy    <       0.00011542 Ry

     iteration #  6     ecut=    50.00 Ry     beta= 0.70
     CG style diagonalization
     ethr =  1.80E-07,  avg # of iterations =  4.0

     total cpu time spent up to now is     7770.9 secs

     total energy              =    -367.43036147 Ry
     Harris-Foulkes estimate   =    -367.43036531 Ry
     estimated scf accuracy    <       0.00000801 Ry

     iteration #  7     ecut=    50.00 Ry     beta= 0.70
     CG style diagonalization
     ethr =  1.25E-08,  avg # of iterations =  4.3

     total cpu time spent up to now is     7816.7 secs

     total energy              =    -367.43036534 Ry
     Harris-Foulkes estimate   =    -367.43036685 Ry
     estimated scf accuracy    <       0.00000378 Ry

     iteration #  8     ecut=    50.00 Ry     beta= 0.70
     CG style diagonalization
     ethr =  5.90E-09,  avg # of iterations =  3.6

     total cpu time spent up to now is     7855.2 secs

     total energy              =    -367.43036579 Ry
     Harris-Foulkes estimate   =    -367.43036589 Ry
     estimated scf accuracy    <       0.00000019 Ry

     iteration #  9     ecut=    50.00 Ry     beta= 0.70
     CG style diagonalization
     ethr =  2.96E-10,  avg # of iterations =  4.0

     total cpu time spent up to now is     7897.3 secs

     End of self-consistent calculation

     Number of k-points >= 100: set verbosity='high' to print the bands.

     highest occupied level (ev):     4.4827

!    total energy              =    -367.43036585 Ry
     Harris-Foulkes estimate   =    -367.43036585 Ry
     estimated scf accuracy    <          9.0E-09 Ry

     The total energy is the sum of the following terms:

     one-electron contribution =    -148.21869675 Ry
     hartree contribution      =     103.47880548 Ry
     xc contribution           =     -75.26721141 Ry
     ewald contribution        =    -247.42326317 Ry

     convergence has been achieved in   9 iterations

     Forces acting on atoms (cartesian axes, Ry/au):

     atom    1 type  1   force =     0.00000000    0.00000000    0.00000000
     atom    2 type  1   force =    -0.00000000   -0.00000000   -0.00000000
     atom    3 type  2   force =     0.00000000    0.00000000   -0.00000000
     atom    4 type  2   force =    -0.00000000   -0.00000000    0.00000000
     atom    5 type  3   force =     0.00007347   -0.00012726   -0.00000000
     atom    6 type  3   force =    -0.00014695   -0.00000000    0.00000000
     atom    7 type  3   force =     0.00007347    0.00012726    0.00000000
     atom    8 type  3   force =     0.00014695    0.00000000   -0.00000000
     atom    9 type  3   force =    -0.00007347   -0.00012726   -0.00000000
     atom   10 type  3   force =    -0.00007347    0.00012726    0.00000000

     Total force =     0.000360     Total SCF correction =     0.000108
     SCF correction compared to forces is large: reduce conv_thr to get better values


     Computing stress (Cartesian axis) and pressure

          total   stress  (Ry/bohr**3)                   (kbar)     P=   -1.27
  -0.00001093  -0.00000000  -0.00000000         -1.61     -0.00     -0.00
  -0.00000000  -0.00001093  -0.00000000         -0.00     -1.61     -0.00
  -0.00000000  -0.00000000  -0.00000414         -0.00     -0.00     -0.61


     Writing output data file CCO_k.save/
 
     init_run     :     27.09s CPU     32.01s WALL (       2 calls)
     electrons    :   7041.85s CPU   7814.01s WALL (      16 calls)
     update_pot   :      1.35s CPU      1.42s WALL (      14 calls)
     forces       :     17.02s CPU     17.72s WALL (      16 calls)
     stress       :     28.84s CPU     29.11s WALL (      16 calls)

     Called by init_run:
     wfcinit      :     25.74s CPU     30.52s WALL (       2 calls)
     potinit      :      0.07s CPU      0.08s WALL (       2 calls)
     hinit0       :      0.86s CPU      0.95s WALL (       2 calls)

     Called by electrons:
     c_bands      :   6652.67s CPU   7402.68s WALL (     157 calls)
     sum_band     :    383.85s CPU    404.73s WALL (     157 calls)
     v_of_rho     :      2.89s CPU      3.00s WALL (     172 calls)
     newd         :      1.31s CPU      1.36s WALL (     172 calls)
     mix_rho      :      0.66s CPU      0.71s WALL (     157 calls)

     Called by c_bands:
     init_us_2    :      9.21s CPU     10.75s WALL (   40368 calls)
     ccgdiagg     :   5349.40s CPU   5828.71s WALL (   18816 calls)
     wfcrot       :   1316.48s CPU   1577.15s WALL (   17076 calls)

     Called by sum_band:
     sum_band:bec :      5.15s CPU      5.41s WALL (   18212 calls)
     addusdens    :      0.82s CPU      0.83s WALL (     157 calls)

     Called by *cgdiagg:
     h_psi        :   4453.96s CPU   4768.38s WALL ( 2150743 calls)
     s_psi        :    229.70s CPU    260.21s WALL ( 4284410 calls)
     cdiaghg      :    484.80s CPU    696.72s WALL (   17076 calls)

     Called by h_psi:
     h_psi:pot    :   4397.79s CPU   4703.55s WALL ( 2150743 calls)
     h_psi:calbec :    513.65s CPU    557.82s WALL ( 2150743 calls)
     vloc_psi     :   3637.08s CPU   3879.38s WALL ( 2150743 calls)
     add_vuspsi   :    175.96s CPU    193.59s WALL ( 2150743 calls)
     hs_1psi      :   4005.52s CPU   4305.25s WALL ( 2133667 calls)
     s_1psi       :    469.44s CPU    531.67s WALL ( 2133667 calls)

     General routines
     calbec       :    763.63s CPU    851.91s WALL ( 4311902 calls)
     fft          :      3.88s CPU      4.02s WALL (    2307 calls)
     ffts         :      0.21s CPU      0.22s WALL (     157 calls)
     fftw         :   3796.33s CPU   4040.95s WALL ( 5952262 calls)
 
     Parallel routines
     fft_scatt_xy :    173.55s CPU    183.90s WALL ( 5954726 calls)
     fft_scatt_yz :   2861.60s CPU   3050.10s WALL ( 5954726 calls)
 
     PWSCF        :      1h58m CPU      2h11m WALL

 
   This run was terminated on:  22:16:44  24Apr2022            

=------------------------------------------------------------------------------=
   JOB DONE.
=------------------------------------------------------------------------------=
