
     Program PWSCF v.6.4.1 starts on  3May2022 at 22:25:50 

     This program is part of the open-source Quantum ESPRESSO suite
     for quantum simulation of materials; please cite
         "P. Giannozzi et al., J. Phys.:Condens. Matter 21 395502 (2009);
         "P. Giannozzi et al., J. Phys.:Condens. Matter 29 465901 (2017);
          URL http://www.quantum-espresso.org", 
     in publications or presentations arising from this work. More details at
     http://www.quantum-espresso.org/quote

     Parallel version (MPI & OpenMP), running on     300 processor cores
     Number of MPI processes:               300
     Threads/MPI process:                     1

     MPI processes distributed on     5 nodes
     R & G space division:  proc/nbgrp/npool/nimage =     300
     Waiting for input...
     Reading input from standard input

     Current dimensions of program PWSCF are:
     Max number of different atomic species (ntypx) = 10
     Max number of k-points (npk) =  40000
     Max angular momentum in pseudopotentials (lmaxx) =  3

     Subspace diagonalization in iterative solution of the eigenvalue problem:
     one sub-group per band group will be used
     scalapack distributed-memory algorithm (size of sub-group: 12* 12 procs)

 
     Parallelization info
     --------------------
     sticks:   dense  smooth     PW     G-vecs:    dense   smooth      PW
     Min           6       6      1                  190      190      23
     Max           7       7      2                  200      200      34
     Sum        1981    1981    583                58383    58383    9257
 


     bravais-lattice index     =            5
     lattice parameter (alat)  =      12.0000  a.u.
     unit-cell volume          =    1221.8805 (a.u.)^3
     number of atoms/cell      =           10
     number of atomic types    =            3
     number of electrons       =        64.00
     number of Kohn-Sham states=           32
     kinetic-energy cutoff     =      50.0000  Ry
     charge density cutoff     =     200.0000  Ry
     convergence threshold     =      1.0E-05
     mixing beta               =       0.7000
     number of iterations used =            8  plain     mixing
     Exchange-correlation      = SLA  PW   PBE  PBE ( 1  4  3  4 0 0)
     nstep                     =           50


     celldm(1)=  12.000000  celldm(2)=   0.000000  celldm(3)=   0.000000
     celldm(4)=   0.500000  celldm(5)=   0.000000  celldm(6)=   0.000000

     crystal axes: (cart. coord. in units of alat)
               a(1) = (   0.500000  -0.288675   0.816497 )  
               a(2) = (   0.000000   0.577350   0.816497 )  
               a(3) = (  -0.500000  -0.288675   0.816497 )  

     reciprocal axes: (cart. coord. in units 2 pi/alat)
               b(1) = (  1.000000 -0.577350  0.408248 )  
               b(2) = (  0.000000  1.154701  0.408248 )  
               b(3) = ( -1.000000 -0.577350  0.408248 )  


     PseudoPot. # 1 for Ca read from file:
     ./Ca_PBE.UPF
     MD5 check sum: 403a4c14b9e4d4dfdc3024c9a3812218
     Pseudo is Ultrasoft + core correction, Zval = 10.0
     Generated by new atomic code, or converted to UPF format
     Using radial grid of  845 points,  6 beta functions with: 
                l(1) =   0
                l(2) =   0
                l(3) =   1
                l(4) =   1
                l(5) =   2
                l(6) =   2
     Q(r) pseudized with  8 coefficients,  rinner =    1.500   1.500   1.500
                                                       1.500   1.500

     PseudoPot. # 2 for C  read from file:
     ./C_PBE.UPF
     MD5 check sum: d1aef80898a10debaa0f26306b886e00
     Pseudo is Ultrasoft + core correction, Zval =  4.0
     Generated by new atomic code, or converted to UPF format
     Using radial grid of  721 points,  4 beta functions with: 
                l(1) =   0
                l(2) =   0
                l(3) =   1
                l(4) =   1
     Q(r) pseudized with  8 coefficients,  rinner =    1.100   1.100   1.100


     PseudoPot. # 3 for O  read from file:
     ./O_PBE.UPF
     MD5 check sum: 734c27235a0248c51dbae37a1fbe46ec
     Pseudo is Ultrasoft + core correction, Zval =  6.0
     Generated by new atomic code, or converted to UPF format
     Using radial grid of  737 points,  5 beta functions with: 
                l(1) =   0
                l(2) =   0
                l(3) =   1
                l(4) =   1
                l(5) =   2
     Q(r) pseudized with  8 coefficients,  rinner =    0.900   0.900   0.900
                                                       0.900   0.900

     atomic species   valence    mass     pseudopotential
        Ca            10.00    40.07800     Ca( 1.00)
        C              4.00    12.01070     C ( 1.00)
        O              6.00    16.00000     O ( 1.00)

     12 Sym. Ops., with inversion, found ( 6 have fractional translation)



   Cartesian axes

     site n.     atom                  positions (alat units)
         1           Ca  tau(   1) = (   0.0000000  -0.0000000   1.2247449  )
         2           Ca  tau(   2) = (   0.0000000   0.0000000   0.0000000  )
         3           C   tau(   3) = (   0.0000000  -0.0000000   0.6123724  )
         4           C   tau(   4) = (  -0.0000000  -0.0000000   1.8371173  )
         5           O   tau(   5) = (   0.1284501   0.3548681   1.4288690  )
         6           O   tau(   6) = (   0.2430998  -0.2886751   1.4288690  )
         7           O   tau(   7) = (  -0.3715499  -0.0661930   1.4288690  )
         8           O   tau(   8) = (  -0.2430998   0.2886751   1.0206207  )
         9           O   tau(   9) = (   0.3715499   0.0661930   1.0206207  )
        10           O   tau(  10) = (  -0.1284501  -0.3548681   1.0206207  )

     number of k points=   189

     Number of k-points >= 100: set verbosity='high' to print them.

     Dense  grid:    58383 G-vectors     FFT dimensions: (  60,  60,  60)

     Estimated max dynamical RAM per process >      16.31 MB

     Estimated total dynamical RAM >       4.78 GB
     Message from routine sym_rho_init:
     some processors have no G-vectors for symmetrization
     Message from routine sym_rho_init:
     some processors have no G-vectors for symmetrization
     Message from routine sym_rho_init:
     some processors have no G-vectors for symmetrization
     Message from routine sym_rho_init:
     some processors have no G-vectors for symmetrization
     Message from routine sym_rho_init:
     some processors have no G-vectors for symmetrization
     Message from routine sym_rho_init:
     some processors have no G-vectors for symmetrization
     Message from routine sym_rho_init:
     some processors have no G-vectors for symmetrization
     Message from routine sym_rho_init:
     some processors have no G-vectors for symmetrization
     Message from routine sym_rho_init:
     some processors have no G-vectors for symmetrization
     Message from routine sym_rho_init:
     some processors have no G-vectors for symmetrization
     Message from routine sym_rho_init:
     some processors have no G-vectors for symmetrization
     Message from routine sym_rho_init:
     some processors have no G-vectors for symmetrization
     Message from routine sym_rho_init:
     some processors have no G-vectors for symmetrization
     Message from routine sym_rho_init:
     some processors have no G-vectors for symmetrization
     Message from routine sym_rho_init:
     some processors have no G-vectors for symmetrization
     Message from routine sym_rho_init:
     some processors have no G-vectors for symmetrization
     Message from routine sym_rho_init:
     some processors have no G-vectors for symmetrization
     Message from routine sym_rho_init:
     some processors have no G-vectors for symmetrization
     Message from routine sym_rho_init:
     some processors have no G-vectors for symmetrization
     Message from routine sym_rho_init:
     some processors have no G-vectors for symmetrization
     Message from routine sym_rho_init:
     some processors have no G-vectors for symmetrization
     Message from routine sym_rho_init:
     some processors have no G-vectors for symmetrization
     Message from routine sym_rho_init:
     some processors have no G-vectors for symmetrization
     Message from routine sym_rho_init:
     some processors have no G-vectors for symmetrization
     Message from routine sym_rho_init:
     some processors have no G-vectors for symmetrization
     Message from routine sym_rho_init:
     some processors have no G-vectors for symmetrization
     Message from routine sym_rho_init:
     some processors have no G-vectors for symmetrization
     Message from routine sym_rho_init:
     some processors have no G-vectors for symmetrization
     Message from routine sym_rho_init:
     some processors have no G-vectors for symmetrization
     Message from routine sym_rho_init:
     some processors have no G-vectors for symmetrization
     Message from routine sym_rho_init:
     some processors have no G-vectors for symmetrization
     Message from routine sym_rho_init:
     some processors have no G-vectors for symmetrization
     Message from routine sym_rho_init:
     some processors have no G-vectors for symmetrization
     Message from routine sym_rho_init:
     some processors have no G-vectors for symmetrization
     Message from routine sym_rho_init:
     some processors have no G-vectors for symmetrization
     Message from routine sym_rho_init:
     some processors have no G-vectors for symmetrization
     Message from routine sym_rho_init:
     some processors have no G-vectors for symmetrization
     Message from routine sym_rho_init:
     some processors have no G-vectors for symmetrization
     Message from routine sym_rho_init:
     some processors have no G-vectors for symmetrization
     Message from routine sym_rho_init:
     some processors have no G-vectors for symmetrization
     Message from routine sym_rho_init:
     some processors have no G-vectors for symmetrization
     Message from routine sym_rho_init:
     some processors have no G-vectors for symmetrization
     Message from routine sym_rho_init:
     some processors have no G-vectors for symmetrization
     Message from routine sym_rho_init:
     some processors have no G-vectors for symmetrization
     Message from routine sym_rho_init:
     some processors have no G-vectors for symmetrization
     Message from routine sym_rho_init:
     some processors have no G-vectors for symmetrization
     Message from routine sym_rho_init:
     some processors have no G-vectors for symmetrization
     Message from routine sym_rho_init:
     some processors have no G-vectors for symmetrization
     Message from routine sym_rho_init:
     some processors have no G-vectors for symmetrization
     Message from routine sym_rho_init:
     some processors have no G-vectors for symmetrization
     Message from routine sym_rho_init:
     some processors have no G-vectors for symmetrization
     Message from routine sym_rho_init:
     some processors have no G-vectors for symmetrization
     Message from routine sym_rho_init:
     some processors have no G-vectors for symmetrization
     Message from routine sym_rho_init:
     some processors have no G-vectors for symmetrization
     Message from routine sym_rho_init:
     some processors have no G-vectors for symmetrization
     Message from routine sym_rho_init:
     some processors have no G-vectors for symmetrization
     Message from routine sym_rho_init:
     some processors have no G-vectors for symmetrization
     Message from routine sym_rho_init:
     some processors have no G-vectors for symmetrization
     Message from routine sym_rho_init:
     some processors have no G-vectors for symmetrization
     Message from routine sym_rho_init:
     some processors have no G-vectors for symmetrization
     Message from routine sym_rho_init:
     some processors have no G-vectors for symmetrization
     Message from routine sym_rho_init:
     some processors have no G-vectors for symmetrization
     Message from routine sym_rho_init:
     some processors have no G-vectors for symmetrization
     Message from routine sym_rho_init:
     some processors have no G-vectors for symmetrization
     Message from routine sym_rho_init:
     some processors have no G-vectors for symmetrization
     Message from routine sym_rho_init:
     some processors have no G-vectors for symmetrization
     Message from routine sym_rho_init:
     some processors have no G-vectors for symmetrization
     Message from routine sym_rho_init:
     some processors have no G-vectors for symmetrization
     Message from routine sym_rho_init:
     some processors have no G-vectors for symmetrization
     Message from routine sym_rho_init:
     some processors have no G-vectors for symmetrization
     Message from routine sym_rho_init:
     some processors have no G-vectors for symmetrization
     Message from routine sym_rho_init:
     some processors have no G-vectors for symmetrization
     Message from routine sym_rho_init:
     some processors have no G-vectors for symmetrization
     Message from routine sym_rho_init:
     some processors have no G-vectors for symmetrization
     Message from routine sym_rho_init:
     some processors have no G-vectors for symmetrization
     Message from routine sym_rho_init:
     some processors have no G-vectors for symmetrization
     Message from routine sym_rho_init:
     some processors have no G-vectors for symmetrization
     Message from routine sym_rho_init:
     some processors have no G-vectors for symmetrization
     Message from routine sym_rho_init:
     some processors have no G-vectors for symmetrization
     Message from routine sym_rho_init:
     some processors have no G-vectors for symmetrization
     Message from routine sym_rho_init:
     some processors have no G-vectors for symmetrization
     Message from routine sym_rho_init:
     some processors have no G-vectors for symmetrization
     Message from routine sym_rho_init:
     some processors have no G-vectors for symmetrization
     Message from routine sym_rho_init:
     some processors have no G-vectors for symmetrization
     Message from routine sym_rho_init:
     some processors have no G-vectors for symmetrization
     Message from routine sym_rho_init:
     some processors have no G-vectors for symmetrization
     Message from routine sym_rho_init:
     some processors have no G-vectors for symmetrization
     Message from routine sym_rho_init:
     some processors have no G-vectors for symmetrization
     Message from routine sym_rho_init:
     some processors have no G-vectors for symmetrization
     Message from routine sym_rho_init:
     some processors have no G-vectors for symmetrization
     Message from routine sym_rho_init:
     some processors have no G-vectors for symmetrization
     Message from routine sym_rho_init:
     some processors have no G-vectors for symmetrization
     Message from routine sym_rho_init:
     some processors have no G-vectors for symmetrization
     Message from routine sym_rho_init:
     some processors have no G-vectors for symmetrization
     Message from routine sym_rho_init:
     some processors have no G-vectors for symmetrization
     Message from routine sym_rho_init:
     some processors have no G-vectors for symmetrization
     Message from routine sym_rho_init:
     some processors have no G-vectors for symmetrization
     Message from routine sym_rho_init:
     some processors have no G-vectors for symmetrization
     Message from routine sym_rho_init:
     some processors have no G-vectors for symmetrization
     Message from routine sym_rho_init:
     some processors have no G-vectors for symmetrization
     Message from routine sym_rho_init:
     some processors have no G-vectors for symmetrization
     Message from routine sym_rho_init:
     some processors have no G-vectors for symmetrization
     Message from routine sym_rho_init:
     some processors have no G-vectors for symmetrization
     Message from routine sym_rho_init:
     some processors have no G-vectors for symmetrization
     Message from routine sym_rho_init:
     some processors have no G-vectors for symmetrization
     Message from routine sym_rho_init:
     some processors have no G-vectors for symmetrization
     Message from routine sym_rho_init:
     some processors have no G-vectors for symmetrization
     Message from routine sym_rho_init:
     some processors have no G-vectors for symmetrization
     Message from routine sym_rho_init:
     some processors have no G-vectors for symmetrization
     Message from routine sym_rho_init:
     some processors have no G-vectors for symmetrization
     Message from routine sym_rho_init:
     some processors have no G-vectors for symmetrization
     Message from routine sym_rho_init:
     some processors have no G-vectors for symmetrization
     Message from routine sym_rho_init:
     some processors have no G-vectors for symmetrization
     Message from routine sym_rho_init:
     some processors have no G-vectors for symmetrization
     Message from routine sym_rho_init:
     some processors have no G-vectors for symmetrization
     Message from routine sym_rho_init:
     some processors have no G-vectors for symmetrization
     Message from routine sym_rho_init:
     some processors have no G-vectors for symmetrization
     Message from routine sym_rho_init:
     some processors have no G-vectors for symmetrization
     Message from routine sym_rho_init:
     some processors have no G-vectors for symmetrization
     Message from routine sym_rho_init:
     some processors have no G-vectors for symmetrization
     Message from routine sym_rho_init:
     some processors have no G-vectors for symmetrization
     Message from routine sym_rho_init:
     some processors have no G-vectors for symmetrization
     Message from routine sym_rho_init:
     some processors have no G-vectors for symmetrization
     Message from routine sym_rho_init:
     some processors have no G-vectors for symmetrization
     Message from routine sym_rho_init:
     some processors have no G-vectors for symmetrization
     Message from routine sym_rho_init:
     some processors have no G-vectors for symmetrization
     Message from routine sym_rho_init:
     some processors have no G-vectors for symmetrization
     Message from routine sym_rho_init:
     some processors have no G-vectors for symmetrization
     Message from routine sym_rho_init:
     some processors have no G-vectors for symmetrization
     Message from routine sym_rho_init:
     some processors have no G-vectors for symmetrization
     Message from routine sym_rho_init:
     some processors have no G-vectors for symmetrization
     Message from routine sym_rho_init:
     some processors have no G-vectors for symmetrization
     Message from routine sym_rho_init:
     some processors have no G-vectors for symmetrization
     Message from routine sym_rho_init:
     some processors have no G-vectors for symmetrization
     Message from routine sym_rho_init:
     some processors have no G-vectors for symmetrization
     Message from routine sym_rho_init:
     some processors have no G-vectors for symmetrization
     Message from routine sym_rho_init:
     some processors have no G-vectors for symmetrization
     Message from routine sym_rho_init:
     some processors have no G-vectors for symmetrization
     Message from routine sym_rho_init:
     some processors have no G-vectors for symmetrization
     Message from routine sym_rho_init:
     some processors have no G-vectors for symmetrization
     Message from routine sym_rho_init:
     some processors have no G-vectors for symmetrization
     Message from routine sym_rho_init:
     some processors have no G-vectors for symmetrization
     Message from routine sym_rho_init:
     some processors have no G-vectors for symmetrization
     Message from routine sym_rho_init:
     some processors have no G-vectors for symmetrization
     Message from routine sym_rho_init:
     some processors have no G-vectors for symmetrization
     Message from routine sym_rho_init:
     some processors have no G-vectors for symmetrization
     Message from routine sym_rho_init:
     some processors have no G-vectors for symmetrization
     Message from routine sym_rho_init:
     some processors have no G-vectors for symmetrization
     Message from routine sym_rho_init:
     some processors have no G-vectors for symmetrization
     Message from routine sym_rho_init:
     some processors have no G-vectors for symmetrization
     Message from routine sym_rho_init:
     some processors have no G-vectors for symmetrization
     Message from routine sym_rho_init:
     some processors have no G-vectors for symmetrization
     Message from routine sym_rho_init:
     some processors have no G-vectors for symmetrization
     Message from routine sym_rho_init:
     some processors have no G-vectors for symmetrization
     Message from routine sym_rho_init:
     some processors have no G-vectors for symmetrization
     Message from routine sym_rho_init:
     some processors have no G-vectors for symmetrization
     Message from routine sym_rho_init:
     some processors have no G-vectors for symmetrization
     Message from routine sym_rho_init:
     some processors have no G-vectors for symmetrization
     Message from routine sym_rho_init:
     some processors have no G-vectors for symmetrization
     Message from routine sym_rho_init:
     some processors have no G-vectors for symmetrization
     Message from routine sym_rho_init:
     some processors have no G-vectors for symmetrization
     Message from routine sym_rho_init:
     some processors have no G-vectors for symmetrization
     Message from routine sym_rho_init:
     some processors have no G-vectors for symmetrization
     Message from routine sym_rho_init:
     some processors have no G-vectors for symmetrization
     Message from routine sym_rho_init:
     some processors have no G-vectors for symmetrization

     Check: negative core charge=   -0.000002

     Initial potential from superposition of free atoms

     starting charge   63.98899, renormalised to   64.00000
     Starting wfcs are   52 randomized atomic wfcs

     total cpu time spent up to now is       38.5 secs

     Self-consistent Calculation

     iteration #  1     ecut=    50.00 Ry     beta= 0.70
     CG style diagonalization
     ethr =  1.00E-02,  avg # of iterations =  2.2

     total cpu time spent up to now is       84.0 secs

     total energy              =    -365.13648357 Ry
     Harris-Foulkes estimate   =    -366.89790550 Ry
     estimated scf accuracy    <       2.39165747 Ry

     iteration #  2     ecut=    50.00 Ry     beta= 0.70
     CG style diagonalization
     ethr =  3.74E-03,  avg # of iterations =  4.8

     total cpu time spent up to now is      190.9 secs

     total energy              =    -364.97656791 Ry
     Harris-Foulkes estimate   =    -368.32933436 Ry
     estimated scf accuracy    <       9.63555393 Ry

     iteration #  3     ecut=    50.00 Ry     beta= 0.70
     CG style diagonalization
     ethr =  3.74E-03,  avg # of iterations =  4.3

     total cpu time spent up to now is      287.0 secs

     total energy              =    -366.40047233 Ry
     Harris-Foulkes estimate   =    -366.42497246 Ry
     estimated scf accuracy    <       0.05320971 Ry

     iteration #  4     ecut=    50.00 Ry     beta= 0.70
     CG style diagonalization
     ethr =  8.31E-05,  avg # of iterations =  4.3

     total cpu time spent up to now is      383.8 secs

     total energy              =    -366.43475940 Ry
     Harris-Foulkes estimate   =    -366.43800407 Ry
     estimated scf accuracy    <       0.01010240 Ry

     iteration #  5     ecut=    50.00 Ry     beta= 0.70
     CG style diagonalization
     ethr =  1.58E-05,  avg # of iterations =  3.8

     total cpu time spent up to now is      470.5 secs

     total energy              =    -366.43764171 Ry
     Harris-Foulkes estimate   =    -366.43764862 Ry
     estimated scf accuracy    <       0.00016429 Ry

     iteration #  6     ecut=    50.00 Ry     beta= 0.70
     CG style diagonalization
     ethr =  2.57E-07,  avg # of iterations =  5.2

     total cpu time spent up to now is      585.7 secs

     total energy              =    -366.43785288 Ry
     Harris-Foulkes estimate   =    -366.43789636 Ry
     estimated scf accuracy    <       0.00010221 Ry

     iteration #  7     ecut=    50.00 Ry     beta= 0.70
     CG style diagonalization
     ethr =  1.60E-07,  avg # of iterations =  3.9

     total cpu time spent up to now is      672.7 secs

     total energy              =    -366.43788202 Ry
     Harris-Foulkes estimate   =    -366.43788666 Ry
     estimated scf accuracy    <       0.00001603 Ry

     iteration #  8     ecut=    50.00 Ry     beta= 0.70
     CG style diagonalization
     ethr =  2.50E-08,  avg # of iterations =  3.6

     total cpu time spent up to now is      753.7 secs

     End of self-consistent calculation

     Number of k-points >= 100: set verbosity='high' to print the bands.

     highest occupied level (ev):     1.4954

!    total energy              =    -366.43788316 Ry
     Harris-Foulkes estimate   =    -366.43788463 Ry
     estimated scf accuracy    <       0.00000186 Ry

     The total energy is the sum of the following terms:

     one-electron contribution =    -167.19396692 Ry
     hartree contribution      =     105.90356963 Ry
     xc contribution           =     -72.68141312 Ry
     ewald contribution        =    -232.46607275 Ry

     convergence has been achieved in   8 iterations

     Forces acting on atoms (cartesian axes, Ry/au):

     atom    1 type  1   force =     0.00000000    0.00000000    0.00000000
     atom    2 type  1   force =    -0.00000000    0.00000000   -0.00000000
     atom    3 type  2   force =     0.00000000   -0.00000000   -0.00000000
     atom    4 type  2   force =    -0.00000000    0.00000000   -0.00000000
     atom    5 type  3   force =    -0.12157203    0.21056894    0.00000000
     atom    6 type  3   force =     0.24314407    0.00000000   -0.00000000
     atom    7 type  3   force =    -0.12157203   -0.21056894   -0.00000000
     atom    8 type  3   force =    -0.24314407   -0.00000000    0.00000000
     atom    9 type  3   force =     0.12157203    0.21056894    0.00000000
     atom   10 type  3   force =     0.12157203   -0.21056894   -0.00000000

     Total force =     0.595579     Total SCF correction =     0.001821


     Computing stress (Cartesian axis) and pressure

          total   stress  (Ry/bohr**3)                   (kbar)     P= -286.66
  -0.00282331   0.00000000  -0.00000000       -415.32      0.00     -0.00
   0.00000000  -0.00282331  -0.00000000          0.00   -415.32     -0.00
  -0.00000000  -0.00000000  -0.00019940         -0.00     -0.00    -29.33


     BFGS Geometry Optimization

     number of scf cycles    =   1
     number of bfgs steps    =   0

     enthalpy new            =    -366.4378831634 Ry

     new trust radius        =       0.4934502584 bohr
     new conv_thr            =       0.0000100000 Ry

     new unit-cell volume =   1050.21862 a.u.^3 (   155.62634 Ang^3 )
     density =      2.13590 g/cm^3

CELL_PARAMETERS (alat= 12.00000000)
   0.464708589  -0.268299629   0.812426259
   0.000000000   0.536599258   0.812426259
  -0.464708589  -0.268299629   0.812426259

ATOMIC_POSITIONS (crystal)
Ca       0.500000000   0.500000000   0.500000000
Ca      -0.000000000   0.000000000   0.000000000
C        0.250000000   0.250000000   0.250000000
C        0.750000000   0.750000000   0.750000000
O        0.486638240   1.013361760   0.250000000
O        1.013361760   0.250000000   0.486638240
O        0.250000000   0.486638240   1.013361760
O       -0.013361760   0.750000000   0.513361760
O        0.750000000   0.513361760  -0.013361760
O        0.513361760  -0.013361760   0.750000000



     Writing output data file CCO_k.save/
     NEW-OLD atomic charge density approx. for the potential

     Check: negative core charge=   -0.000002
     extrapolated charge   53.54078, renormalised to   64.00000

     total cpu time spent up to now is      758.2 secs

     Self-consistent Calculation

     iteration #  1     ecut=    50.00 Ry     beta= 0.70
     CG style diagonalization
     c_bands:  2 eigenvalues not converged
     c_bands:  2 eigenvalues not converged
     c_bands:  3 eigenvalues not converged
     c_bands:  4 eigenvalues not converged
     c_bands:  3 eigenvalues not converged
     c_bands:  4 eigenvalues not converged
     c_bands:  3 eigenvalues not converged
     c_bands:  4 eigenvalues not converged
     c_bands:  4 eigenvalues not converged
     c_bands:  5 eigenvalues not converged
     c_bands:  4 eigenvalues not converged
     c_bands:  4 eigenvalues not converged
     c_bands:  5 eigenvalues not converged
     c_bands:  3 eigenvalues not converged
     c_bands:  4 eigenvalues not converged
     c_bands:  4 eigenvalues not converged
     c_bands:  5 eigenvalues not converged
     c_bands:  5 eigenvalues not converged
     c_bands:  4 eigenvalues not converged
     c_bands:  3 eigenvalues not converged
     c_bands:  4 eigenvalues not converged
     c_bands:  3 eigenvalues not converged
     c_bands:  5 eigenvalues not converged
     c_bands:  4 eigenvalues not converged
     c_bands:  2 eigenvalues not converged
     c_bands:  3 eigenvalues not converged
     c_bands:  5 eigenvalues not converged
     c_bands:  2 eigenvalues not converged
     c_bands:  1 eigenvalues not converged
     c_bands:  3 eigenvalues not converged
     c_bands:  2 eigenvalues not converged
     c_bands:  1 eigenvalues not converged
     c_bands:  1 eigenvalues not converged
     c_bands:  2 eigenvalues not converged
     c_bands:  3 eigenvalues not converged
     c_bands:  5 eigenvalues not converged
     c_bands:  4 eigenvalues not converged
     c_bands:  4 eigenvalues not converged
     c_bands:  5 eigenvalues not converged
     c_bands:  5 eigenvalues not converged
     c_bands:  3 eigenvalues not converged
     c_bands:  4 eigenvalues not converged
     c_bands:  3 eigenvalues not converged
     c_bands:  4 eigenvalues not converged
     c_bands:  4 eigenvalues not converged
     c_bands:  5 eigenvalues not converged
     c_bands:  5 eigenvalues not converged
     c_bands:  5 eigenvalues not converged
     c_bands:  4 eigenvalues not converged
     c_bands:  4 eigenvalues not converged
     c_bands:  5 eigenvalues not converged
     c_bands:  4 eigenvalues not converged
     c_bands:  5 eigenvalues not converged
     c_bands:  3 eigenvalues not converged
     c_bands:  4 eigenvalues not converged
     c_bands:  2 eigenvalues not converged
     c_bands:  4 eigenvalues not converged
     c_bands:  4 eigenvalues not converged
     c_bands:  5 eigenvalues not converged
     c_bands:  2 eigenvalues not converged
     c_bands:  3 eigenvalues not converged
     c_bands:  3 eigenvalues not converged
     c_bands:  2 eigenvalues not converged
     c_bands:  4 eigenvalues not converged
     c_bands:  1 eigenvalues not converged
     c_bands:  4 eigenvalues not converged
     c_bands:  2 eigenvalues not converged
     c_bands:  1 eigenvalues not converged
     c_bands:  4 eigenvalues not converged
     c_bands:  4 eigenvalues not converged
     c_bands:  4 eigenvalues not converged
     c_bands:  4 eigenvalues not converged
     c_bands:  4 eigenvalues not converged
     c_bands:  5 eigenvalues not converged
     c_bands:  2 eigenvalues not converged
     c_bands:  3 eigenvalues not converged
     c_bands:  3 eigenvalues not converged
     c_bands:  4 eigenvalues not converged
     c_bands:  3 eigenvalues not converged
     c_bands:  4 eigenvalues not converged
     c_bands:  3 eigenvalues not converged
     c_bands:  3 eigenvalues not converged
     c_bands:  2 eigenvalues not converged
     c_bands:  5 eigenvalues not converged
     c_bands:  5 eigenvalues not converged
     c_bands:  4 eigenvalues not converged
     c_bands:  4 eigenvalues not converged
     c_bands:  5 eigenvalues not converged
     c_bands:  4 eigenvalues not converged
     c_bands:  4 eigenvalues not converged
     c_bands:  5 eigenvalues not converged
     c_bands:  5 eigenvalues not converged
     c_bands:  4 eigenvalues not converged
     c_bands:  4 eigenvalues not converged
     c_bands:  4 eigenvalues not converged
     c_bands:  3 eigenvalues not converged
     c_bands:  3 eigenvalues not converged
     c_bands:  5 eigenvalues not converged
     c_bands:  4 eigenvalues not converged
     c_bands:  3 eigenvalues not converged
     c_bands:  2 eigenvalues not converged
     c_bands:  3 eigenvalues not converged
     c_bands:  2 eigenvalues not converged
     c_bands:  2 eigenvalues not converged
     c_bands:  4 eigenvalues not converged
     c_bands:  5 eigenvalues not converged
     c_bands:  4 eigenvalues not converged
     c_bands:  4 eigenvalues not converged
     c_bands:  5 eigenvalues not converged
     c_bands:  5 eigenvalues not converged
     c_bands:  4 eigenvalues not converged
     c_bands:  5 eigenvalues not converged
     c_bands:  3 eigenvalues not converged
     c_bands:  4 eigenvalues not converged
     c_bands:  2 eigenvalues not converged
     c_bands:  4 eigenvalues not converged
     c_bands:  5 eigenvalues not converged
     c_bands:  4 eigenvalues not converged
     c_bands:  5 eigenvalues not converged
     c_bands:  4 eigenvalues not converged
     c_bands:  4 eigenvalues not converged
     c_bands:  3 eigenvalues not converged
     c_bands:  4 eigenvalues not converged
     c_bands:  3 eigenvalues not converged
     c_bands:  5 eigenvalues not converged
     c_bands:  4 eigenvalues not converged
     c_bands:  3 eigenvalues not converged
     c_bands:  2 eigenvalues not converged
     c_bands:  4 eigenvalues not converged
     c_bands:  4 eigenvalues not converged
     c_bands:  2 eigenvalues not converged
     c_bands:  5 eigenvalues not converged
     c_bands:  4 eigenvalues not converged
     c_bands:  2 eigenvalues not converged
     c_bands:  3 eigenvalues not converged
     c_bands:  2 eigenvalues not converged
     c_bands:  3 eigenvalues not converged
     c_bands:  4 eigenvalues not converged
     c_bands:  4 eigenvalues not converged
     c_bands:  1 eigenvalues not converged
     c_bands:  3 eigenvalues not converged
     c_bands:  3 eigenvalues not converged
     c_bands:  1 eigenvalues not converged
     c_bands:  2 eigenvalues not converged
     c_bands:  3 eigenvalues not converged
     c_bands:  1 eigenvalues not converged
     c_bands:  1 eigenvalues not converged
     ethr =  1.00E-06,  avg # of iterations = 13.6

     total cpu time spent up to now is     1030.9 secs

     total energy              =    -360.78293070 Ry
     Harris-Foulkes estimate   =    -388.25591904 Ry
     estimated scf accuracy    <       5.66803425 Ry

     iteration #  2     ecut=    50.00 Ry     beta= 0.70
     CG style diagonalization
     ethr =  8.86E-03,  avg # of iterations =  5.4

     total cpu time spent up to now is     1149.7 secs

     total energy              =    -364.88068325 Ry
     Harris-Foulkes estimate   =    -373.43307591 Ry
     estimated scf accuracy    <      26.25667795 Ry

     iteration #  3     ecut=    50.00 Ry     beta= 0.70
     CG style diagonalization
     ethr =  8.86E-03,  avg # of iterations =  4.2

     total cpu time spent up to now is     1243.2 secs

     total energy              =    -367.22786562 Ry
     Harris-Foulkes estimate   =    -367.68245771 Ry
     estimated scf accuracy    <       1.76666327 Ry

     iteration #  4     ecut=    50.00 Ry     beta= 0.70
     CG style diagonalization
     ethr =  2.76E-03,  avg # of iterations =  3.1

     total cpu time spent up to now is     1315.3 secs

     total energy              =    -367.20095223 Ry
     Harris-Foulkes estimate   =    -367.34845529 Ry
     estimated scf accuracy    <       0.75728573 Ry

     iteration #  5     ecut=    50.00 Ry     beta= 0.70
     CG style diagonalization
     ethr =  1.18E-03,  avg # of iterations =  3.0

     total cpu time spent up to now is     1385.9 secs

     total energy              =    -367.10588342 Ry
     Harris-Foulkes estimate   =    -367.23787355 Ry
     estimated scf accuracy    <       0.34133335 Ry

     iteration #  6     ecut=    50.00 Ry     beta= 0.70
     CG style diagonalization
     ethr =  5.33E-04,  avg # of iterations =  3.7

     total cpu time spent up to now is     1470.0 secs

     total energy              =    -367.16814181 Ry
     Harris-Foulkes estimate   =    -367.16955497 Ry
     estimated scf accuracy    <       0.00338396 Ry

     iteration #  7     ecut=    50.00 Ry     beta= 0.70
     CG style diagonalization
     ethr =  5.29E-06,  avg # of iterations =  5.3

     total cpu time spent up to now is     1585.9 secs

     total energy              =    -367.17418843 Ry
     Harris-Foulkes estimate   =    -367.17528041 Ry
     estimated scf accuracy    <       0.00219160 Ry

     iteration #  8     ecut=    50.00 Ry     beta= 0.70
     CG style diagonalization
     ethr =  3.42E-06,  avg # of iterations =  3.9

     total cpu time spent up to now is     1674.3 secs

     total energy              =    -367.17460148 Ry
     Harris-Foulkes estimate   =    -367.17472898 Ry
     estimated scf accuracy    <       0.00021109 Ry

     iteration #  9     ecut=    50.00 Ry     beta= 0.70
     CG style diagonalization
     ethr =  3.30E-07,  avg # of iterations =  4.2

     total cpu time spent up to now is     1768.8 secs

     total energy              =    -367.17468048 Ry
     Harris-Foulkes estimate   =    -367.17470316 Ry
     estimated scf accuracy    <       0.00008665 Ry

     iteration # 10     ecut=    50.00 Ry     beta= 0.70
     CG style diagonalization
     ethr =  1.35E-07,  avg # of iterations =  3.3

     total cpu time spent up to now is     1844.0 secs

     total energy              =    -367.17467778 Ry
     Harris-Foulkes estimate   =    -367.17468655 Ry
     estimated scf accuracy    <       0.00002154 Ry

     iteration # 11     ecut=    50.00 Ry     beta= 0.70
     CG style diagonalization
     ethr =  3.37E-08,  avg # of iterations =  3.7

     total cpu time spent up to now is     1927.4 secs

     End of self-consistent calculation

     Number of k-points >= 100: set verbosity='high' to print the bands.

     highest occupied level (ev):     2.8510

!    total energy              =    -367.17468139 Ry
     Harris-Foulkes estimate   =    -367.17468262 Ry
     estimated scf accuracy    <       0.00000164 Ry

     The total energy is the sum of the following terms:

     one-electron contribution =    -166.20340438 Ry
     hartree contribution      =     108.18577660 Ry
     xc contribution           =     -74.05046420 Ry
     ewald contribution        =    -235.10658941 Ry

     convergence has been achieved in  11 iterations

     Forces acting on atoms (cartesian axes, Ry/au):

     atom    1 type  1   force =     0.00000000    0.00000000    0.00000000
     atom    2 type  1   force =     0.00000000    0.00000000    0.00000000
     atom    3 type  2   force =     0.00000000    0.00000000   -0.00000000
     atom    4 type  2   force =    -0.00000000   -0.00000000   -0.00000000
     atom    5 type  3   force =    -0.06971139    0.12074368    0.00000000
     atom    6 type  3   force =     0.13942279   -0.00000000    0.00000000
     atom    7 type  3   force =    -0.06971139   -0.12074368   -0.00000000
     atom    8 type  3   force =    -0.13942279    0.00000000   -0.00000000
     atom    9 type  3   force =     0.06971139    0.12074368    0.00000000
     atom   10 type  3   force =     0.06971139   -0.12074368   -0.00000000

     Total force =     0.341515     Total SCF correction =     0.002815


     Computing stress (Cartesian axis) and pressure

          total   stress  (Ry/bohr**3)                   (kbar)     P= -208.71
  -0.00204896  -0.00000000  -0.00000000       -301.41     -0.00     -0.00
   0.00000000  -0.00204896  -0.00000000          0.00   -301.41     -0.00
   0.00000000  -0.00000000  -0.00015849          0.00     -0.00    -23.31


     number of scf cycles    =   2
     number of bfgs steps    =   1

     enthalpy old            =    -366.4378831634 Ry
     enthalpy new            =    -367.1746813933 Ry

     CASE: enthalpy_new < enthalpy_old

     new trust radius        =       0.7383281562 bohr
     new conv_thr            =       0.0000100000 Ry

     new unit-cell volume =    818.23963 a.u.^3 (   121.25060 Ang^3 )
     density =      2.74145 g/cm^3

CELL_PARAMETERS (alat= 12.00000000)
   0.411771472  -0.237736370   0.806183006
   0.000000000   0.475472741   0.806183006
  -0.411771472  -0.237736370   0.806183006

ATOMIC_POSITIONS (crystal)
Ca       0.500000000   0.500000000   0.500000000
Ca      -0.000000000   0.000000000   0.000000000
C        0.250000000   0.250000000   0.250000000
C        0.750000000   0.750000000   0.750000000
O        0.462393381   1.037606619   0.250000000
O        1.037606619   0.250000000   0.462393381
O        0.250000000   0.462393381   1.037606619
O       -0.037606619   0.750000000   0.537606619
O        0.750000000   0.537606619  -0.037606619
O        0.537606619  -0.037606619   0.750000000



     Writing output data file CCO_k.save/
     NEW-OLD atomic charge density approx. for the potential

     Check: negative core charge=   -0.000003

     negative rho (up, down):  1.840E-03 0.000E+00
     extrapolated charge   45.85849, renormalised to   64.00000

     total cpu time spent up to now is     1931.9 secs

     Self-consistent Calculation

     iteration #  1     ecut=    50.00 Ry     beta= 0.70
     CG style diagonalization
     c_bands:  5 eigenvalues not converged
     c_bands:  2 eigenvalues not converged
     c_bands:  2 eigenvalues not converged
     c_bands:  4 eigenvalues not converged
     c_bands:  2 eigenvalues not converged
     c_bands:  4 eigenvalues not converged
     c_bands:  4 eigenvalues not converged
     c_bands:  4 eigenvalues not converged
     ethr =  1.00E-06,  avg # of iterations = 20.7

     negative rho (up, down):  2.828E-04 0.000E+00

     total cpu time spent up to now is     2348.6 secs

     total energy              =    -354.01291421 Ry
     Harris-Foulkes estimate   =    -406.14195437 Ry
     estimated scf accuracy    <      10.95207673 Ry

     iteration #  2     ecut=    50.00 Ry     beta= 0.70
     CG style diagonalization
     ethr =  1.00E-02,  avg # of iterations =  6.2

     total cpu time spent up to now is     2483.6 secs

     total energy              =    -360.21603038 Ry
     Harris-Foulkes estimate   =    -377.02709125 Ry
     estimated scf accuracy    <      53.05680858 Ry

     iteration #  3     ecut=    50.00 Ry     beta= 0.70
     CG style diagonalization
     ethr =  1.00E-02,  avg # of iterations =  4.7

     total cpu time spent up to now is     2588.0 secs

     total energy              =    -366.56456786 Ry
     Harris-Foulkes estimate   =    -367.77670529 Ry
     estimated scf accuracy    <       3.25995658 Ry

     iteration #  4     ecut=    50.00 Ry     beta= 0.70
     CG style diagonalization
     ethr =  5.09E-03,  avg # of iterations =  3.3

     total cpu time spent up to now is     2668.9 secs

     total energy              =    -366.50899261 Ry
     Harris-Foulkes estimate   =    -366.87772410 Ry
     estimated scf accuracy    <       1.07359541 Ry

     iteration #  5     ecut=    50.00 Ry     beta= 0.70
     CG style diagonalization
     ethr =  1.68E-03,  avg # of iterations =  3.4

     total cpu time spent up to now is     2747.6 secs

     total energy              =    -366.60679201 Ry
     Harris-Foulkes estimate   =    -366.65469148 Ry
     estimated scf accuracy    <       0.15002327 Ry

     iteration #  6     ecut=    50.00 Ry     beta= 0.70
     CG style diagonalization
     ethr =  2.34E-04,  avg # of iterations =  3.6

     total cpu time spent up to now is     2830.6 secs

     total energy              =    -366.62546072 Ry
     Harris-Foulkes estimate   =    -366.63339993 Ry
     estimated scf accuracy    <       0.02170526 Ry

     iteration #  7     ecut=    50.00 Ry     beta= 0.70
     CG style diagonalization
     ethr =  3.39E-05,  avg # of iterations =  3.7

     total cpu time spent up to now is     2916.5 secs

     total energy              =    -366.62919322 Ry
     Harris-Foulkes estimate   =    -366.62990218 Ry
     estimated scf accuracy    <       0.00234168 Ry

     iteration #  8     ecut=    50.00 Ry     beta= 0.70
     CG style diagonalization
     ethr =  3.66E-06,  avg # of iterations =  3.8

     total cpu time spent up to now is     3003.9 secs

     total energy              =    -366.62951032 Ry
     Harris-Foulkes estimate   =    -366.62977424 Ry
     estimated scf accuracy    <       0.00051882 Ry

     iteration #  9     ecut=    50.00 Ry     beta= 0.70
     CG style diagonalization
     ethr =  8.11E-07,  avg # of iterations =  3.7

     total cpu time spent up to now is     3089.1 secs

     total energy              =    -366.62958830 Ry
     Harris-Foulkes estimate   =    -366.62961891 Ry
     estimated scf accuracy    <       0.00004804 Ry

     iteration # 10     ecut=    50.00 Ry     beta= 0.70
     CG style diagonalization
     ethr =  7.51E-08,  avg # of iterations =  4.0

     total cpu time spent up to now is     3179.9 secs

     End of self-consistent calculation

     Number of k-points >= 100: set verbosity='high' to print the bands.

     highest occupied level (ev):     6.0175

!    total energy              =    -366.62960292 Ry
     Harris-Foulkes estimate   =    -366.62960638 Ry
     estimated scf accuracy    <       0.00000435 Ry

     The total energy is the sum of the following terms:

     one-electron contribution =    -171.65866449 Ry
     hartree contribution      =     116.23443304 Ry
     xc contribution           =     -76.99140702 Ry
     ewald contribution        =    -234.21396445 Ry

     convergence has been achieved in  10 iterations

     Forces acting on atoms (cartesian axes, Ry/au):

     atom    1 type  1   force =     0.00000000    0.00000000    0.00000000
     atom    2 type  1   force =     0.00000000    0.00000000    0.00000000
     atom    3 type  2   force =    -0.00000000    0.00000000   -0.00000000
     atom    4 type  2   force =     0.00000000    0.00000000   -0.00000000
     atom    5 type  3   force =     0.45587489   -0.78959847   -0.00000000
     atom    6 type  3   force =    -0.91174978    0.00000000   -0.00000000
     atom    7 type  3   force =     0.45587489    0.78959847    0.00000000
     atom    8 type  3   force =     0.91174978   -0.00000000    0.00000000
     atom    9 type  3   force =    -0.45587489   -0.78959847   -0.00000000
     atom   10 type  3   force =    -0.45587489    0.78959847    0.00000000

     Total force =     2.233322     Total SCF correction =     0.009623


     Computing stress (Cartesian axis) and pressure

          total   stress  (Ry/bohr**3)                   (kbar)     P=  618.35
   0.00630605  -0.00000000   0.00000000        927.65     -0.00      0.00
  -0.00000000   0.00630605   0.00000000         -0.00    927.65      0.00
   0.00000000   0.00000000  -0.00000173          0.00      0.00     -0.25


     number of scf cycles    =   3
     number of bfgs steps    =   2

     enthalpy old            =    -367.1746813933 Ry
     enthalpy new            =    -366.6296029182 Ry

     CASE: enthalpy_new > enthalpy_old

     new trust radius        =       0.2090112247 bohr
     new conv_thr            =       0.0000100000 Ry

     new unit-cell volume =    981.17559 a.u.^3 (   145.39522 Ang^3 )
     density =      2.28620 g/cm^3

CELL_PARAMETERS (alat= 12.00000000)
   0.449664856  -0.259614126   0.810652044
   0.000000000   0.519228251   0.810652044
  -0.449664856  -0.259614126   0.810652044

ATOMIC_POSITIONS (crystal)
Ca       0.500000000   0.500000000   0.500000000
Ca      -0.000000000   0.000000000   0.000000000
C        0.250000000   0.250000000   0.250000000
C        0.750000000   0.750000000   0.750000000
O        0.479748307   1.020251693   0.250000000
O        1.020251693   0.250000000   0.479748307
O        0.250000000   0.479748307   1.020251693
O       -0.020251693   0.750000000   0.520251693
O        0.750000000   0.520251693  -0.020251693
O        0.520251693  -0.020251693   0.750000000



     Writing output data file CCO_k.save/
     NEW-OLD atomic charge density approx. for the potential

     Check: negative core charge=   -0.000002
     extrapolated charge   74.62614, renormalised to   64.00000

     total cpu time spent up to now is     3185.4 secs

     Self-consistent Calculation

     iteration #  1     ecut=    50.00 Ry     beta= 0.70
     CG style diagonalization
     c_bands:  4 eigenvalues not converged
     c_bands:  2 eigenvalues not converged
     c_bands:  1 eigenvalues not converged
     c_bands:  2 eigenvalues not converged
     c_bands:  1 eigenvalues not converged
     c_bands:  1 eigenvalues not converged
     c_bands:  2 eigenvalues not converged
     c_bands:  1 eigenvalues not converged
     c_bands:  1 eigenvalues not converged
     c_bands:  1 eigenvalues not converged
     c_bands:  1 eigenvalues not converged
     c_bands:  1 eigenvalues not converged
     c_bands:  1 eigenvalues not converged
     c_bands:  1 eigenvalues not converged
     c_bands:  2 eigenvalues not converged
     c_bands:  1 eigenvalues not converged
     c_bands:  1 eigenvalues not converged
     c_bands:  1 eigenvalues not converged
     c_bands:  2 eigenvalues not converged
     c_bands:  1 eigenvalues not converged
     c_bands:  1 eigenvalues not converged
     c_bands:  2 eigenvalues not converged
     c_bands:  1 eigenvalues not converged
     c_bands:  1 eigenvalues not converged
     c_bands:  1 eigenvalues not converged
     c_bands:  2 eigenvalues not converged
     c_bands:  1 eigenvalues not converged
     c_bands:  1 eigenvalues not converged
     c_bands:  1 eigenvalues not converged
     c_bands:  1 eigenvalues not converged
     c_bands:  1 eigenvalues not converged
     c_bands:  1 eigenvalues not converged
     c_bands:  1 eigenvalues not converged
     c_bands:  1 eigenvalues not converged
     c_bands:  1 eigenvalues not converged
     c_bands:  1 eigenvalues not converged
     c_bands:  1 eigenvalues not converged
     c_bands:  1 eigenvalues not converged
     c_bands:  2 eigenvalues not converged
     ethr =  1.00E-06,  avg # of iterations = 24.9

     total cpu time spent up to now is     3680.1 secs

     total energy              =    -350.46106067 Ry
     Harris-Foulkes estimate   =    -348.42337145 Ry
     estimated scf accuracy    <      15.11525848 Ry

     iteration #  2     ecut=    50.00 Ry     beta= 0.70
     CG style diagonalization
     ethr =  1.00E-02,  avg # of iterations =  6.0

     total cpu time spent up to now is     3810.9 secs

     total energy              =    -367.73966752 Ry
     Harris-Foulkes estimate   =    -379.54079404 Ry
     estimated scf accuracy    <      27.90560851 Ry

     iteration #  3     ecut=    50.00 Ry     beta= 0.70
     CG style diagonalization
     ethr =  1.00E-02,  avg # of iterations =  3.8

     total cpu time spent up to now is     3897.7 secs

     total energy              =    -368.17287272 Ry
     Harris-Foulkes estimate   =    -369.66303292 Ry
     estimated scf accuracy    <       5.38001599 Ry

     iteration #  4     ecut=    50.00 Ry     beta= 0.70
     CG style diagonalization
     ethr =  8.41E-03,  avg # of iterations =  3.0

     total cpu time spent up to now is     3968.0 secs

     total energy              =    -367.81648241 Ry
     Harris-Foulkes estimate   =    -368.27847817 Ry
     estimated scf accuracy    <       2.74123585 Ry

     iteration #  5     ecut=    50.00 Ry     beta= 0.70
     CG style diagonalization
     ethr =  4.28E-03,  avg # of iterations =  3.0

     total cpu time spent up to now is     4038.1 secs

     total energy              =    -367.92674928 Ry
     Harris-Foulkes estimate   =    -367.86306581 Ry
     estimated scf accuracy    <       1.66668488 Ry

     iteration #  6     ecut=    50.00 Ry     beta= 0.70
     CG style diagonalization
     ethr =  2.60E-03,  avg # of iterations =  3.0

     total cpu time spent up to now is     4109.1 secs

     total energy              =    -366.99076113 Ry
     Harris-Foulkes estimate   =    -367.93605975 Ry
     estimated scf accuracy    <       1.78859345 Ry

     iteration #  7     ecut=    50.00 Ry     beta= 0.70
     CG style diagonalization
     ethr =  2.60E-03,  avg # of iterations =  3.6

     total cpu time spent up to now is     4190.8 secs

     total energy              =    -367.31189508 Ry
     Harris-Foulkes estimate   =    -367.32210659 Ry
     estimated scf accuracy    <       0.07523013 Ry

     iteration #  8     ecut=    50.00 Ry     beta= 0.70
     CG style diagonalization
     ethr =  1.18E-04,  avg # of iterations =  3.8

     total cpu time spent up to now is     4277.1 secs

     total energy              =    -367.33575373 Ry
     Harris-Foulkes estimate   =    -367.33479647 Ry
     estimated scf accuracy    <       0.06952683 Ry

     iteration #  9     ecut=    50.00 Ry     beta= 0.70
     CG style diagonalization
     ethr =  1.09E-04,  avg # of iterations =  3.0

     total cpu time spent up to now is     4347.0 secs

     total energy              =    -367.32755146 Ry
     Harris-Foulkes estimate   =    -367.33655592 Ry
     estimated scf accuracy    <       0.07039183 Ry

     iteration # 10     ecut=    50.00 Ry     beta= 0.70
     CG style diagonalization
     ethr =  1.09E-04,  avg # of iterations =  3.2

     total cpu time spent up to now is     4422.7 secs

     total energy              =    -367.33886834 Ry
     Harris-Foulkes estimate   =    -367.33222262 Ry
     estimated scf accuracy    <       0.06546203 Ry

     iteration # 11     ecut=    50.00 Ry     beta= 0.70
     CG style diagonalization
     ethr =  1.02E-04,  avg # of iterations =  3.6

     total cpu time spent up to now is     4504.5 secs

     total energy              =    -367.36269888 Ry
     Harris-Foulkes estimate   =    -367.34810234 Ry
     estimated scf accuracy    <       0.12235011 Ry

     iteration # 12     ecut=    50.00 Ry     beta= 0.70
     CG style diagonalization
     ethr =  1.02E-04,  avg # of iterations =  3.6

     total cpu time spent up to now is     4587.0 secs

     total energy              =    -367.37786109 Ry
     Harris-Foulkes estimate   =    -367.37523744 Ry
     estimated scf accuracy    <       0.21724872 Ry

     iteration # 13     ecut=    50.00 Ry     beta= 0.70
     CG style diagonalization
     ethr =  1.02E-04,  avg # of iterations =  3.0

     total cpu time spent up to now is     4657.0 secs

     total energy              =    -367.38203453 Ry
     Harris-Foulkes estimate   =    -367.37905064 Ry
     estimated scf accuracy    <       0.23262371 Ry

     iteration # 14     ecut=    50.00 Ry     beta= 0.70
     CG style diagonalization
     ethr =  1.02E-04,  avg # of iterations =  3.0

     total cpu time spent up to now is     4727.8 secs

     total energy              =    -367.37762336 Ry
     Harris-Foulkes estimate   =    -367.38240487 Ry
     estimated scf accuracy    <       0.24575473 Ry

     iteration # 15     ecut=    50.00 Ry     beta= 0.70
     CG style diagonalization
     ethr =  1.02E-04,  avg # of iterations =  3.0

     total cpu time spent up to now is     4798.1 secs

     total energy              =    -367.30293565 Ry
     Harris-Foulkes estimate   =    -367.37774375 Ry
     estimated scf accuracy    <       0.23713881 Ry

     iteration # 16     ecut=    50.00 Ry     beta= 0.70
     CG style diagonalization
     ethr =  1.02E-04,  avg # of iterations =  3.7

     total cpu time spent up to now is     4882.7 secs

     total energy              =    -367.30458421 Ry
     Harris-Foulkes estimate   =    -367.32263930 Ry
     estimated scf accuracy    <       0.03081064 Ry

     iteration # 17     ecut=    50.00 Ry     beta= 0.70
     CG style diagonalization
     ethr =  4.81E-05,  avg # of iterations =  4.1

     total cpu time spent up to now is     4974.6 secs

     total energy              =    -367.31302553 Ry
     Harris-Foulkes estimate   =    -367.31855136 Ry
     estimated scf accuracy    <       0.01112257 Ry

     iteration # 18     ecut=    50.00 Ry     beta= 0.70
     CG style diagonalization
     ethr =  1.74E-05,  avg # of iterations =  3.6

     total cpu time spent up to now is     5057.1 secs

     total energy              =    -367.31527752 Ry
     Harris-Foulkes estimate   =    -367.31529218 Ry
     estimated scf accuracy    <       0.00053201 Ry

     iteration # 19     ecut=    50.00 Ry     beta= 0.70
     CG style diagonalization
     ethr =  8.31E-07,  avg # of iterations =  4.1

     total cpu time spent up to now is     5148.9 secs

     total energy              =    -367.31536867 Ry
     Harris-Foulkes estimate   =    -367.31548665 Ry
     estimated scf accuracy    <       0.00059349 Ry

     iteration # 20     ecut=    50.00 Ry     beta= 0.70
     CG style diagonalization
     ethr =  8.31E-07,  avg # of iterations =  3.0

     total cpu time spent up to now is     5219.1 secs

     total energy              =    -367.31523356 Ry
     Harris-Foulkes estimate   =    -367.31538341 Ry
     estimated scf accuracy    <       0.00050187 Ry

     iteration # 21     ecut=    50.00 Ry     beta= 0.70
     CG style diagonalization
     ethr =  7.84E-07,  avg # of iterations =  3.3

     total cpu time spent up to now is     5296.3 secs

     total energy              =    -367.31529932 Ry
     Harris-Foulkes estimate   =    -367.31528468 Ry
     estimated scf accuracy    <       0.00005585 Ry

     iteration # 22     ecut=    50.00 Ry     beta= 0.70
     CG style diagonalization
     ethr =  8.73E-08,  avg # of iterations =  3.8

     total cpu time spent up to now is     5383.1 secs

     total energy              =    -367.31527734 Ry
     Harris-Foulkes estimate   =    -367.31532093 Ry
     estimated scf accuracy    <       0.00010372 Ry

     iteration # 23     ecut=    50.00 Ry     beta= 0.70
     CG style diagonalization
     ethr =  8.73E-08,  avg # of iterations =  3.8

     total cpu time spent up to now is     5468.8 secs

     End of self-consistent calculation

     Number of k-points >= 100: set verbosity='high' to print the bands.

     highest occupied level (ev):     3.5764

!    total energy              =    -367.31528728 Ry
     Harris-Foulkes estimate   =    -367.31529355 Ry
     estimated scf accuracy    <       0.00000765 Ry

     The total energy is the sum of the following terms:

     one-electron contribution =    -166.40385446 Ry
     hartree contribution      =     109.62945803 Ry
     xc contribution           =     -74.74892268 Ry
     ewald contribution        =    -235.79196816 Ry

     convergence has been achieved in  23 iterations

     Forces acting on atoms (cartesian axes, Ry/au):

     atom    1 type  1   force =     0.00000000    0.00000000    0.00000000
     atom    2 type  1   force =     0.00000000    0.00000000    0.00000000
     atom    3 type  2   force =    -0.00000000   -0.00000000   -0.00000000
     atom    4 type  2   force =     0.00000000   -0.00000000    0.00000000
     atom    5 type  3   force =    -0.00056692    0.00098194    0.00000000
     atom    6 type  3   force =     0.00113385   -0.00000000    0.00000000
     atom    7 type  3   force =    -0.00056692   -0.00098194   -0.00000000
     atom    8 type  3   force =    -0.00113385    0.00000000   -0.00000000
     atom    9 type  3   force =     0.00056692    0.00098194    0.00000000
     atom   10 type  3   force =     0.00056692   -0.00098194   -0.00000000

     Total force =     0.002777     Total SCF correction =     0.001218
     SCF correction compared to forces is large: reduce conv_thr to get better values


     Computing stress (Cartesian axis) and pressure

          total   stress  (Ry/bohr**3)                   (kbar)     P= -103.36
  -0.00098217   0.00000000  -0.00000000       -144.48      0.00     -0.00
   0.00000000  -0.00098217  -0.00000000          0.00   -144.48     -0.00
   0.00000000  -0.00000000  -0.00014349          0.00     -0.00    -21.11


     number of scf cycles    =   4
     number of bfgs steps    =   2

     enthalpy old            =    -367.1746813933 Ry
     enthalpy new            =    -367.3152872760 Ry

     CASE: enthalpy_new < enthalpy_old

     new trust radius        =       0.1979180338 bohr
     new conv_thr            =       0.0000001134 Ry

     new unit-cell volume =    916.46532 a.u.^3 (   135.80615 Ang^3 )
     density =      2.44762 g/cm^3

CELL_PARAMETERS (alat= 12.00000000)
   0.435458884  -0.251412304   0.807397434
   0.000000000   0.502824608   0.807397434
  -0.435458884  -0.251412304   0.807397434

ATOMIC_POSITIONS (crystal)
Ca       0.500000000   0.500000000   0.500000000
Ca      -0.000000000   0.000000000  -0.000000000
C        0.250000000   0.250000000   0.250000000
C        0.750000000   0.750000000   0.750000000
O        0.480340331   1.019659669   0.250000000
O        1.019659669   0.250000000   0.480340331
O        0.250000000   0.480340331   1.019659669
O       -0.019659669   0.750000000   0.519659669
O        0.750000000   0.519659669  -0.019659669
O        0.519659669  -0.019659669   0.750000000



     Writing output data file CCO_k.save/
     NEW-OLD atomic charge density approx. for the potential

     Check: negative core charge=   -0.000003
     extrapolated charge   59.48183, renormalised to   64.00000

     total cpu time spent up to now is     5473.2 secs

     Self-consistent Calculation

     iteration #  1     ecut=    50.00 Ry     beta= 0.70
     CG style diagonalization
     c_bands:  2 eigenvalues not converged
     c_bands:  2 eigenvalues not converged
     c_bands:  2 eigenvalues not converged
     c_bands:  4 eigenvalues not converged
     c_bands:  5 eigenvalues not converged
     c_bands:  5 eigenvalues not converged
     c_bands:  4 eigenvalues not converged
     c_bands:  4 eigenvalues not converged
     c_bands:  5 eigenvalues not converged
     c_bands:  5 eigenvalues not converged
     c_bands:  5 eigenvalues not converged
     c_bands:  3 eigenvalues not converged
     c_bands:  5 eigenvalues not converged
     c_bands:  5 eigenvalues not converged
     c_bands:  3 eigenvalues not converged
     c_bands:  1 eigenvalues not converged
     c_bands:  4 eigenvalues not converged
     c_bands:  5 eigenvalues not converged
     c_bands:  4 eigenvalues not converged
     c_bands:  5 eigenvalues not converged
     c_bands:  5 eigenvalues not converged
     c_bands:  5 eigenvalues not converged
     c_bands:  5 eigenvalues not converged
     c_bands:  5 eigenvalues not converged
     c_bands:  4 eigenvalues not converged
     c_bands:  5 eigenvalues not converged
     c_bands:  5 eigenvalues not converged
     c_bands:  5 eigenvalues not converged
     c_bands:  4 eigenvalues not converged
     c_bands:  3 eigenvalues not converged
     c_bands:  5 eigenvalues not converged
     c_bands:  4 eigenvalues not converged
     c_bands:  4 eigenvalues not converged
     c_bands:  5 eigenvalues not converged
     c_bands:  4 eigenvalues not converged
     c_bands:  5 eigenvalues not converged
     c_bands:  4 eigenvalues not converged
     c_bands:  2 eigenvalues not converged
     c_bands:  5 eigenvalues not converged
     c_bands:  5 eigenvalues not converged
     c_bands:  4 eigenvalues not converged
     c_bands:  5 eigenvalues not converged
     c_bands:  4 eigenvalues not converged
     c_bands:  5 eigenvalues not converged
     c_bands:  5 eigenvalues not converged
     c_bands:  5 eigenvalues not converged
     c_bands:  4 eigenvalues not converged
     c_bands:  3 eigenvalues not converged
     c_bands:  5 eigenvalues not converged
     c_bands:  3 eigenvalues not converged
     c_bands:  4 eigenvalues not converged
     c_bands:  4 eigenvalues not converged
     ethr =  1.00E-06,  avg # of iterations = 15.8

     total cpu time spent up to now is     5794.5 secs

     total energy              =    -366.20608992 Ry
     Harris-Foulkes estimate   =    -376.16915577 Ry
     estimated scf accuracy    <       0.84638920 Ry

     iteration #  2     ecut=    50.00 Ry     beta= 0.70
     CG style diagonalization
     ethr =  1.32E-03,  avg # of iterations =  5.1

     total cpu time spent up to now is     5908.5 secs

     total energy              =    -367.18880047 Ry
     Harris-Foulkes estimate   =    -368.29804322 Ry
     estimated scf accuracy    <       3.22675865 Ry

     iteration #  3     ecut=    50.00 Ry     beta= 0.70
     CG style diagonalization
     ethr =  1.32E-03,  avg # of iterations =  4.0

     total cpu time spent up to now is     5999.6 secs

     total energy              =    -367.37448064 Ry
     Harris-Foulkes estimate   =    -367.45640869 Ry
     estimated scf accuracy    <       0.34785476 Ry

     iteration #  4     ecut=    50.00 Ry     beta= 0.70
     CG style diagonalization
     ethr =  5.44E-04,  avg # of iterations =  3.0

     total cpu time spent up to now is     6069.7 secs

     total energy              =    -367.34842238 Ry
     Harris-Foulkes estimate   =    -367.38642344 Ry
     estimated scf accuracy    <       0.15520925 Ry

     iteration #  5     ecut=    50.00 Ry     beta= 0.70
     CG style diagonalization
     ethr =  2.43E-04,  avg # of iterations =  3.3

     total cpu time spent up to now is     6145.4 secs

     total energy              =    -367.35050883 Ry
     Harris-Foulkes estimate   =    -367.36108586 Ry
     estimated scf accuracy    <       0.03279639 Ry

     iteration #  6     ecut=    50.00 Ry     beta= 0.70
     CG style diagonalization
     ethr =  5.12E-05,  avg # of iterations =  3.2

     total cpu time spent up to now is     6221.4 secs

     total energy              =    -367.35180983 Ry
     Harris-Foulkes estimate   =    -367.35328851 Ry
     estimated scf accuracy    <       0.00675065 Ry

     iteration #  7     ecut=    50.00 Ry     beta= 0.70
     CG style diagonalization
     ethr =  1.05E-05,  avg # of iterations =  3.3

     total cpu time spent up to now is     6298.7 secs

     total energy              =    -367.35217503 Ry
     Harris-Foulkes estimate   =    -367.35255000 Ry
     estimated scf accuracy    <       0.00244331 Ry

     iteration #  8     ecut=    50.00 Ry     beta= 0.70
     CG style diagonalization
     ethr =  3.82E-06,  avg # of iterations =  3.4

     total cpu time spent up to now is     6377.4 secs

     total energy              =    -367.35219940 Ry
     Harris-Foulkes estimate   =    -367.35249609 Ry
     estimated scf accuracy    <       0.00094075 Ry

     iteration #  9     ecut=    50.00 Ry     beta= 0.70
     CG style diagonalization
     ethr =  1.47E-06,  avg # of iterations =  3.4

     total cpu time spent up to now is     6455.2 secs

     total energy              =    -367.35217948 Ry
     Harris-Foulkes estimate   =    -367.35229352 Ry
     estimated scf accuracy    <       0.00019156 Ry

     iteration # 10     ecut=    50.00 Ry     beta= 0.70
     CG style diagonalization
     ethr =  2.99E-07,  avg # of iterations =  4.1

     total cpu time spent up to now is     6550.9 secs

     total energy              =    -367.35224644 Ry
     Harris-Foulkes estimate   =    -367.35227141 Ry
     estimated scf accuracy    <       0.00004798 Ry

     iteration # 11     ecut=    50.00 Ry     beta= 0.70
     CG style diagonalization
     ethr =  7.50E-08,  avg # of iterations =  3.8

     total cpu time spent up to now is     6636.6 secs

     total energy              =    -367.35226170 Ry
     Harris-Foulkes estimate   =    -367.35226247 Ry
     estimated scf accuracy    <       0.00000216 Ry

     iteration # 12     ecut=    50.00 Ry     beta= 0.70
     CG style diagonalization
     ethr =  3.38E-09,  avg # of iterations =  3.9

     total cpu time spent up to now is     6724.4 secs

     total energy              =    -367.35226256 Ry
     Harris-Foulkes estimate   =    -367.35226262 Ry
     estimated scf accuracy    <       0.00000015 Ry

     iteration # 13     ecut=    50.00 Ry     beta= 0.70
     CG style diagonalization
     ethr =  2.40E-10,  avg # of iterations =  3.8

     total cpu time spent up to now is     6811.8 secs

     End of self-consistent calculation

     Number of k-points >= 100: set verbosity='high' to print the bands.

     highest occupied level (ev):     4.1770

!    total energy              =    -367.35226256 Ry
     Harris-Foulkes estimate   =    -367.35226259 Ry
     estimated scf accuracy    <       0.00000005 Ry

     The total energy is the sum of the following terms:

     one-electron contribution =    -160.05207199 Ry
     hartree contribution      =     107.89903087 Ry
     xc contribution           =     -75.18502932 Ry
     ewald contribution        =    -240.01419212 Ry

     convergence has been achieved in  13 iterations

     Forces acting on atoms (cartesian axes, Ry/au):

     atom    1 type  1   force =     0.00000000    0.00000000    0.00000000
     atom    2 type  1   force =     0.00000000    0.00000000    0.00000000
     atom    3 type  2   force =    -0.00000000    0.00000000   -0.00000000
     atom    4 type  2   force =     0.00000000    0.00000000    0.00000000
     atom    5 type  3   force =     0.04425781   -0.07665678   -0.00000000
     atom    6 type  3   force =    -0.08851562    0.00000000   -0.00000000
     atom    7 type  3   force =     0.04425781    0.07665678    0.00000000
     atom    8 type  3   force =     0.08851562   -0.00000000    0.00000000
     atom    9 type  3   force =    -0.04425781   -0.07665678   -0.00000000
     atom   10 type  3   force =    -0.04425781    0.07665678    0.00000000

     Total force =     0.216818     Total SCF correction =     0.000267


     Computing stress (Cartesian axis) and pressure

          total   stress  (Ry/bohr**3)                   (kbar)     P=  -14.14
  -0.00012107   0.00000000  -0.00000000        -17.81      0.00     -0.00
   0.00000000  -0.00012107  -0.00000000          0.00    -17.81     -0.00
  -0.00000000  -0.00000000  -0.00004623         -0.00     -0.00     -6.80


     number of scf cycles    =   5
     number of bfgs steps    =   3

     enthalpy old            =    -367.3152872760 Ry
     enthalpy new            =    -367.3522625578 Ry

     CASE: enthalpy_new < enthalpy_old

     new trust radius        =       0.1625696921 bohr
     new conv_thr            =       0.0000088516 Ry

     new unit-cell volume =    864.97987 a.u.^3 (   128.17679 Ang^3 )
     density =      2.59331 g/cm^3

CELL_PARAMETERS (alat= 12.00000000)
   0.423766617  -0.244661770   0.804670644
   0.000000000   0.489323540   0.804670644
  -0.423766617  -0.244661770   0.804670644

ATOMIC_POSITIONS (crystal)
Ca       0.500000000   0.500000000   0.500000000
Ca      -0.000000000   0.000000000  -0.000000000
C        0.250000000   0.250000000   0.250000000
C        0.750000000   0.750000000   0.750000000
O        0.486348797   1.013651203   0.250000000
O        1.013651203   0.250000000   0.486348797
O        0.250000000   0.486348797   1.013651203
O       -0.013651203   0.750000000   0.513651203
O        0.750000000   0.513651203  -0.013651203
O        0.513651203  -0.013651203   0.750000000



     Writing output data file CCO_k.save/
     NEW-OLD atomic charge density approx. for the potential

     Check: negative core charge=   -0.000003
     extrapolated charge   60.19124, renormalised to   64.00000

     total cpu time spent up to now is     6816.9 secs

     Self-consistent Calculation

     iteration #  1     ecut=    50.00 Ry     beta= 0.70
     CG style diagonalization
     c_bands:  2 eigenvalues not converged
     c_bands:  5 eigenvalues not converged
     c_bands:  4 eigenvalues not converged
     c_bands:  5 eigenvalues not converged
     c_bands:  5 eigenvalues not converged
     c_bands:  5 eigenvalues not converged
     c_bands:  4 eigenvalues not converged
     c_bands:  2 eigenvalues not converged
     c_bands:  4 eigenvalues not converged
     c_bands:  4 eigenvalues not converged
     c_bands:  2 eigenvalues not converged
     c_bands:  3 eigenvalues not converged
     c_bands:  1 eigenvalues not converged
     c_bands:  4 eigenvalues not converged
     c_bands:  3 eigenvalues not converged
     c_bands:  5 eigenvalues not converged
     c_bands:  4 eigenvalues not converged
     c_bands:  5 eigenvalues not converged
     c_bands:  5 eigenvalues not converged
     c_bands:  5 eigenvalues not converged
     c_bands:  5 eigenvalues not converged
     c_bands:  4 eigenvalues not converged
     c_bands:  5 eigenvalues not converged
     c_bands:  3 eigenvalues not converged
     c_bands:  4 eigenvalues not converged
     c_bands:  4 eigenvalues not converged
     c_bands:  3 eigenvalues not converged
     c_bands:  5 eigenvalues not converged
     c_bands:  5 eigenvalues not converged
     c_bands:  3 eigenvalues not converged
     c_bands:  4 eigenvalues not converged
     c_bands:  4 eigenvalues not converged
     c_bands:  5 eigenvalues not converged
     c_bands:  3 eigenvalues not converged
     c_bands:  3 eigenvalues not converged
     c_bands:  4 eigenvalues not converged
     c_bands:  5 eigenvalues not converged
     c_bands:  5 eigenvalues not converged
     c_bands:  4 eigenvalues not converged
     c_bands:  4 eigenvalues not converged
     c_bands:  4 eigenvalues not converged
     c_bands:  4 eigenvalues not converged
     c_bands:  5 eigenvalues not converged
     c_bands:  4 eigenvalues not converged
     c_bands:  3 eigenvalues not converged
     c_bands:  5 eigenvalues not converged
     c_bands:  2 eigenvalues not converged
     c_bands:  5 eigenvalues not converged
     c_bands:  4 eigenvalues not converged
     c_bands:  3 eigenvalues not converged
     c_bands:  5 eigenvalues not converged
     c_bands:  4 eigenvalues not converged
     c_bands:  2 eigenvalues not converged
     c_bands:  4 eigenvalues not converged
     c_bands:  3 eigenvalues not converged
     c_bands:  3 eigenvalues not converged
     c_bands:  4 eigenvalues not converged
     ethr =  1.00E-06,  avg # of iterations = 15.2

     total cpu time spent up to now is     7125.0 secs

     total energy              =    -366.66625415 Ry
     Harris-Foulkes estimate   =    -374.31081781 Ry
     estimated scf accuracy    <       0.48344974 Ry

     iteration #  2     ecut=    50.00 Ry     beta= 0.70
     CG style diagonalization
     ethr =  7.55E-04,  avg # of iterations =  5.1

     total cpu time spent up to now is     7238.6 secs

     total energy              =    -367.33080961 Ry
     Harris-Foulkes estimate   =    -367.96081920 Ry
     estimated scf accuracy    <       1.84578693 Ry

     iteration #  3     ecut=    50.00 Ry     beta= 0.70
     CG style diagonalization
     ethr =  7.55E-04,  avg # of iterations =  3.9

     total cpu time spent up to now is     7328.2 secs

     total energy              =    -367.40047566 Ry
     Harris-Foulkes estimate   =    -367.46166283 Ry
     estimated scf accuracy    <       0.24921508 Ry

     iteration #  4     ecut=    50.00 Ry     beta= 0.70
     CG style diagonalization
     ethr =  3.89E-04,  avg # of iterations =  3.0

     total cpu time spent up to now is     7399.5 secs

     total energy              =    -367.38046302 Ry
     Harris-Foulkes estimate   =    -367.40864281 Ry
     estimated scf accuracy    <       0.10275206 Ry

     iteration #  5     ecut=    50.00 Ry     beta= 0.70
     CG style diagonalization
     ethr =  1.61E-04,  avg # of iterations =  3.3

     total cpu time spent up to now is     7475.1 secs

     total energy              =    -367.38311236 Ry
     Harris-Foulkes estimate   =    -367.38939177 Ry
     estimated scf accuracy    <       0.01957262 Ry

     iteration #  6     ecut=    50.00 Ry     beta= 0.70
     CG style diagonalization
     ethr =  3.06E-05,  avg # of iterations =  3.3

     total cpu time spent up to now is     7551.4 secs

     total energy              =    -367.38466337 Ry
     Harris-Foulkes estimate   =    -367.38485027 Ry
     estimated scf accuracy    <       0.00405680 Ry

     iteration #  7     ecut=    50.00 Ry     beta= 0.70
     CG style diagonalization
     ethr =  6.34E-06,  avg # of iterations =  3.2

     total cpu time spent up to now is     7626.3 secs

     total energy              =    -367.38434976 Ry
     Harris-Foulkes estimate   =    -367.38495595 Ry
     estimated scf accuracy    <       0.00357146 Ry

     iteration #  8     ecut=    50.00 Ry     beta= 0.70
     CG style diagonalization
     ethr =  5.58E-06,  avg # of iterations =  3.0

     total cpu time spent up to now is     7697.7 secs

     total energy              =    -367.38370526 Ry
     Harris-Foulkes estimate   =    -367.38450283 Ry
     estimated scf accuracy    <       0.00179789 Ry

     iteration #  9     ecut=    50.00 Ry     beta= 0.70
     CG style diagonalization
     ethr =  2.81E-06,  avg # of iterations =  3.6

     total cpu time spent up to now is     7780.7 secs

     total energy              =    -367.38405665 Ry
     Harris-Foulkes estimate   =    -367.38405797 Ry
     estimated scf accuracy    <       0.00001801 Ry

     iteration # 10     ecut=    50.00 Ry     beta= 0.70
     CG style diagonalization
     ethr =  2.81E-08,  avg # of iterations =  5.3

     total cpu time spent up to now is     7897.0 secs

     total energy              =    -367.38409117 Ry
     Harris-Foulkes estimate   =    -367.38411037 Ry
     estimated scf accuracy    <       0.00004503 Ry

     iteration # 11     ecut=    50.00 Ry     beta= 0.70
     CG style diagonalization
     ethr =  2.81E-08,  avg # of iterations =  3.9

     total cpu time spent up to now is     7985.6 secs

     End of self-consistent calculation

     Number of k-points >= 100: set verbosity='high' to print the bands.

     highest occupied level (ev):     4.5930

!    total energy              =    -367.38409478 Ry
     Harris-Foulkes estimate   =    -367.38409846 Ry
     estimated scf accuracy    <       0.00000513 Ry

     The total energy is the sum of the following terms:

     one-electron contribution =    -149.60146866 Ry
     hartree contribution      =     103.99426398 Ry
     xc contribution           =     -75.33794961 Ry
     ewald contribution        =    -246.43894049 Ry

     convergence has been achieved in  11 iterations

     Forces acting on atoms (cartesian axes, Ry/au):

     atom    1 type  1   force =     0.00000000    0.00000000    0.00000000
     atom    2 type  1   force =     0.00000000    0.00000000    0.00000000
     atom    3 type  2   force =     0.00000000    0.00000000    0.00000000
     atom    4 type  2   force =     0.00000000    0.00000000    0.00000000
     atom    5 type  3   force =     0.04180515   -0.07240864   -0.00000000
     atom    6 type  3   force =    -0.08361030    0.00000000   -0.00000000
     atom    7 type  3   force =     0.04180515    0.07240864    0.00000000
     atom    8 type  3   force =     0.08361030   -0.00000000    0.00000000
     atom    9 type  3   force =    -0.04180515   -0.07240864   -0.00000000
     atom   10 type  3   force =    -0.04180515    0.07240864    0.00000000

     Total force =     0.204803     Total SCF correction =     0.003901


     Computing stress (Cartesian axis) and pressure

          total   stress  (Ry/bohr**3)                   (kbar)     P=   17.83
[...]
     Message from routine sym_rho_init:
     some processors have no G-vectors for symmetrization
     Message from routine sym_rho_init:
     some processors have no G-vectors for symmetrization
     Message from routine sym_rho_init:
     some processors have no G-vectors for symmetrization
     Message from routine sym_rho_init:
     some processors have no G-vectors for symmetrization
     Message from routine sym_rho_init:
     some processors have no G-vectors for symmetrization
     Message from routine sym_rho_init:
     some processors have no G-vectors for symmetrization
     Message from routine sym_rho_init:
     some processors have no G-vectors for symmetrization
     Message from routine sym_rho_init:
     some processors have no G-vectors for symmetrization
     Message from routine sym_rho_init:
     some processors have no G-vectors for symmetrization
     Message from routine sym_rho_init:
     some processors have no G-vectors for symmetrization
     Message from routine sym_rho_init:
     some processors have no G-vectors for symmetrization
     Message from routine sym_rho_init:
     some processors have no G-vectors for symmetrization
     Message from routine sym_rho_init:
     some processors have no G-vectors for symmetrization
     Message from routine sym_rho_init:
     some processors have no G-vectors for symmetrization
     Message from routine sym_rho_init:
     some processors have no G-vectors for symmetrization
     Message from routine sym_rho_init:
     some processors have no G-vectors for symmetrization
     Message from routine sym_rho_init:
     some processors have no G-vectors for symmetrization
     Message from routine sym_rho_init:
     some processors have no G-vectors for symmetrization
     Message from routine sym_rho_init:
     some processors have no G-vectors for symmetrization
     Message from routine sym_rho_init:
     some processors have no G-vectors for symmetrization
     Message from routine sym_rho_init:
     some processors have no G-vectors for symmetrization
     Message from routine sym_rho_init:
     some processors have no G-vectors for symmetrization
     Message from routine sym_rho_init:
     some processors have no G-vectors for symmetrization
     Message from routine sym_rho_init:
     some processors have no G-vectors for symmetrization
     Message from routine sym_rho_init:
     some processors have no G-vectors for symmetrization
     Message from routine sym_rho_init:
     some processors have no G-vectors for symmetrization
     Message from routine sym_rho_init:
     some processors have no G-vectors for symmetrization
     Message from routine sym_rho_init:
     some processors have no G-vectors for symmetrization
     Message from routine sym_rho_init:
     some processors have no G-vectors for symmetrization
     Message from routine sym_rho_init:
     some processors have no G-vectors for symmetrization
     Message from routine sym_rho_init:
     some processors have no G-vectors for symmetrization
     Message from routine sym_rho_init:
     some processors have no G-vectors for symmetrization
     Message from routine sym_rho_init:
     some processors have no G-vectors for symmetrization
     Message from routine sym_rho_init:
     some processors have no G-vectors for symmetrization
     Message from routine sym_rho_init:
     some processors have no G-vectors for symmetrization
     Message from routine sym_rho_init:
     some processors have no G-vectors for symmetrization
     Message from routine sym_rho_init:
     some processors have no G-vectors for symmetrization
     Message from routine sym_rho_init:
     some processors have no G-vectors for symmetrization
     Message from routine sym_rho_init:
     some processors have no G-vectors for symmetrization
     Message from routine sym_rho_init:
     some processors have no G-vectors for symmetrization
     Message from routine sym_rho_init:
     some processors have no G-vectors for symmetrization
     Message from routine sym_rho_init:
     some processors have no G-vectors for symmetrization
     Message from routine sym_rho_init:
     some processors have no G-vectors for symmetrization
     Message from routine sym_rho_init:
     some processors have no G-vectors for symmetrization
     Message from routine sym_rho_init:
     some processors have no G-vectors for symmetrization
     Message from routine sym_rho_init:
     some processors have no G-vectors for symmetrization
     Message from routine sym_rho_init:
     some processors have no G-vectors for symmetrization
     Message from routine sym_rho_init:
     some processors have no G-vectors for symmetrization
     Message from routine sym_rho_init:
     some processors have no G-vectors for symmetrization
     Message from routine sym_rho_init:
     some processors have no G-vectors for symmetrization
     Message from routine sym_rho_init:
     some processors have no G-vectors for symmetrization
     Message from routine sym_rho_init:
     some processors have no G-vectors for symmetrization
     Message from routine sym_rho_init:
     some processors have no G-vectors for symmetrization
     Message from routine sym_rho_init:
     some processors have no G-vectors for symmetrization
     Message from routine sym_rho_init:
     some processors have no G-vectors for symmetrization
     Message from routine sym_rho_init:
     some processors have no G-vectors for symmetrization
     Message from routine sym_rho_init:
     some processors have no G-vectors for symmetrization
     Message from routine sym_rho_init:
     some processors have no G-vectors for symmetrization
     Message from routine sym_rho_init:
     some processors have no G-vectors for symmetrization
     Message from routine sym_rho_init:
     some processors have no G-vectors for symmetrization
     Message from routine sym_rho_init:
     some processors have no G-vectors for symmetrization
     Message from routine sym_rho_init:
     some processors have no G-vectors for symmetrization
     Message from routine sym_rho_init:
     some processors have no G-vectors for symmetrization
     Message from routine sym_rho_init:
     some processors have no G-vectors for symmetrization
     Message from routine sym_rho_init:
     some processors have no G-vectors for symmetrization
     Message from routine sym_rho_init:
     some processors have no G-vectors for symmetrization
     Message from routine sym_rho_init:
     some processors have no G-vectors for symmetrization
     Message from routine sym_rho_init:
     some processors have no G-vectors for symmetrization
     Message from routine sym_rho_init:
     some processors have no G-vectors for symmetrization
     Message from routine sym_rho_init:
     some processors have no G-vectors for symmetrization
     Message from routine sym_rho_init:
     some processors have no G-vectors for symmetrization

     Check: negative core charge=   -0.000003

     Initial potential from superposition of free atoms

     starting charge   63.98899, renormalised to   64.00000
     Starting wfcs are   52 randomized atomic wfcs

     total cpu time spent up to now is    17154.2 secs

     Self-consistent Calculation

     iteration #  1     ecut=    50.00 Ry     beta= 0.70
     CG style diagonalization
     c_bands:  4 eigenvalues not converged
     c_bands:  4 eigenvalues not converged
     c_bands:  5 eigenvalues not converged
     c_bands:  5 eigenvalues not converged
     c_bands:  2 eigenvalues not converged
     c_bands:  3 eigenvalues not converged
     c_bands:  3 eigenvalues not converged
     c_bands:  5 eigenvalues not converged
     c_bands:  4 eigenvalues not converged
     c_bands:  4 eigenvalues not converged
     c_bands:  4 eigenvalues not converged
     c_bands:  5 eigenvalues not converged
     c_bands:  5 eigenvalues not converged
     c_bands:  4 eigenvalues not converged
     c_bands:  5 eigenvalues not converged
     c_bands:  5 eigenvalues not converged
     c_bands:  5 eigenvalues not converged
     c_bands:  5 eigenvalues not converged
     c_bands:  4 eigenvalues not converged
     c_bands:  4 eigenvalues not converged
     c_bands:  2 eigenvalues not converged
     c_bands:  4 eigenvalues not converged
     c_bands:  5 eigenvalues not converged
     c_bands:  3 eigenvalues not converged
     c_bands:  2 eigenvalues not converged
     c_bands:  2 eigenvalues not converged
     c_bands:  3 eigenvalues not converged
     c_bands:  4 eigenvalues not converged
     c_bands:  5 eigenvalues not converged
     c_bands:  5 eigenvalues not converged
     c_bands:  5 eigenvalues not converged
     c_bands:  5 eigenvalues not converged
     c_bands:  5 eigenvalues not converged
     c_bands:  5 eigenvalues not converged
     c_bands:  3 eigenvalues not converged
     c_bands:  5 eigenvalues not converged
     c_bands:  3 eigenvalues not converged
     c_bands:  5 eigenvalues not converged
     c_bands:  5 eigenvalues not converged
     c_bands:  4 eigenvalues not converged
     c_bands:  5 eigenvalues not converged
     c_bands:  5 eigenvalues not converged
     c_bands:  4 eigenvalues not converged
     c_bands:  4 eigenvalues not converged
     c_bands:  3 eigenvalues not converged
     c_bands:  4 eigenvalues not converged
     c_bands:  2 eigenvalues not converged
     c_bands:  5 eigenvalues not converged
     c_bands:  5 eigenvalues not converged
     c_bands:  5 eigenvalues not converged
     c_bands:  4 eigenvalues not converged
     c_bands:  1 eigenvalues not converged
     c_bands:  5 eigenvalues not converged
     c_bands:  5 eigenvalues not converged
     c_bands:  1 eigenvalues not converged
     c_bands:  5 eigenvalues not converged
     c_bands:  1 eigenvalues not converged
     c_bands:  2 eigenvalues not converged
     c_bands:  3 eigenvalues not converged
     c_bands:  5 eigenvalues not converged
     c_bands:  5 eigenvalues not converged
     c_bands:  4 eigenvalues not converged
     c_bands:  5 eigenvalues not converged
     c_bands:  5 eigenvalues not converged
     c_bands:  5 eigenvalues not converged
     c_bands:  5 eigenvalues not converged
     c_bands:  5 eigenvalues not converged
     c_bands:  4 eigenvalues not converged
     c_bands:  5 eigenvalues not converged
     c_bands:  5 eigenvalues not converged
     c_bands:  5 eigenvalues not converged
     c_bands:  2 eigenvalues not converged
     c_bands:  5 eigenvalues not converged
     c_bands:  5 eigenvalues not converged
     c_bands:  4 eigenvalues not converged
     c_bands:  4 eigenvalues not converged
     c_bands:  3 eigenvalues not converged
     c_bands:  5 eigenvalues not converged
     c_bands:  1 eigenvalues not converged
     c_bands:  4 eigenvalues not converged
     c_bands:  4 eigenvalues not converged
     c_bands:  5 eigenvalues not converged
     c_bands:  5 eigenvalues not converged
     c_bands:  3 eigenvalues not converged
     c_bands:  4 eigenvalues not converged
     c_bands:  4 eigenvalues not converged
     c_bands:  5 eigenvalues not converged
     c_bands:  5 eigenvalues not converged
     c_bands:  4 eigenvalues not converged
     c_bands:  5 eigenvalues not converged
     c_bands:  4 eigenvalues not converged
     c_bands:  4 eigenvalues not converged
     c_bands:  5 eigenvalues not converged
     c_bands:  5 eigenvalues not converged
     c_bands:  4 eigenvalues not converged
     c_bands:  3 eigenvalues not converged
     c_bands:  4 eigenvalues not converged
     c_bands:  4 eigenvalues not converged
     c_bands:  2 eigenvalues not converged
     c_bands:  3 eigenvalues not converged
     c_bands:  4 eigenvalues not converged
     c_bands:  5 eigenvalues not converged
     c_bands:  3 eigenvalues not converged
     c_bands:  4 eigenvalues not converged
     c_bands:  5 eigenvalues not converged
     c_bands:  4 eigenvalues not converged
     c_bands:  5 eigenvalues not converged
     c_bands:  3 eigenvalues not converged
     c_bands:  5 eigenvalues not converged
     c_bands:  3 eigenvalues not converged
     c_bands:  2 eigenvalues not converged
     c_bands:  5 eigenvalues not converged
     c_bands:  1 eigenvalues not converged
     c_bands:  2 eigenvalues not converged
     ethr =  1.00E-06,  avg # of iterations = 13.5

     total cpu time spent up to now is    17423.7 secs

     total energy              =    -366.72815651 Ry
     Harris-Foulkes estimate   =    -367.90354893 Ry
     estimated scf accuracy    <       1.68778121 Ry

     iteration #  2     ecut=    50.00 Ry     beta= 0.70
     CG style diagonalization
     ethr =  2.64E-03,  avg # of iterations =  4.3

     total cpu time spent up to now is    17519.5 secs

     total energy              =    -367.11678804 Ry
     Harris-Foulkes estimate   =    -367.87720349 Ry
     estimated scf accuracy    <       1.55267285 Ry

     iteration #  3     ecut=    50.00 Ry     beta= 0.70
     CG style diagonalization
     ethr =  2.43E-03,  avg # of iterations =  3.8

     total cpu time spent up to now is    17605.2 secs

     total energy              =    -367.41884173 Ry
     Harris-Foulkes estimate   =    -367.42142980 Ry
     estimated scf accuracy    <       0.01239252 Ry

     iteration #  4     ecut=    50.00 Ry     beta= 0.70
     CG style diagonalization
     ethr =  1.94E-05,  avg # of iterations =  4.3

     total cpu time spent up to now is    17700.7 secs

     total energy              =    -367.42994186 Ry
     Harris-Foulkes estimate   =    -367.43090769 Ry
     estimated scf accuracy    <       0.00258806 Ry

     iteration #  5     ecut=    50.00 Ry     beta= 0.70
     CG style diagonalization
     ethr =  4.04E-06,  avg # of iterations =  3.5

     total cpu time spent up to now is    17781.2 secs

     total energy              =    -367.43033127 Ry
     Harris-Foulkes estimate   =    -367.43034932 Ry
     estimated scf accuracy    <       0.00011698 Ry

     iteration #  6     ecut=    50.00 Ry     beta= 0.70
     CG style diagonalization
     ethr =  1.83E-07,  avg # of iterations =  4.0

     total cpu time spent up to now is    17871.7 secs

     total energy              =    -367.43036238 Ry
     Harris-Foulkes estimate   =    -367.43036689 Ry
     estimated scf accuracy    <       0.00000893 Ry

     iteration #  7     ecut=    50.00 Ry     beta= 0.70
     CG style diagonalization
     ethr =  1.40E-08,  avg # of iterations =  4.3

     total cpu time spent up to now is    17967.9 secs

     total energy              =    -367.43036666 Ry
     Harris-Foulkes estimate   =    -367.43036829 Ry
     estimated scf accuracy    <       0.00000410 Ry

     iteration #  8     ecut=    50.00 Ry     beta= 0.70
     CG style diagonalization
     ethr =  6.41E-09,  avg # of iterations =  3.6

     total cpu time spent up to now is    18048.6 secs

     total energy              =    -367.43036715 Ry
     Harris-Foulkes estimate   =    -367.43036727 Ry
     estimated scf accuracy    <       0.00000022 Ry

     iteration #  9     ecut=    50.00 Ry     beta= 0.70
     CG style diagonalization
     ethr =  3.40E-10,  avg # of iterations =  4.0

     total cpu time spent up to now is    18137.5 secs

     End of self-consistent calculation

     Number of k-points >= 100: set verbosity='high' to print the bands.

     highest occupied level (ev):     4.4837

!    total energy              =    -367.43036721 Ry
     Harris-Foulkes estimate   =    -367.43036722 Ry
     estimated scf accuracy    <          9.5E-09 Ry

     The total energy is the sum of the following terms:

     one-electron contribution =    -148.20999468 Ry
     hartree contribution      =     103.47711758 Ry
     xc contribution           =     -75.26785710 Ry
     ewald contribution        =    -247.42963301 Ry

     convergence has been achieved in   9 iterations

     Forces acting on atoms (cartesian axes, Ry/au):

     atom    1 type  1   force =     0.00000000    0.00000000    0.00000000
     atom    2 type  1   force =    -0.00000000   -0.00000000    0.00000000
     atom    3 type  2   force =     0.00000000    0.00000000   -0.00000000
     atom    4 type  2   force =    -0.00000000   -0.00000000    0.00000000
     atom    5 type  3   force =     0.00009362   -0.00016215   -0.00000000
     atom    6 type  3   force =    -0.00018723   -0.00000000    0.00000000
     atom    7 type  3   force =     0.00009362    0.00016215    0.00000000
     atom    8 type  3   force =     0.00018723    0.00000000   -0.00000000
     atom    9 type  3   force =    -0.00009362   -0.00016215   -0.00000000
     atom   10 type  3   force =    -0.00009362    0.00016215    0.00000000

     Total force =     0.000459     Total SCF correction =     0.000153
     SCF correction compared to forces is large: reduce conv_thr to get better values


     Computing stress (Cartesian axis) and pressure

          total   stress  (Ry/bohr**3)                   (kbar)     P=   -1.08
  -0.00000915  -0.00000000   0.00000000         -1.35     -0.00      0.00
  -0.00000000  -0.00000915  -0.00000000         -0.00     -1.35     -0.00
   0.00000000  -0.00000000  -0.00000382          0.00     -0.00     -0.56


     Writing output data file CCO_k.save/
 
     init_run     :     65.19s CPU     75.69s WALL (       2 calls)
     electrons    :  16360.52s CPU  17984.31s WALL (      18 calls)
     update_pot   :      1.15s CPU      1.25s WALL (      16 calls)
     forces       :     28.97s CPU     29.99s WALL (      18 calls)
     stress       :     42.31s CPU     42.77s WALL (      18 calls)

     Called by init_run:
     wfcinit      :     63.05s CPU     73.40s WALL (       2 calls)
     potinit      :      0.08s CPU      0.09s WALL (       2 calls)
     hinit0       :      1.27s CPU      1.37s WALL (       2 calls)

     Called by electrons:
     c_bands      :  15468.73s CPU  17049.62s WALL (     176 calls)
     sum_band     :    885.54s CPU    926.93s WALL (     176 calls)
     v_of_rho     :      3.60s CPU      3.75s WALL (     194 calls)
     newd         :      1.15s CPU      1.20s WALL (     194 calls)
     mix_rho      :      0.71s CPU      0.77s WALL (     176 calls)

     Called by c_bands:
     init_us_2    :     12.36s CPU     14.27s WALL (   73710 calls)
     ccgdiagg     :  11711.09s CPU  12580.84s WALL (   34253 calls)
     wfcrot       :   3799.80s CPU   4495.03s WALL (   31229 calls)

     Called by sum_band:
     sum_band:bec :      9.42s CPU      9.87s WALL (   33264 calls)
     addusdens    :      0.53s CPU      0.54s WALL (     176 calls)

     Called by *cgdiagg:
     h_psi        :   9792.70s CPU  10350.69s WALL ( 3966181 calls)
     s_psi        :    344.95s CPU    385.50s WALL ( 7901133 calls)
     cdiaghg      :   1440.10s CPU   2021.01s WALL (   31229 calls)

     Called by h_psi:
     h_psi:pot    :   9692.02s CPU  10237.01s WALL ( 3966181 calls)
     h_psi:calbec :   1061.60s CPU   1132.88s WALL ( 3966181 calls)
     vloc_psi     :   8246.20s CPU   8695.99s WALL ( 3966181 calls)
     add_vuspsi   :    254.33s CPU    277.89s WALL ( 3966181 calls)
     hs_1psi      :   8596.01s CPU   9117.76s WALL ( 3934952 calls)
     s_1psi       :    916.82s CPU   1010.82s WALL ( 3934952 calls)

     General routines
     calbec       :   1637.56s CPU   1786.74s WALL ( 7951407 calls)
     fft          :      5.18s CPU      5.34s WALL (    2600 calls)
     ffts         :      0.28s CPU      0.29s WALL (     176 calls)
     fftw         :   8726.56s CPU   9187.52s WALL (10948128 calls)
 
     Parallel routines
     fft_scatt_xy :    314.74s CPU    327.64s WALL (10950904 calls)
     fft_scatt_yz :   7021.37s CPU   7426.05s WALL (10950904 calls)
 
     PWSCF        :      4h36m CPU      5h 3m WALL

 
   This run was terminated on:   3:29:36   4May2022            

=------------------------------------------------------------------------------=
   JOB DONE.
=------------------------------------------------------------------------------=
