
     Program PWSCF v.6.4.1 starts on 23Apr2022 at 12:37:45 

     This program is part of the open-source Quantum ESPRESSO suite
     for quantum simulation of materials; please cite
         "P. Giannozzi et al., J. Phys.:Condens. Matter 21 395502 (2009);
         "P. Giannozzi et al., J. Phys.:Condens. Matter 29 465901 (2017);
          URL http://www.quantum-espresso.org", 
     in publications or presentations arising from this work. More details at
     http://www.quantum-espresso.org/quote

     Parallel version (MPI & OpenMP), running on       1 processor cores
     Number of MPI processes:                 1
     Threads/MPI process:                     1

     MPI processes distributed on     1 nodes
     Waiting for input...
     Reading input from standard input

     Current dimensions of program PWSCF are:
     Max number of different atomic species (ntypx) = 10
     Max number of k-points (npk) =  40000
     Max angular momentum in pseudopotentials (lmaxx) =  3

     Subspace diagonalization in iterative solution of the eigenvalue problem:
     a serial algorithm will be used

 
     G-vector sticks info
     --------------------
     sticks:   dense  smooth     PW     G-vecs:    dense   smooth      PW
     Sum        1981    1981    559                58383    58383    8441
 


     bravais-lattice index     =            5
     lattice parameter (alat)  =      12.0000  a.u.
     unit-cell volume          =    1221.8805 (a.u.)^3
     number of atoms/cell      =           10
     number of atomic types    =            3
     number of electrons       =        64.00
     number of Kohn-Sham states=           32
     kinetic-energy cutoff     =      50.0000  Ry
     charge density cutoff     =     200.0000  Ry
     convergence threshold     =      1.0E-08
     mixing beta               =       0.7000
     number of iterations used =            8  plain     mixing
     Exchange-correlation      = SLA  PW   PBE  PBE ( 1  4  3  4 0 0)
     nstep                     =           50


     celldm(1)=  12.000000  celldm(2)=   0.000000  celldm(3)=   0.000000
     celldm(4)=   0.500000  celldm(5)=   0.000000  celldm(6)=   0.000000

     crystal axes: (cart. coord. in units of alat)
               a(1) = (   0.500000  -0.288675   0.816497 )  
               a(2) = (   0.000000   0.577350   0.816497 )  
               a(3) = (  -0.500000  -0.288675   0.816497 )  

     reciprocal axes: (cart. coord. in units 2 pi/alat)
               b(1) = (  1.000000 -0.577350  0.408248 )  
               b(2) = (  0.000000  1.154701  0.408248 )  
               b(3) = ( -1.000000 -0.577350  0.408248 )  


     PseudoPot. # 1 for Ca read from file:
     ./Ca_PBE.UPF
     MD5 check sum: 403a4c14b9e4d4dfdc3024c9a3812218
     Pseudo is Ultrasoft + core correction, Zval = 10.0
     Generated by new atomic code, or converted to UPF format
     Using radial grid of  845 points,  6 beta functions with: 
                l(1) =   0
                l(2) =   0
                l(3) =   1
                l(4) =   1
                l(5) =   2
                l(6) =   2
     Q(r) pseudized with  8 coefficients,  rinner =    1.500   1.500   1.500
                                                       1.500   1.500

     PseudoPot. # 2 for C  read from file:
     ./C_PBE.UPF
     MD5 check sum: d1aef80898a10debaa0f26306b886e00
     Pseudo is Ultrasoft + core correction, Zval =  4.0
     Generated by new atomic code, or converted to UPF format
     Using radial grid of  721 points,  4 beta functions with: 
                l(1) =   0
                l(2) =   0
                l(3) =   1
                l(4) =   1
     Q(r) pseudized with  8 coefficients,  rinner =    1.100   1.100   1.100


     PseudoPot. # 3 for O  read from file:
     ./O_PBE.UPF
     MD5 check sum: 734c27235a0248c51dbae37a1fbe46ec
     Pseudo is Ultrasoft + core correction, Zval =  6.0
     Generated by new atomic code, or converted to UPF format
     Using radial grid of  737 points,  5 beta functions with: 
                l(1) =   0
                l(2) =   0
                l(3) =   1
                l(4) =   1
                l(5) =   2
     Q(r) pseudized with  8 coefficients,  rinner =    0.900   0.900   0.900
                                                       0.900   0.900

     atomic species   valence    mass     pseudopotential
        Ca            10.00    40.07800     Ca( 1.00)
        C              4.00    12.01070     C ( 1.00)
        O              6.00    16.00000     O ( 1.00)

     12 Sym. Ops., with inversion, found ( 6 have fractional translation)



   Cartesian axes

     site n.     atom                  positions (alat units)
         1           Ca  tau(   1) = (   0.0000000  -0.0000000   1.2247449  )
         2           Ca  tau(   2) = (   0.0000000   0.0000000   0.0000000  )
         3           C   tau(   3) = (   0.0000000  -0.0000000   0.6123724  )
         4           C   tau(   4) = (  -0.0000000  -0.0000000   1.8371173  )
         5           O   tau(   5) = (   0.1293055   0.3533865   1.4288690  )
         6           O   tau(   6) = (   0.2413889  -0.2886751   1.4288690  )
         7           O   tau(   7) = (  -0.3706945  -0.0647114   1.4288690  )
         8           O   tau(   8) = (  -0.2413889   0.2886751   1.0206207  )
         9           O   tau(   9) = (   0.3706945   0.0647114   1.0206207  )
        10           O   tau(  10) = (  -0.1293055  -0.3533865   1.0206207  )

     number of k points=     4
                       cart. coord. in units 2pi/alat
        k(    1) = (   0.0000000   0.0000000   0.0000000), wk =   0.2500000
        k(    2) = (   0.5000000   0.2886751  -0.2041241), wk =   0.7500000
        k(    3) = (   0.5000000  -0.2886751  -0.4082483), wk =   0.7500000
        k(    4) = (   0.0000000   0.0000000  -0.6123724), wk =   0.2500000

     Dense  grid:    58383 G-vectors     FFT dimensions: (  60,  60,  60)

     Estimated max dynamical RAM per process >     279.08 MB

     Check: negative core charge=   -0.000002

     Initial potential from superposition of free atoms

     starting charge   63.98899, renormalised to   64.00000
     Starting wfcs are   52 randomized atomic wfcs

     total cpu time spent up to now is       16.2 secs

     Self-consistent Calculation

     iteration #  1     ecut=    50.00 Ry     beta= 0.70
     CG style diagonalization
     ethr =  1.00E-02,  avg # of iterations =  2.1

     total cpu time spent up to now is       25.9 secs

     total energy              =    -365.08556671 Ry
     Harris-Foulkes estimate   =    -366.86928269 Ry
     estimated scf accuracy    <       2.41868239 Ry

     iteration #  2     ecut=    50.00 Ry     beta= 0.70
     CG style diagonalization
     ethr =  3.78E-03,  avg # of iterations =  4.8

     total cpu time spent up to now is       43.1 secs

     total energy              =    -364.86520675 Ry
     Harris-Foulkes estimate   =    -368.37553176 Ry
     estimated scf accuracy    <      10.22956868 Ry

     iteration #  3     ecut=    50.00 Ry     beta= 0.70
     CG style diagonalization
     ethr =  3.78E-03,  avg # of iterations =  4.2

     total cpu time spent up to now is       58.3 secs

     total energy              =    -366.36978148 Ry
     Harris-Foulkes estimate   =    -366.39669990 Ry
     estimated scf accuracy    <       0.05800516 Ry

     iteration #  4     ecut=    50.00 Ry     beta= 0.70
     CG style diagonalization
     ethr =  9.06E-05,  avg # of iterations =  4.2

     total cpu time spent up to now is       73.4 secs

     total energy              =    -366.40371882 Ry
     Harris-Foulkes estimate   =    -366.40788065 Ry
     estimated scf accuracy    <       0.01231042 Ry

     iteration #  5     ecut=    50.00 Ry     beta= 0.70
     CG style diagonalization
     ethr =  1.92E-05,  avg # of iterations =  3.8

     total cpu time spent up to now is       87.1 secs

     total energy              =    -366.40700156 Ry
     Harris-Foulkes estimate   =    -366.40695492 Ry
     estimated scf accuracy    <       0.00012515 Ry

     iteration #  6     ecut=    50.00 Ry     beta= 0.70
     CG style diagonalization
     ethr =  1.96E-07,  avg # of iterations =  5.1

     total cpu time spent up to now is      105.5 secs

     total energy              =    -366.40720907 Ry
     Harris-Foulkes estimate   =    -366.40725162 Ry
     estimated scf accuracy    <       0.00012135 Ry

     iteration #  7     ecut=    50.00 Ry     beta= 0.70
     CG style diagonalization
     ethr =  1.90E-07,  avg # of iterations =  3.5

     total cpu time spent up to now is      118.5 secs

     total energy              =    -366.40723591 Ry
     Harris-Foulkes estimate   =    -366.40723768 Ry
     estimated scf accuracy    <       0.00000672 Ry

     iteration #  8     ecut=    50.00 Ry     beta= 0.70
     CG style diagonalization
     ethr =  1.05E-08,  avg # of iterations =  4.1

     total cpu time spent up to now is      133.5 secs

     total energy              =    -366.40723820 Ry
     Harris-Foulkes estimate   =    -366.40723855 Ry
     estimated scf accuracy    <       0.00000127 Ry

     iteration #  9     ecut=    50.00 Ry     beta= 0.70
     CG style diagonalization
     ethr =  1.99E-09,  avg # of iterations =  4.0

     total cpu time spent up to now is      148.2 secs

     total energy              =    -366.40723858 Ry
     Harris-Foulkes estimate   =    -366.40723861 Ry
     estimated scf accuracy    <       0.00000009 Ry

     iteration # 10     ecut=    50.00 Ry     beta= 0.70
     CG style diagonalization
     ethr =  1.41E-10,  avg # of iterations =  4.5

     total cpu time spent up to now is      165.0 secs

     End of self-consistent calculation

          k = 0.0000 0.0000 0.0000 (  7391 PWs)   bands (ev):

   -38.5642 -38.5623 -19.5586 -19.5344 -19.4777 -19.4777 -19.4517 -19.4517
   -15.8648 -15.5751 -14.6222 -14.6222 -14.4723 -14.4723  -6.3242  -6.1681
    -2.5468  -2.5468  -2.4634  -2.4634  -1.6767  -0.5436   0.2897   0.2897
     0.4518   0.4518   0.5487   0.5487   0.8292   1.4063   1.4886   1.4886

          k = 0.5000 0.2887-0.2041 (  7336 PWs)   bands (ev):

   -38.5632 -38.5632 -19.5463 -19.5463 -19.4677 -19.4677 -19.4651 -19.4651
   -15.7077 -15.7077 -14.5661 -14.5661 -14.5428 -14.5428  -6.2264  -6.2264
    -2.5514  -2.5514  -2.4145  -2.4145  -1.1345  -1.1345   0.0634   0.0634
     0.3804   0.3804   0.7889   0.7889   1.0391   1.0391   1.4023   1.4023

          k = 0.5000-0.2887-0.4082 (  7216 PWs)   bands (ev):

   -38.5635 -38.5629 -19.5525 -19.5466 -19.4837 -19.4723 -19.4555 -19.4485
   -15.7211 -15.6802 -14.6211 -14.5934 -14.5093 -14.5079  -6.2884  -6.1613
    -2.6782  -2.4672  -2.4352  -2.3095  -1.3068  -1.0657   0.1606   0.2142
     0.4221   0.5352   0.5920   0.7412   0.9928   1.1102   1.2332   1.3736

          k = 0.0000 0.0000-0.6124 (  7336 PWs)   bands (ev):

   -38.5632 -38.5632 -19.5483 -19.5483 -19.4651 -19.4651 -19.4651 -19.4651
   -15.7180 -15.7180 -14.5475 -14.5475 -14.5475 -14.5475  -6.2617  -6.2617
    -2.4867  -2.4867  -2.4867  -2.4867  -1.1367  -1.1367   0.3478   0.3478
     0.3478   0.3478   1.0035   1.0035   1.0035   1.0035   1.0677   1.0677

     highest occupied level (ev):     1.4886

!    total energy              =    -366.40723863 Ry
     Harris-Foulkes estimate   =    -366.40723864 Ry
     estimated scf accuracy    <          3.2E-09 Ry

     The total energy is the sum of the following terms:

     one-electron contribution =    -166.43267878 Ry
     hartree contribution      =     105.52558255 Ry
     xc contribution           =     -72.64670706 Ry
     ewald contribution        =    -232.85343533 Ry

     convergence has been achieved in  10 iterations

     Forces acting on atoms (cartesian axes, Ry/au):

     atom    1 type  1   force =     0.00000000    0.00000000    0.00000000
     atom    2 type  1   force =    -0.00000000   -0.00000000    0.00000000
     atom    3 type  2   force =    -0.00000000   -0.00000000   -0.00000000
     atom    4 type  2   force =     0.00000000    0.00000000    0.00000000
     atom    5 type  3   force =    -0.12159728    0.21061267    0.00000000
     atom    6 type  3   force =     0.24319457    0.00000000   -0.00000000
     atom    7 type  3   force =    -0.12159728   -0.21061267   -0.00000000
     atom    8 type  3   force =    -0.24319457   -0.00000000    0.00000000
     atom    9 type  3   force =     0.12159728    0.21061267    0.00000000
     atom   10 type  3   force =     0.12159728   -0.21061267   -0.00000000

     Total force =     0.595703     Total SCF correction =     0.000066


     Computing stress (Cartesian axis) and pressure

          total   stress  (Ry/bohr**3)                   (kbar)     P= -287.39
  -0.00283186  -0.00000000  -0.00000000       -416.58     -0.00     -0.00
  -0.00000000  -0.00283186  -0.00000000         -0.00   -416.58     -0.00
  -0.00000000  -0.00000000  -0.00019719         -0.00     -0.00    -29.01


     BFGS Geometry Optimization

     number of scf cycles    =   1
     number of bfgs steps    =   0

     enthalpy new            =    -366.4064080159 Ry

     new trust radius        =       0.4950629665 bohr
     new conv_thr            =       0.0000000100 Ry

     new unit-cell volume =   1049.73778 a.u.^3 (   155.55509 Ang^3 )
     density =      2.13688 g/cm^3

CELL_PARAMETERS (alat= 12.00000000)
   0.464593248  -0.268233037   0.812457550
   0.000000000   0.536466074   0.812457550
  -0.464593248  -0.268233037   0.812457550

ATOMIC_POSITIONS (crystal)
Ca       0.500000000   0.500000000   0.500000000
Ca      -0.000000000  -0.000000000   0.000000000
C        0.250000000   0.250000000   0.250000000
C        0.750000000   0.750000000   0.750000000
O        0.488344855   1.011655145   0.250000000
O        1.011655145   0.250000000   0.488344855
O        0.250000000   0.488344855   1.011655145
O       -0.011655145   0.750000000   0.511655145
O        0.750000000   0.511655145  -0.011655145
O        0.511655145  -0.011655145   0.750000000



     Writing output data file CCO_k.save/
     NEW-OLD atomic charge density approx. for the potential

     Check: negative core charge=   -0.000002
     extrapolated charge   53.50667, renormalised to   64.00000

     total cpu time spent up to now is      185.7 secs

     Self-consistent Calculation

     iteration #  1     ecut=    50.00 Ry     beta= 0.70
     CG style diagonalization
     c_bands:  2 eigenvalues not converged
     c_bands:  1 eigenvalues not converged
     ethr =  1.00E-06,  avg # of iterations = 11.9

     total cpu time spent up to now is      228.4 secs

     total energy              =    -360.67806754 Ry
     Harris-Foulkes estimate   =    -388.11602039 Ry
     estimated scf accuracy    <       5.77099553 Ry

     iteration #  2     ecut=    50.00 Ry     beta= 0.70
     CG style diagonalization
     ethr =  9.02E-03,  avg # of iterations =  5.3

     total cpu time spent up to now is      247.2 secs

     total energy              =    -365.01949354 Ry
     Harris-Foulkes estimate   =    -373.51153744 Ry
     estimated scf accuracy    <      25.70773277 Ry

     iteration #  3     ecut=    50.00 Ry     beta= 0.70
     CG style diagonalization
     ethr =  9.02E-03,  avg # of iterations =  4.1

     total cpu time spent up to now is      262.1 secs

     total energy              =    -367.22968352 Ry
     Harris-Foulkes estimate   =    -367.68183105 Ry
     estimated scf accuracy    <       1.78874212 Ry

     iteration #  4     ecut=    50.00 Ry     beta= 0.70
     CG style diagonalization
     ethr =  2.79E-03,  avg # of iterations =  3.0

     total cpu time spent up to now is      273.3 secs

     total energy              =    -367.13458786 Ry
     Harris-Foulkes estimate   =    -367.32698512 Ry
     estimated scf accuracy    <       0.80826189 Ry

     iteration #  5     ecut=    50.00 Ry     beta= 0.70
     CG style diagonalization
     ethr =  1.26E-03,  avg # of iterations =  3.2

     total cpu time spent up to now is      285.1 secs

     total energy              =    -367.11789335 Ry
     Harris-Foulkes estimate   =    -367.19403569 Ry
     estimated scf accuracy    <       0.21210759 Ry

     iteration #  6     ecut=    50.00 Ry     beta= 0.70
     CG style diagonalization
     ethr =  3.31E-04,  avg # of iterations =  3.7

     total cpu time spent up to now is      298.7 secs

     total energy              =    -367.15534566 Ry
     Harris-Foulkes estimate   =    -367.15845751 Ry
     estimated scf accuracy    <       0.00818201 Ry

     iteration #  7     ecut=    50.00 Ry     beta= 0.70
     CG style diagonalization
     ethr =  1.28E-05,  avg # of iterations =  4.1

     total cpu time spent up to now is      313.6 secs

     total energy              =    -367.15850139 Ry
     Harris-Foulkes estimate   =    -367.15927161 Ry
     estimated scf accuracy    <       0.00309187 Ry

     iteration #  8     ecut=    50.00 Ry     beta= 0.70
     CG style diagonalization
     ethr =  4.83E-06,  avg # of iterations =  3.4

     total cpu time spent up to now is      326.2 secs

     total energy              =    -367.15821854 Ry
     Harris-Foulkes estimate   =    -367.15884100 Ry
     estimated scf accuracy    <       0.00109278 Ry

     iteration #  9     ecut=    50.00 Ry     beta= 0.70
     CG style diagonalization
     ethr =  1.71E-06,  avg # of iterations =  4.1

     total cpu time spent up to now is      341.1 secs

     total energy              =    -367.15854668 Ry
     Harris-Foulkes estimate   =    -367.15857979 Ry
     estimated scf accuracy    <       0.00020524 Ry

     iteration # 10     ecut=    50.00 Ry     beta= 0.70
     CG style diagonalization
     ethr =  3.21E-07,  avg # of iterations =  3.5

     total cpu time spent up to now is      354.1 secs

     total energy              =    -367.15853518 Ry
     Harris-Foulkes estimate   =    -367.15858235 Ry
     estimated scf accuracy    <       0.00013832 Ry

     iteration # 11     ecut=    50.00 Ry     beta= 0.70
     CG style diagonalization
     ethr =  2.16E-07,  avg # of iterations =  3.3

     total cpu time spent up to now is      366.1 secs

     total energy              =    -367.15853926 Ry
     Harris-Foulkes estimate   =    -367.15854617 Ry
     estimated scf accuracy    <       0.00002230 Ry

     iteration # 12     ecut=    50.00 Ry     beta= 0.70
     CG style diagonalization
     ethr =  3.48E-08,  avg # of iterations =  3.7

     total cpu time spent up to now is      379.5 secs

     total energy              =    -367.15854258 Ry
     Harris-Foulkes estimate   =    -367.15854268 Ry
     estimated scf accuracy    <       0.00000149 Ry

     iteration # 13     ecut=    50.00 Ry     beta= 0.70
     CG style diagonalization
     ethr =  2.33E-09,  avg # of iterations =  3.6

     total cpu time spent up to now is      392.8 secs

     total energy              =    -367.15854252 Ry
     Harris-Foulkes estimate   =    -367.15854288 Ry
     estimated scf accuracy    <       0.00000157 Ry

     iteration # 14     ecut=    50.00 Ry     beta= 0.70
     CG style diagonalization
     ethr =  2.33E-09,  avg # of iterations =  3.1

     total cpu time spent up to now is      404.2 secs

     total energy              =    -367.15854234 Ry
     Harris-Foulkes estimate   =    -367.15854260 Ry
     estimated scf accuracy    <       0.00000053 Ry

     iteration # 15     ecut=    50.00 Ry     beta= 0.70
     CG style diagonalization
     ethr =  8.31E-10,  avg # of iterations =  3.9

     total cpu time spent up to now is      418.6 secs

     total energy              =    -367.15854251 Ry
     Harris-Foulkes estimate   =    -367.15854255 Ry
     estimated scf accuracy    <       0.00000020 Ry

     iteration # 16     ecut=    50.00 Ry     beta= 0.70
     CG style diagonalization
     ethr =  3.11E-10,  avg # of iterations =  3.3

     total cpu time spent up to now is      430.7 secs

     total energy              =    -367.15854253 Ry
     Harris-Foulkes estimate   =    -367.15854252 Ry
     estimated scf accuracy    <       0.00000009 Ry

     iteration # 17     ecut=    50.00 Ry     beta= 0.70
     CG style diagonalization
     ethr =  1.36E-10,  avg # of iterations =  3.0

     total cpu time spent up to now is      441.7 secs

     total energy              =    -367.15854255 Ry
     Harris-Foulkes estimate   =    -367.15854253 Ry
     estimated scf accuracy    <       0.00000012 Ry

     iteration # 18     ecut=    50.00 Ry     beta= 0.70
     CG style diagonalization
     ethr =  1.36E-10,  avg # of iterations =  3.1

     total cpu time spent up to now is      453.1 secs

     total energy              =    -367.15854254 Ry
     Harris-Foulkes estimate   =    -367.15854256 Ry
     estimated scf accuracy    <       0.00000021 Ry

     iteration # 19     ecut=    50.00 Ry     beta= 0.70
     CG style diagonalization
     ethr =  1.36E-10,  avg # of iterations =  3.0

     total cpu time spent up to now is      464.3 secs

     total energy              =    -367.15854254 Ry
     Harris-Foulkes estimate   =    -367.15854254 Ry
     estimated scf accuracy    <       0.00000018 Ry

     iteration # 20     ecut=    50.00 Ry     beta= 0.70
     CG style diagonalization
     ethr =  1.36E-10,  avg # of iterations =  3.0

     total cpu time spent up to now is      475.2 secs

     total energy              =    -367.15854254 Ry
     Harris-Foulkes estimate   =    -367.15854254 Ry
     estimated scf accuracy    <       0.00000016 Ry

     iteration # 21     ecut=    50.00 Ry     beta= 0.70
     CG style diagonalization
     ethr =  1.36E-10,  avg # of iterations =  3.0

     total cpu time spent up to now is      486.2 secs

     total energy              =    -367.15854245 Ry
     Harris-Foulkes estimate   =    -367.15854254 Ry
     estimated scf accuracy    <       0.00000017 Ry

     iteration # 22     ecut=    50.00 Ry     beta= 0.70
     CG style diagonalization
     ethr =  1.36E-10,  avg # of iterations =  4.1

     total cpu time spent up to now is      500.9 secs

     total energy              =    -367.15854250 Ry
     Harris-Foulkes estimate   =    -367.15854250 Ry
     estimated scf accuracy    <       0.00000001 Ry

     iteration # 23     ecut=    50.00 Ry     beta= 0.70
     CG style diagonalization
     ethr =  2.09E-11,  avg # of iterations =  3.5

     total cpu time spent up to now is      513.6 secs

     End of self-consistent calculation

          k = 0.0000 0.0000 0.0000 (  7391 PWs)   bands (ev):

   -36.9406 -36.9365 -17.9924 -17.9194 -17.8954 -17.8954 -17.8485 -17.8485
   -16.8875 -16.6179 -14.4573 -14.4573 -14.2700 -14.2700  -4.7075  -4.6276
    -2.2749  -2.2749  -2.2448  -2.2448  -1.8887  -0.7714   1.1876   1.1876
     1.4654   1.4654   1.4768   1.4768   2.3547   2.5001   2.5001   2.8204

          k = 0.5381 0.3107-0.2051 (  7336 PWs)   bands (ev):

   -36.9385 -36.9385 -17.9459 -17.9459 -17.9072 -17.9072 -17.8740 -17.8740
   -16.7144 -16.7144 -14.3906 -14.3906 -14.3549 -14.3549  -4.6006  -4.6006
    -2.3404  -2.3404  -2.1869  -2.1869  -1.2902  -1.2902   1.0089   1.0089
     1.2385   1.2385   1.7828   1.7828   2.1594   2.1594   2.7071   2.7071

          k = 0.5381-0.3107-0.4103 (  7216 PWs)   bands (ev):

   -36.9392 -36.9378 -17.9931 -17.9619 -17.9210 -17.8867 -17.8508 -17.8409
   -16.7400 -16.6835 -14.4488 -14.3986 -14.3304 -14.3184  -4.6682  -4.5287
    -2.4545  -2.2498  -2.2311  -2.0625  -1.4669  -1.1948   0.9747   1.1949
     1.3319   1.4507   1.5125   1.6714   2.0089   2.3238   2.5750   2.7441

          k = 0.0000-0.0000-0.6154 (  7336 PWs)   bands (ev):

   -36.9385 -36.9385 -17.9672 -17.9672 -17.8730 -17.8730 -17.8730 -17.8730
   -16.7402 -16.7402 -14.3630 -14.3630 -14.3630 -14.3630  -4.7058  -4.7058
    -2.2461  -2.2461  -2.2461  -2.2461  -1.2974  -1.2974   1.2762   1.2762
     1.2762   1.2762   2.0016   2.0016   2.0016   2.0016   2.5461   2.5461

     highest occupied level (ev):     2.8204

!    total energy              =    -367.15854250 Ry
     Harris-Foulkes estimate   =    -367.15854250 Ry
     estimated scf accuracy    <          2.3E-09 Ry

     The total energy is the sum of the following terms:

     one-electron contribution =    -164.87113639 Ry
     hartree contribution      =     107.53184556 Ry
     xc contribution           =     -73.99429367 Ry
     ewald contribution        =    -235.82495800 Ry

     convergence has been achieved in  23 iterations

     Forces acting on atoms (cartesian axes, Ry/au):

     atom    1 type  1   force =     0.00000000    0.00000000    0.00000000
     atom    2 type  1   force =    -0.00000000    0.00000000   -0.00000000
     atom    3 type  2   force =     0.00000000   -0.00000000    0.00000000
     atom    4 type  2   force =    -0.00000000    0.00000000    0.00000000
     atom    5 type  3   force =    -0.07565333    0.13103541    0.00000000
     atom    6 type  3   force =     0.15130666   -0.00000000   -0.00000000
     atom    7 type  3   force =    -0.07565333   -0.13103541   -0.00000000
     atom    8 type  3   force =    -0.15130666    0.00000000    0.00000000
     atom    9 type  3   force =     0.07565333    0.13103541    0.00000000
     atom   10 type  3   force =     0.07565333   -0.13103541   -0.00000000

     Total force =     0.370624     Total SCF correction =     0.000021


     Computing stress (Cartesian axis) and pressure

          total   stress  (Ry/bohr**3)                   (kbar)     P= -217.47
  -0.00213796   0.00000000   0.00000000       -314.50      0.00      0.00
   0.00000000  -0.00213796  -0.00000000          0.00   -314.50     -0.00
   0.00000000  -0.00000000  -0.00015904          0.00     -0.00    -23.40


     number of scf cycles    =   2
     number of bfgs steps    =   1

     enthalpy old            =    -366.4064080159 Ry
     enthalpy new            =    -367.1578288989 Ry

     CASE: enthalpy_new < enthalpy_old

     new trust radius        =       0.7407554460 bohr
     new conv_thr            =       0.0000000100 Ry

     new unit-cell volume =    817.32325 a.u.^3 (   121.11481 Ang^3 )
     density =      2.74452 g/cm^3

CELL_PARAMETERS (alat= 12.00000000)
   0.411483121  -0.237569891   0.806409139
   0.000000000   0.475139782   0.806409139
  -0.411483121  -0.237569891   0.806409139

ATOMIC_POSITIONS (crystal)
Ca       0.500000000   0.500000000   0.500000000
Ca      -0.000000000   0.000000000   0.000000000
C        0.250000000   0.250000000   0.250000000
C        0.750000000   0.750000000   0.750000000
O        0.463096958   1.036903042   0.250000000
O        1.036903042   0.250000000   0.463096958
O        0.250000000   0.463096958   1.036903042
O       -0.036903042   0.750000000   0.536903042
O        0.750000000   0.536903042  -0.036903042
O        0.536903042  -0.036903042   0.750000000



     Writing output data file CCO_k.save/
     NEW-OLD atomic charge density approx. for the potential

     Check: negative core charge=   -0.000003

     negative rho (up, down):  1.849E-03 0.000E+00
     extrapolated charge   45.80405, renormalised to   64.00000

     total cpu time spent up to now is      534.9 secs

     Self-consistent Calculation

     iteration #  1     ecut=    50.00 Ry     beta= 0.70
     CG style diagonalization
     c_bands:  4 eigenvalues not converged
     c_bands:  4 eigenvalues not converged
     ethr =  1.00E-06,  avg # of iterations = 15.0

     negative rho (up, down):  2.844E-04 0.000E+00

     total cpu time spent up to now is      586.1 secs

     total energy              =    -354.00688428 Ry
     Harris-Foulkes estimate   =    -406.06826957 Ry
     estimated scf accuracy    <      11.04331642 Ry

     iteration #  2     ecut=    50.00 Ry     beta= 0.70
     CG style diagonalization
     ethr =  1.00E-02,  avg # of iterations =  5.7

     total cpu time spent up to now is      606.0 secs

     total energy              =    -361.46383161 Ry
     Harris-Foulkes estimate   =    -376.74157157 Ry
     estimated scf accuracy    <      45.70994890 Ry

     iteration #  3     ecut=    50.00 Ry     beta= 0.70
     CG style diagonalization
     ethr =  1.00E-02,  avg # of iterations =  4.5

     total cpu time spent up to now is      622.1 secs

     total energy              =    -366.70650361 Ry
     Harris-Foulkes estimate   =    -367.72268717 Ry
     estimated scf accuracy    <       2.80870359 Ry

     iteration #  4     ecut=    50.00 Ry     beta= 0.70
     CG style diagonalization
     ethr =  4.39E-03,  avg # of iterations =  3.2

     total cpu time spent up to now is      633.9 secs

     total energy              =    -366.57374339 Ry
     Harris-Foulkes estimate   =    -366.93922576 Ry
     estimated scf accuracy    <       1.01653935 Ry

     iteration #  5     ecut=    50.00 Ry     beta= 0.70
     CG style diagonalization
     ethr =  1.59E-03,  avg # of iterations =  3.4

     total cpu time spent up to now is      646.1 secs

     total energy              =    -366.63803907 Ry
     Harris-Foulkes estimate   =    -366.69120814 Ry
     estimated scf accuracy    <       0.14810927 Ry

     iteration #  6     ecut=    50.00 Ry     beta= 0.70
     CG style diagonalization
     ethr =  2.31E-04,  avg # of iterations =  3.6

     total cpu time spent up to now is      659.1 secs

     total energy              =    -366.65563971 Ry
     Harris-Foulkes estimate   =    -366.66110424 Ry
     estimated scf accuracy    <       0.01367551 Ry

     iteration #  7     ecut=    50.00 Ry     beta= 0.70
     CG style diagonalization
     ethr =  2.14E-05,  avg # of iterations =  3.8

     total cpu time spent up to now is      672.8 secs

     total energy              =    -366.65918500 Ry
     Harris-Foulkes estimate   =    -366.65951033 Ry
     estimated scf accuracy    <       0.00113293 Ry

     iteration #  8     ecut=    50.00 Ry     beta= 0.70
     CG style diagonalization
     ethr =  1.77E-06,  avg # of iterations =  3.8

     total cpu time spent up to now is      686.7 secs

     total energy              =    -366.65930117 Ry
     Harris-Foulkes estimate   =    -366.65947462 Ry
     estimated scf accuracy    <       0.00030939 Ry

     iteration #  9     ecut=    50.00 Ry     beta= 0.70
     CG style diagonalization
     ethr =  4.83E-07,  avg # of iterations =  3.8

     total cpu time spent up to now is      700.3 secs

     total energy              =    -366.65938330 Ry
     Harris-Foulkes estimate   =    -366.65939380 Ry
     estimated scf accuracy    <       0.00002659 Ry

     iteration # 10     ecut=    50.00 Ry     beta= 0.70
     CG style diagonalization
     ethr =  4.15E-08,  avg # of iterations =  3.7

     total cpu time spent up to now is      713.7 secs

     total energy              =    -366.65938921 Ry
     Harris-Foulkes estimate   =    -366.65939010 Ry
     estimated scf accuracy    <       0.00000176 Ry

     iteration # 11     ecut=    50.00 Ry     beta= 0.70
     CG style diagonalization
     ethr =  2.74E-09,  avg # of iterations =  4.0

     total cpu time spent up to now is      728.1 secs

     total energy              =    -366.65938961 Ry
     Harris-Foulkes estimate   =    -366.65938967 Ry
     estimated scf accuracy    <       0.00000012 Ry

     iteration # 12     ecut=    50.00 Ry     beta= 0.70
     CG style diagonalization
     ethr =  1.92E-10,  avg # of iterations =  4.1

     total cpu time spent up to now is      742.9 secs

     total energy              =    -366.65938965 Ry
     Harris-Foulkes estimate   =    -366.65938966 Ry
     estimated scf accuracy    <       0.00000001 Ry

     iteration # 13     ecut=    50.00 Ry     beta= 0.70
     CG style diagonalization
     ethr =  1.93E-11,  avg # of iterations =  4.1

     total cpu time spent up to now is      757.7 secs

     End of self-consistent calculation

          k = 0.0000 0.0000 0.0000 (  7391 PWs)   bands (ev):

   -33.8036 -33.7893 -19.2675 -19.1466 -15.2385 -15.2385 -14.8465 -14.8299
   -14.8299 -14.7971 -14.7971 -14.7900 -14.2304 -14.2304  -2.7948  -2.3271
    -1.8122  -1.6942  -1.3933  -1.3933  -1.1910  -1.1910   2.9090   2.9090
     3.1910   3.1910   3.3998   3.3998   4.3424   4.3424   5.5471   5.9478

          k = 0.6076 0.3508-0.2067 (  7336 PWs)   bands (ev):

   -33.7962 -33.7962 -19.2127 -19.2127 -15.1686 -15.1686 -15.1398 -15.1398
   -14.7769 -14.7769 -14.4566 -14.4566 -14.3726 -14.3726  -2.3832  -2.3832
    -1.8037  -1.8037  -1.2597  -1.2597  -1.2241  -1.2241   2.7389   2.7389
     2.9568   2.9568   3.6027   3.6027   3.9570   3.9570   5.8408   5.8408

          k = 0.6076-0.3508-0.4134 (  7216 PWs)   bands (ev):

   -33.7985 -33.7938 -19.2533 -19.1719 -15.3700 -15.2842 -14.8202 -14.8189
   -14.7659 -14.7580 -14.7465 -14.7162 -14.2966 -14.2505  -2.4342  -2.2507
    -1.9289  -1.7425  -1.5140  -1.2528  -1.1371  -1.0747   2.5491   2.9861
     3.1057   3.1205   3.3303   3.3875   3.9012   4.1488   5.6535   6.0043

          k = 0.0000-0.0000-0.6200 (  7336 PWs)   bands (ev):

   -33.7964 -33.7964 -19.2098 -19.2098 -15.1341 -15.1341 -15.1341 -15.1341
   -14.8139 -14.8139 -14.4137 -14.4137 -14.4137 -14.4137  -2.6928  -2.6928
    -1.5887  -1.5887  -1.2862  -1.2862  -1.2862  -1.2862   3.0203   3.0203
     3.0203   3.0203   3.8721   3.8721   3.8721   3.8721   5.6971   5.6971

     highest occupied level (ev):     6.0043

!    total energy              =    -366.65938965 Ry
     Harris-Foulkes estimate   =    -366.65938965 Ry
     estimated scf accuracy    <          1.1E-09 Ry

     The total energy is the sum of the following terms:

     one-electron contribution =    -170.73731619 Ry
     hartree contribution      =     115.81940001 Ry
     xc contribution           =     -76.96760806 Ry
     ewald contribution        =    -234.77386542 Ry

     convergence has been achieved in  13 iterations

     Forces acting on atoms (cartesian axes, Ry/au):

     atom    1 type  1   force =     0.00000000    0.00000000    0.00000000
     atom    2 type  1   force =     0.00000000    0.00000000    0.00000000
     atom    3 type  2   force =    -0.00000000    0.00000000    0.00000000
     atom    4 type  2   force =     0.00000000    0.00000000   -0.00000000
     atom    5 type  3   force =     0.44397499   -0.76898724   -0.00000000
     atom    6 type  3   force =    -0.88794998   -0.00000000    0.00000000
     atom    7 type  3   force =     0.44397499    0.76898724    0.00000000
     atom    8 type  3   force =     0.88794998    0.00000000   -0.00000000
     atom    9 type  3   force =    -0.44397499   -0.76898724   -0.00000000
     atom   10 type  3   force =    -0.44397499    0.76898724    0.00000000

     Total force =     2.175024     Total SCF correction =     0.000065


     Computing stress (Cartesian axis) and pressure

          total   stress  (Ry/bohr**3)                   (kbar)     P=  607.58
   0.00618120   0.00000000  -0.00000000        909.29      0.00     -0.00
   0.00000000   0.00618120   0.00000000          0.00    909.29      0.00
  -0.00000000   0.00000000   0.00002841         -0.00      0.00      4.18


     number of scf cycles    =   3
     number of bfgs steps    =   2

     enthalpy old            =    -367.1578288989 Ry
     enthalpy new            =    -366.6588340477 Ry

     CASE: enthalpy_new > enthalpy_old

     new trust radius        =       0.2239111074 bohr
     new conv_thr            =       0.0000000100 Ry

     new unit-cell volume =    975.97315 a.u.^3 (   144.62430 Ang^3 )
     density =      2.29839 g/cm^3

CELL_PARAMETERS (alat= 12.00000000)
   0.448479345  -0.258929671   0.810622429
   0.000000000   0.517859342   0.810622429
  -0.448479345  -0.258929671   0.810622429

ATOMIC_POSITIONS (crystal)
Ca       0.500000000   0.500000000   0.500000000
Ca      -0.000000000  -0.000000000   0.000000000
C        0.250000000   0.250000000   0.250000000
C        0.750000000   0.750000000   0.750000000
O        0.480684505   1.019315495   0.250000000
O        1.019315495   0.250000000   0.480684505
O        0.250000000   0.480684505   1.019315495
O       -0.019315495   0.750000000   0.519315495
O        0.750000000   0.519315495  -0.019315495
O        0.519315495  -0.019315495   0.750000000



     Writing output data file CCO_k.save/
     NEW-OLD atomic charge density approx. for the potential

     Check: negative core charge=   -0.000003
     extrapolated charge   74.40177, renormalised to   64.00000

     total cpu time spent up to now is      778.2 secs

     Self-consistent Calculation

     iteration #  1     ecut=    50.00 Ry     beta= 0.70
     CG style diagonalization
     c_bands:  4 eigenvalues not converged
     c_bands:  2 eigenvalues not converged
     ethr =  1.00E-06,  avg # of iterations = 17.1

     total cpu time spent up to now is      835.8 secs

     total energy              =    -352.18388074 Ry
     Harris-Foulkes estimate   =    -348.84467555 Ry
     estimated scf accuracy    <      13.50065729 Ry

     iteration #  2     ecut=    50.00 Ry     beta= 0.70
     CG style diagonalization
     ethr =  1.00E-02,  avg # of iterations =  5.0

     total cpu time spent up to now is      853.3 secs

     total energy              =    -367.62785942 Ry
     Harris-Foulkes estimate   =    -378.21272605 Ry
     estimated scf accuracy    <      25.09958397 Ry

     iteration #  3     ecut=    50.00 Ry     beta= 0.70
     CG style diagonalization
     ethr =  1.00E-02,  avg # of iterations =  3.8

     total cpu time spent up to now is      866.7 secs

     total energy              =    -367.94710077 Ry
     Harris-Foulkes estimate   =    -369.34011492 Ry
     estimated scf accuracy    <       4.72160943 Ry

     iteration #  4     ecut=    50.00 Ry     beta= 0.70
     CG style diagonalization
     ethr =  7.38E-03,  avg # of iterations =  3.0

     total cpu time spent up to now is      877.7 secs

     total energy              =    -367.28319104 Ry
     Harris-Foulkes estimate   =    -368.04104981 Ry
     estimated scf accuracy    <       2.13742018 Ry

     iteration #  5     ecut=    50.00 Ry     beta= 0.70
     CG style diagonalization
     ethr =  3.34E-03,  avg # of iterations =  3.2

     total cpu time spent up to now is      889.5 secs

     total energy              =    -367.52826038 Ry
     Harris-Foulkes estimate   =    -367.42787458 Ry
     estimated scf accuracy    <       0.37707811 Ry

     iteration #  6     ecut=    50.00 Ry     beta= 0.70
     CG style diagonalization
     ethr =  5.89E-04,  avg # of iterations =  3.2

     total cpu time spent up to now is      901.1 secs

     total energy              =    -367.21015031 Ry
     Harris-Foulkes estimate   =    -367.55226312 Ry
     estimated scf accuracy    <       0.70651570 Ry

     iteration #  7     ecut=    50.00 Ry     beta= 0.70
     CG style diagonalization
     ethr =  5.89E-04,  avg # of iterations =  3.8

     total cpu time spent up to now is      915.5 secs

     total energy              =    -367.31824473 Ry
     Harris-Foulkes estimate   =    -367.31662641 Ry
     estimated scf accuracy    <       0.00388854 Ry

     iteration #  8     ecut=    50.00 Ry     beta= 0.70
     CG style diagonalization
     ethr =  6.08E-06,  avg # of iterations =  4.4

     total cpu time spent up to now is      931.2 secs

     total energy              =    -367.32580855 Ry
     Harris-Foulkes estimate   =    -367.32425736 Ry
     estimated scf accuracy    <       0.01567869 Ry

     iteration #  9     ecut=    50.00 Ry     beta= 0.70
     CG style diagonalization
     ethr =  6.08E-06,  avg # of iterations =  3.0

     total cpu time spent up to now is      942.2 secs

     total energy              =    -367.31668809 Ry
     Harris-Foulkes estimate   =    -367.32589425 Ry
     estimated scf accuracy    <       0.01950244 Ry

     iteration # 10     ecut=    50.00 Ry     beta= 0.70
     CG style diagonalization
     ethr =  6.08E-06,  avg # of iterations =  4.2

     total cpu time spent up to now is      957.0 secs

     total energy              =    -367.31942167 Ry
     Harris-Foulkes estimate   =    -367.31952906 Ry
     estimated scf accuracy    <       0.00029119 Ry

     iteration # 11     ecut=    50.00 Ry     beta= 0.70
     CG style diagonalization
     ethr =  4.55E-07,  avg # of iterations =  4.4

     total cpu time spent up to now is      972.8 secs

     total energy              =    -367.31945720 Ry
     Harris-Foulkes estimate   =    -367.31973276 Ry
     estimated scf accuracy    <       0.00057692 Ry

     iteration # 12     ecut=    50.00 Ry     beta= 0.70
     CG style diagonalization
     ethr =  4.55E-07,  avg # of iterations =  3.8

     total cpu time spent up to now is      986.6 secs

     total energy              =    -367.31954217 Ry
     Harris-Foulkes estimate   =    -367.31955060 Ry
     estimated scf accuracy    <       0.00002180 Ry

     iteration # 13     ecut=    50.00 Ry     beta= 0.70
     CG style diagonalization
     ethr =  3.41E-08,  avg # of iterations =  4.2

     total cpu time spent up to now is     1001.5 secs

     total energy              =    -367.31953706 Ry
     Harris-Foulkes estimate   =    -367.31955728 Ry
     estimated scf accuracy    <       0.00004178 Ry

     iteration # 14     ecut=    50.00 Ry     beta= 0.70
     CG style diagonalization
     ethr =  3.41E-08,  avg # of iterations =  3.8

     total cpu time spent up to now is     1015.3 secs

     total energy              =    -367.31954441 Ry
     Harris-Foulkes estimate   =    -367.31954447 Ry
     estimated scf accuracy    <       0.00000016 Ry

     iteration # 15     ecut=    50.00 Ry     beta= 0.70
     CG style diagonalization
     ethr =  2.47E-10,  avg # of iterations =  4.9

     total cpu time spent up to now is     1032.6 secs

     total energy              =    -367.31954476 Ry
     Harris-Foulkes estimate   =    -367.31954476 Ry
     estimated scf accuracy    <       0.00000010 Ry

     iteration # 16     ecut=    50.00 Ry     beta= 0.70
     CG style diagonalization
     ethr =  1.52E-10,  avg # of iterations =  3.6

     total cpu time spent up to now is     1045.7 secs

     total energy              =    -367.31954470 Ry
     Harris-Foulkes estimate   =    -367.31954478 Ry
     estimated scf accuracy    <       0.00000016 Ry

     iteration # 17     ecut=    50.00 Ry     beta= 0.70
     CG style diagonalization
     ethr =  1.52E-10,  avg # of iterations =  3.8

     total cpu time spent up to now is     1060.3 secs

     End of self-consistent calculation

          k = 0.0000 0.0000 0.0000 (  7391 PWs)   bands (ev):

   -36.0751 -36.0691 -17.5094 -17.4962 -17.0685 -17.0685 -17.0578 -16.9998
   -16.9998 -16.9096 -14.4861 -14.4861 -14.2737 -14.2737  -4.0108  -3.7862
    -2.0589  -2.0565  -2.0565  -2.0361  -2.0361  -0.9630   1.6417   1.6417
     1.9428   1.9428   1.9801   1.9801   3.0004   3.0004   3.1673   3.6023

          k = 0.5574 0.3218-0.2056 (  7336 PWs)   bands (ev):

   -36.0721 -36.0721 -17.5407 -17.5407 -17.0964 -17.0964 -17.0390 -17.0390
   -16.8694 -16.8694 -14.4086 -14.4086 -14.3680 -14.3680  -3.8033  -3.8033
    -2.1667  -2.1667  -1.9852  -1.9852  -1.4124  -1.4124   1.4767   1.4767
     1.6802   1.6802   2.2792   2.2792   2.6581   2.6581   3.4840   3.4840

          k = 0.5574-0.3218-0.4112 (  7216 PWs)   bands (ev):

   -36.0731 -36.0711 -17.6638 -17.3785 -17.1285 -17.1009 -17.0446 -16.9988
   -16.9880 -16.7836 -14.4764 -14.3955 -14.3594 -14.3258  -3.8753  -3.7257
    -2.2493  -2.0880  -2.0512  -1.8477  -1.5814  -1.3259   1.3880   1.6787
     1.7953   1.8923   1.9999   2.1345   2.5231   2.8245   3.3456   3.5647

          k = 0.0000-0.0000-0.6168 (  7336 PWs)   bands (ev):

   -36.0721 -36.0721 -17.5215 -17.5215 -17.0363 -17.0363 -17.0363 -17.0363
   -16.9636 -16.9636 -14.3780 -14.3780 -14.3780 -14.3780  -3.9665  -3.9665
    -2.0345  -2.0345  -2.0345  -2.0345  -1.4336  -1.4336   1.7409   1.7409
     1.7409   1.7409   2.5058   2.5058   2.5058   2.5058   3.3435   3.3435

     highest occupied level (ev):     3.6023

!    total energy              =    -367.31954473 Ry
     Harris-Foulkes estimate   =    -367.31954473 Ry
     estimated scf accuracy    <          2.2E-09 Ry

     The total energy is the sum of the following terms:

     one-electron contribution =    -165.15110986 Ry
     hartree contribution      =     109.11968294 Ry
     xc contribution           =     -74.74875641 Ry
     ewald contribution        =    -236.53936139 Ry

     convergence has been achieved in  17 iterations

     Forces acting on atoms (cartesian axes, Ry/au):

     atom    1 type  1   force =    -0.00000000    0.00000000    0.00000000
     atom    2 type  1   force =    -0.00000000   -0.00000000    0.00000000
     atom    3 type  2   force =    -0.00000000    0.00000000    0.00000000
     atom    4 type  2   force =     0.00000000   -0.00000000    0.00000000
     atom    5 type  3   force =    -0.00320834    0.00555702    0.00000000
     atom    6 type  3   force =     0.00641669   -0.00000000   -0.00000000
     atom    7 type  3   force =    -0.00320834   -0.00555702   -0.00000000
     atom    8 type  3   force =    -0.00641669    0.00000000    0.00000000
     atom    9 type  3   force =     0.00320834    0.00555702    0.00000000
     atom   10 type  3   force =     0.00320834   -0.00555702   -0.00000000

     Total force =     0.015718     Total SCF correction =     0.000050


     Computing stress (Cartesian axis) and pressure

          total   stress  (Ry/bohr**3)                   (kbar)     P= -103.68
  -0.00099540   0.00000000  -0.00000000       -146.43      0.00     -0.00
   0.00000000  -0.00099540  -0.00000000          0.00   -146.43     -0.00
  -0.00000000  -0.00000000  -0.00012363         -0.00     -0.00    -18.19


     number of scf cycles    =   4
     number of bfgs steps    =   2

     enthalpy old            =    -367.1578288989 Ry
     enthalpy new            =    -367.3188812752 Ry

     CASE: enthalpy_new < enthalpy_old

     new trust radius        =       0.1958092626 bohr
     new conv_thr            =       0.0000000006 Ry

     new unit-cell volume =    912.66920 a.u.^3 (   135.24362 Ang^3 )
     density =      2.45780 g/cm^3

CELL_PARAMETERS (alat= 12.00000000)
   0.434424478  -0.250815089   0.807886699
   0.000000000   0.501630179   0.807886699
  -0.434424478  -0.250815089   0.807886699

ATOMIC_POSITIONS (crystal)
Ca       0.500000000   0.500000000   0.500000000
Ca      -0.000000000  -0.000000000   0.000000000
C        0.250000000   0.250000000   0.250000000
C        0.750000000   0.750000000   0.750000000
O        0.480864492   1.019135508   0.250000000
O        1.019135508   0.250000000   0.480864492
O        0.250000000   0.480864492   1.019135508
O       -0.019135508   0.750000000   0.519135508
O        0.750000000   0.519135508  -0.019135508
O        0.519135508  -0.019135508   0.750000000



     Writing output data file CCO_k.save/
     NEW-OLD atomic charge density approx. for the potential

     Check: negative core charge=   -0.000003
     extrapolated charge   59.56164, renormalised to   64.00000

     total cpu time spent up to now is     1081.5 secs

     Self-consistent Calculation

     iteration #  1     ecut=    50.00 Ry     beta= 0.70
     CG style diagonalization
     c_bands:  2 eigenvalues not converged
     c_bands:  4 eigenvalues not converged
     c_bands:  1 eigenvalues not converged
     c_bands:  4 eigenvalues not converged
     ethr =  1.00E-06,  avg # of iterations = 10.8

     total cpu time spent up to now is     1119.7 secs

     total energy              =    -366.24356282 Ry
     Harris-Foulkes estimate   =    -375.97816714 Ry
     estimated scf accuracy    <       0.82550495 Ry

     iteration #  2     ecut=    50.00 Ry     beta= 0.70
     CG style diagonalization
     ethr =  1.29E-03,  avg # of iterations =  5.1

     total cpu time spent up to now is     1138.7 secs

     total energy              =    -367.18068852 Ry
     Harris-Foulkes estimate   =    -368.27090148 Ry
     estimated scf accuracy    <       3.17862880 Ry

     iteration #  3     ecut=    50.00 Ry     beta= 0.70
     CG style diagonalization
     ethr =  1.29E-03,  avg # of iterations =  4.0

     total cpu time spent up to now is     1153.0 secs

     total energy              =    -367.38199935 Ry
     Harris-Foulkes estimate   =    -367.45428209 Ry
     estimated scf accuracy    <       0.31591740 Ry

     iteration #  4     ecut=    50.00 Ry     beta= 0.70
     CG style diagonalization
     ethr =  4.94E-04,  avg # of iterations =  3.0

     total cpu time spent up to now is     1163.9 secs

     total energy              =    -367.35372510 Ry
     Harris-Foulkes estimate   =    -367.39155815 Ry
     estimated scf accuracy    <       0.15429776 Ry

     iteration #  5     ecut=    50.00 Ry     beta= 0.70
     CG style diagonalization
     ethr =  2.41E-04,  avg # of iterations =  3.2

     total cpu time spent up to now is     1175.6 secs

     total energy              =    -367.35139200 Ry
     Harris-Foulkes estimate   =    -367.36442021 Ry
     estimated scf accuracy    <       0.03582466 Ry

     iteration #  6     ecut=    50.00 Ry     beta= 0.70
     CG style diagonalization
     ethr =  5.60E-05,  avg # of iterations =  3.5

     total cpu time spent up to now is     1188.2 secs

     total energy              =    -367.35454342 Ry
     Harris-Foulkes estimate   =    -367.35553427 Ry
     estimated scf accuracy    <       0.00326030 Ry

     iteration #  7     ecut=    50.00 Ry     beta= 0.70
     CG style diagonalization
     ethr =  5.09E-06,  avg # of iterations =  3.5

     total cpu time spent up to now is     1200.9 secs

     total energy              =    -367.35505196 Ry
     Harris-Foulkes estimate   =    -367.35509203 Ry
     estimated scf accuracy    <       0.00090469 Ry

     iteration #  8     ecut=    50.00 Ry     beta= 0.70
     CG style diagonalization
     ethr =  1.41E-06,  avg # of iterations =  3.1

     total cpu time spent up to now is     1212.4 secs

     total energy              =    -367.35499415 Ry
     Harris-Foulkes estimate   =    -367.35516697 Ry
     estimated scf accuracy    <       0.00064035 Ry

     iteration #  9     ecut=    50.00 Ry     beta= 0.70
     CG style diagonalization
     ethr =  1.00E-06,  avg # of iterations =  3.1

     total cpu time spent up to now is     1223.9 secs

     total energy              =    -367.35493875 Ry
     Harris-Foulkes estimate   =    -367.35503452 Ry
     estimated scf accuracy    <       0.00018940 Ry

     iteration # 10     ecut=    50.00 Ry     beta= 0.70
     CG style diagonalization
     ethr =  2.96E-07,  avg # of iterations =  3.8

     total cpu time spent up to now is     1237.8 secs

     total energy              =    -367.35499121 Ry
     Harris-Foulkes estimate   =    -367.35499524 Ry
     estimated scf accuracy    <       0.00001023 Ry

     iteration # 11     ecut=    50.00 Ry     beta= 0.70
     CG style diagonalization
     ethr =  1.60E-08,  avg # of iterations =  3.9

     total cpu time spent up to now is     1251.8 secs

     total energy              =    -367.35499639 Ry
     Harris-Foulkes estimate   =    -367.35499686 Ry
     estimated scf accuracy    <       0.00000101 Ry

     iteration # 12     ecut=    50.00 Ry     beta= 0.70
     CG style diagonalization
     ethr =  1.57E-09,  avg # of iterations =  4.1

     total cpu time spent up to now is     1266.5 secs

     total energy              =    -367.35499668 Ry
     Harris-Foulkes estimate   =    -367.35499696 Ry
     estimated scf accuracy    <       0.00000085 Ry

     iteration # 13     ecut=    50.00 Ry     beta= 0.70
     CG style diagonalization
     ethr =  1.33E-09,  avg # of iterations =  3.1

     total cpu time spent up to now is     1277.9 secs

     total energy              =    -367.35499665 Ry
     Harris-Foulkes estimate   =    -367.35499673 Ry
     estimated scf accuracy    <       0.00000021 Ry

     iteration # 14     ecut=    50.00 Ry     beta= 0.70
     CG style diagonalization
     ethr =  3.29E-10,  avg # of iterations =  3.6

     total cpu time spent up to now is     1291.4 secs

     total energy              =    -367.35499668 Ry
     Harris-Foulkes estimate   =    -367.35499668 Ry
     estimated scf accuracy    <       0.00000003 Ry

     iteration # 15     ecut=    50.00 Ry     beta= 0.70
     CG style diagonalization
     ethr =  4.38E-11,  avg # of iterations =  3.3

     total cpu time spent up to now is     1303.4 secs

     total energy              =    -367.35499667 Ry
     Harris-Foulkes estimate   =    -367.35499668 Ry
     estimated scf accuracy    <       0.00000002 Ry

     iteration # 16     ecut=    50.00 Ry     beta= 0.70
     CG style diagonalization
     ethr =  2.90E-11,  avg # of iterations =  3.5

     total cpu time spent up to now is     1315.9 secs

     total energy              =    -367.35499667 Ry
     Harris-Foulkes estimate   =    -367.35499668 Ry
     estimated scf accuracy    <       0.00000001 Ry

     iteration # 17     ecut=    50.00 Ry     beta= 0.70
     CG style diagonalization
     ethr =  1.63E-11,  avg # of iterations =  3.4

     total cpu time spent up to now is     1328.2 secs

     total energy              =    -367.35499667 Ry
     Harris-Foulkes estimate   =    -367.35499667 Ry
     estimated scf accuracy    <          2.3E-09 Ry

     iteration # 18     ecut=    50.00 Ry     beta= 0.70
     CG style diagonalization
     ethr =  3.59E-12,  avg # of iterations =  3.3

     total cpu time spent up to now is     1340.0 secs

     End of self-consistent calculation

          k = 0.0000 0.0000 0.0000 (  7391 PWs)   bands (ev):

   -35.1267 -35.1180 -17.6131 -17.4898 -16.2007 -16.2007 -16.1159 -16.0855
   -16.0800 -16.0800 -14.3142 -14.3142 -14.0324 -14.0324  -3.4898  -3.1907
    -1.9893  -1.7629  -1.7629  -1.6880  -1.6880  -0.8209   2.0780   2.0780
     2.3510   2.3510   2.4687   2.4687   3.4761   3.4761   3.7663   4.2029

          k = 0.5755 0.3323-0.2063 (  7336 PWs)   bands (ev):

   -35.1222 -35.1222 -17.5710 -17.5710 -16.1865 -16.1865 -16.1528 -16.1528
   -16.0187 -16.0187 -14.2049 -14.2049 -14.1536 -14.1536  -3.2230  -3.2230
    -1.8964  -1.8964  -1.6608  -1.6608  -1.2457  -1.2457   1.9060   1.9060
     2.1103   2.1103   2.7246   2.7246   3.1030   3.1030   4.0887   4.0887

          k = 0.5755-0.3323-0.4126 (  7216 PWs)   bands (ev):

   -35.1236 -35.1208 -17.6588 -17.4781 -16.2498 -16.2456 -16.1152 -16.0721
   -16.0622 -15.9653 -14.3052 -14.1808 -14.1482 -14.0926  -3.3158  -3.1221
    -1.9464  -1.8104  -1.7804  -1.5083  -1.3936  -1.1719   1.7800   2.1012
     2.2553   2.3088   2.4476   2.5445   2.9909   3.2860   3.9295   4.1980

          k = 0.0000-0.0000-0.6189 (  7336 PWs)   bands (ev):

   -35.1223 -35.1223 -17.5595 -17.5595 -16.1461 -16.1461 -16.1461 -16.1461
   -16.0909 -16.0909 -14.1677 -14.1677 -14.1677 -14.1677  -3.4403  -3.4403
    -1.7136  -1.7136  -1.7136  -1.7136  -1.2885  -1.2885   2.1764   2.1764
     2.1764   2.1764   2.9709   2.9709   2.9709   2.9709   3.9402   3.9402

     highest occupied level (ev):     4.2029

!    total energy              =    -367.35499667 Ry
     Harris-Foulkes estimate   =    -367.35499667 Ry
     estimated scf accuracy    <          5.0E-10 Ry

     The total energy is the sum of the following terms:

     one-electron contribution =    -159.34102967 Ry
     hartree contribution      =     107.64134645 Ry
     xc contribution           =     -75.19880418 Ry
     ewald contribution        =    -240.45650928 Ry

     convergence has been achieved in  18 iterations

     Forces acting on atoms (cartesian axes, Ry/au):

     atom    1 type  1   force =     0.00000000   -0.00000000   -0.00000000
     atom    2 type  1   force =     0.00000000    0.00000000    0.00000000
     atom    3 type  2   force =     0.00000000    0.00000000    0.00000000
     atom    4 type  2   force =    -0.00000000    0.00000000    0.00000000
     atom    5 type  3   force =     0.04405920   -0.07631277   -0.00000000
     atom    6 type  3   force =    -0.08811840   -0.00000000    0.00000000
     atom    7 type  3   force =     0.04405920    0.07631277    0.00000000
     atom    8 type  3   force =     0.08811840    0.00000000   -0.00000000
     atom    9 type  3   force =    -0.04405920   -0.07631277   -0.00000000
     atom   10 type  3   force =    -0.04405920    0.07631277    0.00000000

     Total force =     0.215845     Total SCF correction =     0.000026


     Computing stress (Cartesian axis) and pressure

          total   stress  (Ry/bohr**3)                   (kbar)     P=  -11.73
  -0.00010122  -0.00000000   0.00000000        -14.89     -0.00      0.00
  -0.00000000  -0.00010122  -0.00000000         -0.00    -14.89     -0.00
   0.00000000  -0.00000000  -0.00003671          0.00     -0.00     -5.40


     number of scf cycles    =   5
     number of bfgs steps    =   3

     enthalpy old            =    -367.3188812752 Ry
     enthalpy new            =    -367.3543762519 Ry

     CASE: enthalpy_new < enthalpy_old

     new trust radius        =       0.1407101095 bohr
     new conv_thr            =       0.0000000088 Ry

     new unit-cell volume =    868.39599 a.u.^3 (   128.68301 Ang^3 )
     density =      2.58311 g/cm^3

CELL_PARAMETERS (alat= 12.00000000)
   0.424307451  -0.244974021   0.805790476
   0.000000000   0.489948042   0.805790476
  -0.424307451  -0.244974021   0.805790476

ATOMIC_POSITIONS (crystal)
Ca       0.500000000   0.500000000   0.500000000
Ca      -0.000000000  -0.000000000   0.000000000
C        0.250000000   0.250000000   0.250000000
C        0.750000000   0.750000000   0.750000000
O        0.486369641   1.013630359   0.250000000
O        1.013630359   0.250000000   0.486369641
O        0.250000000   0.486369641   1.013630359
O       -0.013630359   0.750000000   0.513630359
O        0.750000000   0.513630359  -0.013630359
O        0.513630359  -0.013630359   0.750000000



     Writing output data file CCO_k.save/
     NEW-OLD atomic charge density approx. for the potential

     Check: negative core charge=   -0.000003
     extrapolated charge   60.73767, renormalised to   64.00000

     total cpu time spent up to now is     1361.7 secs

     Self-consistent Calculation

     iteration #  1     ecut=    50.00 Ry     beta= 0.70
     CG style diagonalization
     c_bands:  2 eigenvalues not converged
     c_bands:  4 eigenvalues not converged
     ethr =  1.00E-06,  avg # of iterations =  9.9

     total cpu time spent up to now is     1397.3 secs

     total energy              =    -366.85244292 Ry
     Harris-Foulkes estimate   =    -373.33038350 Ry
     estimated scf accuracy    <       0.35474240 Ry

     iteration #  2     ecut=    50.00 Ry     beta= 0.70
     CG style diagonalization
     ethr =  5.54E-04,  avg # of iterations =  5.1

     total cpu time spent up to now is     1415.5 secs

     total energy              =    -367.34282967 Ry
     Harris-Foulkes estimate   =    -367.81396606 Ry
     estimated scf accuracy    <       1.39054877 Ry

     iteration #  3     ecut=    50.00 Ry     beta= 0.70
     CG style diagonalization
     ethr =  5.54E-04,  avg # of iterations =  3.9

     total cpu time spent up to now is     1429.7 secs

     total energy              =    -367.39864512 Ry
     Harris-Foulkes estimate   =    -367.44293339 Ry
     estimated scf accuracy    <       0.18629773 Ry

     iteration #  4     ecut=    50.00 Ry     beta= 0.70
     CG style diagonalization
     ethr =  2.91E-04,  avg # of iterations =  3.0

     total cpu time spent up to now is     1440.8 secs

     total energy              =    -367.38105029 Ry
     Harris-Foulkes estimate   =    -367.40397797 Ry
     estimated scf accuracy    <       0.08163856 Ry

     iteration #  5     ecut=    50.00 Ry     beta= 0.70
     CG style diagonalization
     ethr =  1.28E-04,  avg # of iterations =  3.2

     total cpu time spent up to now is     1452.5 secs

     total energy              =    -367.38227639 Ry
     Harris-Foulkes estimate   =    -367.38790150 Ry
     estimated scf accuracy    <       0.01501246 Ry

     iteration #  6     ecut=    50.00 Ry     beta= 0.70
     CG style diagonalization
     ethr =  2.35E-05,  avg # of iterations =  3.5

     total cpu time spent up to now is     1465.0 secs

     total energy              =    -367.38415875 Ry
     Harris-Foulkes estimate   =    -367.38414216 Ry
     estimated scf accuracy    <       0.00139497 Ry

     iteration #  7     ecut=    50.00 Ry     beta= 0.70
     CG style diagonalization
     ethr =  2.18E-06,  avg # of iterations =  3.5

     total cpu time spent up to now is     1477.8 secs

     total energy              =    -367.38435369 Ry
     Harris-Foulkes estimate   =    -367.38435462 Ry
     estimated scf accuracy    <       0.00165478 Ry

     iteration #  8     ecut=    50.00 Ry     beta= 0.70
     CG style diagonalization
     ethr =  2.18E-06,  avg # of iterations =  3.0

     total cpu time spent up to now is     1488.8 secs

     total energy              =    -367.38414193 Ry
     Harris-Foulkes estimate   =    -367.38438734 Ry
     estimated scf accuracy    <       0.00151432 Ry

     iteration #  9     ecut=    50.00 Ry     beta= 0.70
     CG style diagonalization
     ethr =  2.18E-06,  avg # of iterations =  3.0

     total cpu time spent up to now is     1499.8 secs

     total energy              =    -367.38370262 Ry
     Harris-Foulkes estimate   =    -367.38417443 Ry
     estimated scf accuracy    <       0.00094249 Ry

     iteration # 10     ecut=    50.00 Ry     beta= 0.70
     CG style diagonalization
     ethr =  1.47E-06,  avg # of iterations =  3.7

     total cpu time spent up to now is     1513.1 secs

     total energy              =    -367.38389742 Ry
     Harris-Foulkes estimate   =    -367.38390200 Ry
     estimated scf accuracy    <       0.00001103 Ry

     iteration # 11     ecut=    50.00 Ry     beta= 0.70
     CG style diagonalization
     ethr =  1.72E-08,  avg # of iterations =  4.3

     total cpu time spent up to now is     1528.5 secs

     total energy              =    -367.38391086 Ry
     Harris-Foulkes estimate   =    -367.38391110 Ry
     estimated scf accuracy    <       0.00000104 Ry

     iteration # 12     ecut=    50.00 Ry     beta= 0.70
     CG style diagonalization
     ethr =  1.62E-09,  avg # of iterations =  4.0

     total cpu time spent up to now is     1543.0 secs

     total energy              =    -367.38391142 Ry
     Harris-Foulkes estimate   =    -367.38391122 Ry
     estimated scf accuracy    <       0.00000059 Ry

     iteration # 13     ecut=    50.00 Ry     beta= 0.70
     CG style diagonalization
     ethr =  9.15E-10,  avg # of iterations =  3.5

     total cpu time spent up to now is     1555.6 secs

     total energy              =    -367.38391128 Ry
     Harris-Foulkes estimate   =    -367.38391149 Ry
     estimated scf accuracy    <       0.00000113 Ry

     iteration # 14     ecut=    50.00 Ry     beta= 0.70
     CG style diagonalization
     ethr =  9.15E-10,  avg # of iterations =  3.1

     total cpu time spent up to now is     1566.9 secs

     total energy              =    -367.38391115 Ry
     Harris-Foulkes estimate   =    -367.38391131 Ry
     estimated scf accuracy    <       0.00000070 Ry

     iteration # 15     ecut=    50.00 Ry     beta= 0.70
     CG style diagonalization
     ethr =  9.15E-10,  avg # of iterations =  3.2

     total cpu time spent up to now is     1578.9 secs

     total energy              =    -367.38391108 Ry
     Harris-Foulkes estimate   =    -367.38391119 Ry
     estimated scf accuracy    <       0.00000040 Ry

     iteration # 16     ecut=    50.00 Ry     beta= 0.70
     CG style diagonalization
     ethr =  6.22E-10,  avg # of iterations =  3.1

     total cpu time spent up to now is     1590.1 secs

     total energy              =    -367.38391109 Ry
     Harris-Foulkes estimate   =    -367.38391110 Ry
     estimated scf accuracy    <       0.00000018 Ry

     iteration # 17     ecut=    50.00 Ry     beta= 0.70
     CG style diagonalization
     ethr =  2.85E-10,  avg # of iterations =  3.0

     total cpu time spent up to now is     1601.1 secs

     total energy              =    -367.38391108 Ry
     Harris-Foulkes estimate   =    -367.38391109 Ry
     estimated scf accuracy    <       0.00000017 Ry

     iteration # 18     ecut=    50.00 Ry     beta= 0.70
     CG style diagonalization
     ethr =  2.59E-10,  avg # of iterations =  3.0

     total cpu time spent up to now is     1612.1 secs

     total energy              =    -367.38391102 Ry
     Harris-Foulkes estimate   =    -367.38391108 Ry
     estimated scf accuracy    <       0.00000012 Ry

     iteration # 19     ecut=    50.00 Ry     beta= 0.70
     CG style diagonalization
     ethr =  1.89E-10,  avg # of iterations =  3.6

     total cpu time spent up to now is     1624.8 secs

     End of self-consistent calculation

          k = 0.0000 0.0000 0.0000 (  7391 PWs)   bands (ev):

   -34.3088 -34.2970 -17.2930 -17.1541 -15.5022 -15.5022 -15.3067 -15.2962
   -15.2962 -15.2798 -13.9906 -13.9906 -13.5959 -13.5959  -3.1698  -2.8643
    -1.7280  -1.4662  -1.4662  -1.3397  -1.3397  -0.4225   2.4236   2.4236
     2.6410   2.6410   2.8548   2.8548   3.8433   3.8433   4.0747   4.5321

          k = 0.5892 0.3402-0.2068 (  7336 PWs)   bands (ev):

   -34.3028 -34.3028 -17.2421 -17.2421 -15.4326 -15.4326 -15.4269 -15.4269
   -15.2272 -15.2272 -13.8241 -13.8241 -13.7579 -13.7579  -2.8869  -2.8869
    -1.5883  -1.5883  -1.3203  -1.3203  -0.9003  -0.9003   2.2333   2.2333
     2.4528   2.4528   3.0507   3.0507   3.4289   3.4289   4.4250   4.4250

          k = 0.5892-0.3402-0.4137 (  7216 PWs)   bands (ev):

   -34.3047 -34.3008 -17.3378 -17.1407 -15.5680 -15.5433 -15.3120 -15.2792
   -15.2717 -15.1679 -13.9839 -13.8460 -13.7051 -13.6645  -3.0127  -2.7516
    -1.6460  -1.4879  -1.4412  -1.1570  -1.0484  -0.8281   2.0808   2.4017
     2.6264   2.6310   2.7916   2.8380   3.3372   3.6316   4.2406   4.5553

          k = 0.0000-0.0000-0.6205 (  7336 PWs)   bands (ev):

   -34.3029 -34.3029 -17.2314 -17.2314 -15.4139 -15.4139 -15.4139 -15.4139
   -15.2831 -15.2831 -13.7788 -13.7788 -13.7788 -13.7788  -3.1286  -3.1286
    -1.3901  -1.3901  -1.3901  -1.3901  -0.9467  -0.9467   2.5129   2.5129
     2.5129   2.5129   3.3223   3.3223   3.3223   3.3223   4.2551   4.2551

     highest occupied level (ev):     4.5553

!    total energy              =    -367.38391103 Ry
     Harris-Foulkes estimate   =    -367.38391103 Ry
     estimated scf accuracy    <          4.6E-10 Ry

     The total energy is the sum of the following terms:

     one-electron contribution =    -150.10876442 Ry
     hartree contribution      =     104.16237840 Ry
     xc contribution           =     -75.31816911 Ry
     ewald contribution        =    -246.11935589 Ry

     convergence has been achieved in  19 iterations

     Forces acting on atoms (cartesian axes, Ry/au):

     atom    1 type  1   force =     0.00000000    0.00000000    0.00000000
     atom    2 type  1   force =     0.00000000    0.00000000    0.00000000
     atom    3 type  2   force =     0.00000000    0.00000000   -0.00000000
     atom    4 type  2   force =     0.00000000    0.00000000   -0.00000000
     atom    5 type  3   force =     0.03946348   -0.06835275   -0.00000000
     atom    6 type  3   force =    -0.07892696   -0.00000000    0.00000000
     atom    7 type  3   force =     0.03946348    0.06835275    0.00000000
     atom    8 type  3   force =     0.07892696    0.00000000   -0.00000000
     atom    9 type  3   force =    -0.03946348   -0.06835275   -0.00000000
     atom   10 type  3   force =    -0.03946348    0.06835275    0.00000000

     Total force =     0.193331     Total SCF correction =     0.000034


     Computing stress (Cartesian axis) and pressure

          total   stress  (Ry/bohr**3)                   (kbar)     P=   13.14
   0.00008836   0.00000000  -0.00000000         13.00      0.00     -0.00
  -0.00000000   0.00008836   0.00000000         -0.00     13.00      0.00
   0.00000000   0.00000000   0.00009123          0.00      0.00     13.42


     number of scf cycles    =   6
     number of bfgs steps    =   4

     enthalpy old            =    -367.3543762519 Ry
     enthalpy new            =    -367.3833207098 Ry

     CASE: enthalpy_new < enthalpy_old

     new trust radius        =       0.2107911611 bohr
     new conv_thr            =       0.0000000079 Ry

     new unit-cell volume =    807.89817 a.u.^3 (   119.71816 Ang^3 )
     density =      2.77654 g/cm^3

CELL_PARAMETERS (alat= 12.00000000)
   0.409131911  -0.236212419   0.806297949
   0.000000000   0.472424838   0.806297949
  -0.409131911  -0.236212419   0.806297949

ATOMIC_POSITIONS (crystal)
Ca       0.500000000   0.500000000   0.500000000
Ca      -0.000000000  -0.000000000   0.000000000
C        0.250000000   0.250000000   0.250000000
C        0.750000000   0.750000000   0.750000000
O        0.497812860   1.002187140   0.250000000
O        1.002187140   0.250000000   0.497812860
O        0.250000000   0.497812860   1.002187140
O       -0.002187140   0.750000000   0.502187140
O        0.750000000   0.502187140  -0.002187140
O        0.502187140  -0.002187140   0.750000000



     Writing output data file CCO_k.save/
     NEW-OLD atomic charge density approx. for the potential

     Check: negative core charge=   -0.000003
     extrapolated charge   59.20831, renormalised to   64.00000

     total cpu time spent up to now is     1645.3 secs

     Self-consistent Calculation

     iteration #  1     ecut=    50.00 Ry     beta= 0.70
     CG style diagonalization
     c_bands:  2 eigenvalues not converged
     c_bands:  1 eigenvalues not converged
     ethr =  1.00E-06,  avg # of iterations = 11.3

     total cpu time spent up to now is     1685.0 secs

     total energy              =    -366.44180087 Ry
     Harris-Foulkes estimate   =    -375.26173153 Ry
     estimated scf accuracy    <       0.62579514 Ry

     iteration #  2     ecut=    50.00 Ry     beta= 0.70
     CG style diagonalization
     ethr =  9.78E-04,  avg # of iterations =  5.1

     total cpu time spent up to now is     1703.1 secs

     total energy              =    -367.36010049 Ry
     Harris-Foulkes estimate   =    -368.15583834 Ry
     estimated scf accuracy    <       2.33303601 Ry

     iteration #  3     ecut=    50.00 Ry     beta= 0.70
     CG style diagonalization
     ethr =  9.78E-04,  avg # of iterations =  3.9

     total cpu time spent up to now is     1717.0 secs

     total energy              =    -367.43846019 Ry
     Harris-Foulkes estimate   =    -367.51960657 Ry
     estimated scf accuracy    <       0.32528201 Ry

     iteration #  4     ecut=    50.00 Ry     beta= 0.70
     CG style diagonalization
     ethr =  5.08E-04,  avg # of iterations =  3.0

     total cpu time spent up to now is     1728.2 secs

     total energy              =    -367.39343328 Ry
     Harris-Foulkes estimate   =    -367.44767770 Ry
     estimated scf accuracy    <       0.14088949 Ry

     iteration #  5     ecut=    50.00 Ry     beta= 0.70
     CG style diagonalization
     ethr =  2.20E-04,  avg # of iterations =  3.5

     total cpu time spent up to now is     1741.0 secs

     total energy              =    -367.41004647 Ry
     Harris-Foulkes estimate   =    -367.41268871 Ry
     estimated scf accuracy    <       0.00564629 Ry

     iteration #  6     ecut=    50.00 Ry     beta= 0.70
     CG style diagonalization
     ethr =  8.82E-06,  avg # of iterations =  3.9

     total cpu time spent up to now is     1755.2 secs

     total energy              =    -367.41172098 Ry
     Harris-Foulkes estimate   =    -367.41136828 Ry
     estimated scf accuracy    <       0.00063882 Ry

     iteration #  7     ecut=    50.00 Ry     beta= 0.70
     CG style diagonalization
     ethr =  9.98E-07,  avg # of iterations =  4.0

     total cpu time spent up to now is     1769.5 secs

     total energy              =    -367.41095881 Ry
     Harris-Foulkes estimate   =    -367.41196820 Ry
     estimated scf accuracy    <       0.00253724 Ry

     iteration #  8     ecut=    50.00 Ry     beta= 0.70
     CG style diagonalization
     ethr =  9.98E-07,  avg # of iterations =  4.1

     total cpu time spent up to now is     1784.0 secs

     total energy              =    -367.41110823 Ry
     Harris-Foulkes estimate   =    -367.41123841 Ry
     estimated scf accuracy    <       0.00023436 Ry

     iteration #  9     ecut=    50.00 Ry     beta= 0.70
     CG style diagonalization
     ethr =  3.66E-07,  avg # of iterations =  3.8

     total cpu time spent up to now is     1797.7 secs

     total energy              =    -367.41117768 Ry
     Harris-Foulkes estimate   =    -367.41118248 Ry
     estimated scf accuracy    <       0.00002266 Ry

     iteration # 10     ecut=    50.00 Ry     beta= 0.70
     CG style diagonalization
     ethr =  3.54E-08,  avg # of iterations =  3.4

     total cpu time spent up to now is     1810.2 secs

     total energy              =    -367.41117851 Ry
     Harris-Foulkes estimate   =    -367.41118102 Ry
     estimated scf accuracy    <       0.00000532 Ry

     iteration # 11     ecut=    50.00 Ry     beta= 0.70
     CG style diagonalization
     ethr =  8.32E-09,  avg # of iterations =  3.7

     total cpu time spent up to now is     1824.1 secs

     total energy              =    -367.41117938 Ry
     Harris-Foulkes estimate   =    -367.41117939 Ry
     estimated scf accuracy    <       0.00000007 Ry

     iteration # 12     ecut=    50.00 Ry     beta= 0.70
     CG style diagonalization
     ethr =  1.11E-10,  avg # of iterations =  4.3

     total cpu time spent up to now is     1839.4 secs

     total energy              =    -367.41117942 Ry
     Harris-Foulkes estimate   =    -367.41117944 Ry
     estimated scf accuracy    <       0.00000009 Ry

     iteration # 13     ecut=    50.00 Ry     beta= 0.70
     CG style diagonalization
     ethr =  1.11E-10,  avg # of iterations =  3.4

     total cpu time spent up to now is     1851.7 secs

     total energy              =    -367.41117942 Ry
     Harris-Foulkes estimate   =    -367.41117942 Ry
     estimated scf accuracy    <       0.00000001 Ry

     iteration # 14     ecut=    50.00 Ry     beta= 0.70
     CG style diagonalization
     ethr =  2.33E-11,  avg # of iterations =  3.6

     total cpu time spent up to now is     1864.8 secs

     End of self-consistent calculation

          k = 0.0000 0.0000 0.0000 (  7391 PWs)   bands (ev):

   -33.0231 -33.0044 -16.6169 -16.4768 -14.5304 -14.5304 -14.0806 -14.0806
   -14.0396 -13.9939 -13.4008 -13.4008 -12.7058 -12.7058  -2.6956  -2.3968
    -1.2347  -0.9828  -0.9828  -0.7425  -0.7425   0.3292   2.9621   2.9621
     3.1020   3.1020   3.4875   3.4875   4.4004   4.4004   4.4774   4.9803

          k = 0.6110 0.3528-0.2067 (  7336 PWs)   bands (ev):

   -33.0133 -33.0133 -16.5646 -16.5646 -14.3988 -14.3988 -14.3641 -14.3641
   -13.9766 -13.9766 -13.0364 -13.0364 -12.9519 -12.9519  -2.4012  -2.4012
    -1.0509  -1.0509  -0.7345  -0.7345  -0.2731  -0.2731   2.7495   2.7495
     3.0142   3.0142   3.5458   3.5458   3.9081   3.9081   4.8962   4.8962

          k = 0.6110-0.3528-0.4134 (  7216 PWs)   bands (ev):

   -33.0164 -33.0102 -16.6867 -16.4325 -14.6464 -14.5795 -14.0557 -14.0511
   -14.0347 -13.8952 -13.4010 -13.2414 -12.7866 -12.7715  -2.5955  -2.1946
    -1.1396  -0.9214  -0.8193  -0.5636  -0.4251  -0.2037   2.5416   2.8554
     3.1175   3.2464   3.2791   3.3511   3.8661   4.1411   4.6648   5.0659

          k = 0.0000-0.0000-0.6201 (  7336 PWs)   bands (ev):

   -33.0137 -33.0137 -16.5553 -16.5553 -14.3680 -14.3680 -14.3680 -14.3680
   -14.0050 -14.0050 -12.9914 -12.9914 -12.9914 -12.9914  -2.6640  -2.6640
    -0.8502  -0.8502  -0.8502  -0.8502  -0.3257  -0.3257   3.0504   3.0504
     3.0504   3.0504   3.8721   3.8721   3.8721   3.8721   4.6755   4.6755

     highest occupied level (ev):     5.0659

!    total energy              =    -367.41117942 Ry
     Harris-Foulkes estimate   =    -367.41117942 Ry
     estimated scf accuracy    <          5.8E-10 Ry

     The total energy is the sum of the following terms:

     one-electron contribution =    -135.00156598 Ry
     hartree contribution      =      98.39171331 Ry
     xc contribution           =     -75.41364283 Ry
     ewald contribution        =    -255.38768392 Ry

     convergence has been achieved in  14 iterations

     Forces acting on atoms (cartesian axes, Ry/au):

     atom    1 type  1   force =     0.00000000    0.00000000    0.00000000
     atom    2 type  1   force =     0.00000000    0.00000000    0.00000000
     atom    3 type  2   force =    -0.00000000   -0.00000000    0.00000000
     atom    4 type  2   force =     0.00000000    0.00000000   -0.00000000
     atom    5 type  3   force =     0.01073487   -0.01859334   -0.00000000
     atom    6 type  3   force =    -0.02146974   -0.00000000    0.00000000
     atom    7 type  3   force =     0.01073487    0.01859334    0.00000000
     atom    8 type  3   force =     0.02146974    0.00000000   -0.00000000
     atom    9 type  3   force =    -0.01073487   -0.01859334   -0.00000000
     atom   10 type  3   force =    -0.01073487    0.01859334    0.00000000

     Total force =     0.052590     Total SCF correction =     0.000066


     Computing stress (Cartesian axis) and pressure

          total   stress  (Ry/bohr**3)                   (kbar)     P=   36.68
   0.00017733   0.00000000  -0.00000000         26.09      0.00     -0.00
   0.00000000   0.00017733   0.00000000          0.00     26.09      0.00
  -0.00000000   0.00000000   0.00039343         -0.00      0.00     57.88


     number of scf cycles    =   7
     number of bfgs steps    =   5

     enthalpy old            =    -367.3833207098 Ry
     enthalpy new            =    -367.4106302212 Ry

     CASE: enthalpy_new < enthalpy_old

     new trust radius        =       0.0399564765 bohr
     new conv_thr            =       0.0000000021 Ry

     new unit-cell volume =    813.71528 a.u.^3 (   120.58016 Ang^3 )
     density =      2.75669 g/cm^3

CELL_PARAMETERS (alat= 12.00000000)
   0.409166755  -0.236232536   0.811965226
   0.000000000   0.472465072   0.811965226
  -0.409166755  -0.236232536   0.811965226

ATOMIC_POSITIONS (crystal)
Ca       0.500000000   0.500000000   0.500000000
Ca      -0.000000000  -0.000000000   0.000000000
C        0.250000000   0.250000000   0.250000000
C        0.750000000   0.750000000   0.750000000
O        0.499436461   1.000563539   0.250000000
O        1.000563539   0.250000000   0.499436461
O        0.250000000   0.499436461   1.000563539
O       -0.000563539   0.750000000   0.500563539
O        0.750000000   0.500563539  -0.000563539
O        0.500563539  -0.000563539   0.750000000



     Writing output data file CCO_k.save/
     NEW-OLD atomic charge density approx. for the potential

     Check: negative core charge=   -0.000003
     extrapolated charge   64.45745, renormalised to   64.00000

     total cpu time spent up to now is     1886.2 secs

     Self-consistent Calculation

     iteration #  1     ecut=    50.00 Ry     beta= 0.70
     CG style diagonalization
     c_bands:  2 eigenvalues not converged
     ethr =  1.00E-06,  avg # of iterations =  6.8

     total cpu time spent up to now is     1910.8 secs

     total energy              =    -367.40064702 Ry
     Harris-Foulkes estimate   =    -366.66997180 Ry
     estimated scf accuracy    <       0.01168020 Ry

     iteration #  2     ecut=    50.00 Ry     beta= 0.70
     CG style diagonalization
     ethr =  1.83E-05,  avg # of iterations =  4.8

     total cpu time spent up to now is     1927.9 secs

     total energy              =    -367.41302221 Ry
     Harris-Foulkes estimate   =    -367.42397534 Ry
     estimated scf accuracy    <       0.02853911 Ry

     iteration #  3     ecut=    50.00 Ry     beta= 0.70
[...]

     total energy              =    -367.43137396 Ry
     Harris-Foulkes estimate   =    -367.43137396 Ry
     estimated scf accuracy    <          3.3E-10 Ry

     iteration #  8     ecut=    50.00 Ry     beta= 0.70
     CG style diagonalization
     ethr =  5.10E-13,  avg # of iterations =  3.7

     total cpu time spent up to now is     3132.9 secs

     End of self-consistent calculation

          k = 0.0000 0.0000 0.0000 (  7391 PWs)   bands (ev):

   -33.6991 -33.6866 -17.0824 -17.0726 -15.1291 -15.1291 -14.7643 -14.7643
   -14.6717 -14.5635 -13.9050 -13.9050 -13.3740 -13.3740  -3.3146  -3.0418
    -1.6911  -1.5343  -1.5343  -1.2753  -1.2753  -0.4019   2.3562   2.3562
     2.7877   2.7877   2.9599   2.9599   3.5751   3.5751   3.7753   4.2024

          k = 0.6289 0.3631-0.1844 (  7336 PWs)   bands (ev):

   -33.6924 -33.6924 -17.0594 -17.0594 -15.0176 -15.0176 -15.0037 -15.0037
   -14.6513 -14.6513 -13.5912 -13.5912 -13.5746 -13.5746  -2.9625  -2.9625
    -1.5010  -1.5010  -1.2294  -1.2294  -0.9169  -0.9169   2.1590   2.1590
     2.5436   2.5436   2.8420   2.8420   3.1033   3.1033   4.3124   4.3124

          k = 0.6289-0.3631-0.3689 (  7216 PWs)   bands (ev):

   -33.6945 -33.6903 -17.1609 -16.9499 -15.2160 -15.2130 -14.7469 -14.7202
   -14.6981 -14.5715 -13.9440 -13.8351 -13.3897 -13.3497  -3.1326  -2.7858
    -1.5945  -1.3796  -1.2540  -1.1864  -0.9665  -0.8628   1.9177   2.2374
     2.5113   2.6908   2.7331   2.7441   3.1350   3.2585   4.1263   4.4875

          k = 0.0000 0.0000-0.5533 (  7336 PWs)   bands (ev):

   -33.6929 -33.6929 -17.0801 -17.0801 -14.9825 -14.9825 -14.9825 -14.9825
   -14.6139 -14.6139 -13.6042 -13.6042 -13.6042 -13.6042  -3.2346  -3.2346
    -1.4048  -1.4048  -1.4048  -1.4048  -1.0069  -1.0069   2.5710   2.5710
     2.5710   2.5710   3.2470   3.2470   3.2470   3.2470   3.9670   3.9670

     highest occupied level (ev):     4.4875

!    total energy              =    -367.43137396 Ry
     Harris-Foulkes estimate   =    -367.43137396 Ry
     estimated scf accuracy    <          1.5E-11 Ry

     The total energy is the sum of the following terms:

     one-electron contribution =    -148.14158463 Ry
     hartree contribution      =     103.45696754 Ry
     xc contribution           =     -75.27067943 Ry
     ewald contribution        =    -247.47607744 Ry

     convergence has been achieved in   8 iterations

     Forces acting on atoms (cartesian axes, Ry/au):

     atom    1 type  1   force =    -0.00000000   -0.00000000   -0.00000000
     atom    2 type  1   force =     0.00000000    0.00000000   -0.00000000
     atom    3 type  2   force =     0.00000000   -0.00000000    0.00000000
     atom    4 type  2   force =    -0.00000000   -0.00000000    0.00000000
     atom    5 type  3   force =    -0.00002611    0.00004522    0.00000000
     atom    6 type  3   force =     0.00005222   -0.00000000    0.00000000
     atom    7 type  3   force =    -0.00002611   -0.00004522   -0.00000000
     atom    8 type  3   force =    -0.00005222    0.00000000   -0.00000000
     atom    9 type  3   force =     0.00002611    0.00004522    0.00000000
     atom   10 type  3   force =     0.00002611   -0.00004522   -0.00000000

     Total force =     0.000128     Total SCF correction =     0.000006


     Computing stress (Cartesian axis) and pressure

          total   stress  (Ry/bohr**3)                   (kbar)     P=   -0.12
  -0.00000036  -0.00000000  -0.00000000         -0.05     -0.00     -0.00
  -0.00000000  -0.00000036  -0.00000000         -0.00     -0.05     -0.00
  -0.00000000  -0.00000000  -0.00000166         -0.00     -0.00     -0.24


     BFGS Geometry Optimization

     bfgs converged in   1 scf cycles and   0 bfgs steps
     (criteria: energy <  1.0E-04 Ry, force <  1.0E-03Ry/Bohr, cell <  5.0E-01kbar)

     End of BFGS Geometry Optimization

     Final enthalpy =    -367.4307929249 Ry
Begin final coordinates
     new unit-cell volume =    854.72626 a.u.^3 (   126.65736 Ang^3 )
     density =      2.62442 g/cm^3

CELL_PARAMETERS (alat= 12.00000000)
   0.397520512  -0.229508575   0.903594548
  -0.000000000   0.459017149   0.903594548
  -0.397520512  -0.229508575   0.903594548

ATOMIC_POSITIONS (crystal)
Ca       0.500000000   0.500000000   0.500000000
Ca      -0.000000000  -0.000000000   0.000000000
C        0.250000000   0.250000000   0.250000000
C        0.750000000   0.750000000   0.750000000
O        0.506900245   0.993099755   0.250000000
O        0.993099755   0.250000000   0.506900245
O        0.250000000   0.506900245   0.993099755
O        0.006900245   0.750000000   0.493099755
O        0.750000000   0.493099755   0.006900245
O        0.493099755   0.006900245   0.750000000
End final coordinates



     Writing output data file CCO_k.save/

     A final scf calculation at the relaxed structure.
     The G-vectors are recalculated for the final unit cell
     Results may differ from those at the preceding step.
 
     G-vector sticks info
     --------------------
     sticks:   dense  smooth     PW     G-vecs:    dense   smooth      PW
     Sum        1703    1703    481                40837    40837    6091
 


     bravais-lattice index     =            5
     lattice parameter (alat)  =      12.0000  a.u.
     unit-cell volume          =     854.7263 (a.u.)^3
     number of atoms/cell      =           10
     number of atomic types    =            3
     number of electrons       =        64.00
     number of Kohn-Sham states=           32
     kinetic-energy cutoff     =      50.0000  Ry
     charge density cutoff     =     200.0000  Ry
     convergence threshold     =      2.5E-10
     mixing beta               =       0.7000
     number of iterations used =            8  plain     mixing
     Exchange-correlation      = SLA  PW   PBE  PBE ( 1  4  3  4 0 0)

     celldm(1)=  12.000000  celldm(2)=   0.000000  celldm(3)=   0.000000
     celldm(4)=   0.500000  celldm(5)=   0.000000  celldm(6)=   0.000000

     crystal axes: (cart. coord. in units of alat)
               a(1) = (   0.397521  -0.229509   0.903595 )  
               a(2) = (  -0.000000   0.459017   0.903595 )  
               a(3) = (  -0.397521  -0.229509   0.903595 )  

     reciprocal axes: (cart. coord. in units 2 pi/alat)
               b(1) = (  1.257797 -0.726189  0.368897 )  
               b(2) = (  0.000000  1.452379  0.368897 )  
               b(3) = ( -1.257797 -0.726189  0.368897 )  


     PseudoPot. # 1 for Ca read from file:
     ./Ca_PBE.UPF
     MD5 check sum: 403a4c14b9e4d4dfdc3024c9a3812218
     Pseudo is Ultrasoft + core correction, Zval = 10.0
     Generated by new atomic code, or converted to UPF format
     Using radial grid of  845 points,  6 beta functions with: 
                l(1) =   0
                l(2) =   0
                l(3) =   1
                l(4) =   1
                l(5) =   2
                l(6) =   2
     Q(r) pseudized with  8 coefficients,  rinner =    1.500   1.500   1.500
                                                       1.500   1.500

     PseudoPot. # 2 for C  read from file:
     ./C_PBE.UPF
     MD5 check sum: d1aef80898a10debaa0f26306b886e00
     Pseudo is Ultrasoft + core correction, Zval =  4.0
     Generated by new atomic code, or converted to UPF format
     Using radial grid of  721 points,  4 beta functions with: 
                l(1) =   0
                l(2) =   0
                l(3) =   1
                l(4) =   1
     Q(r) pseudized with  8 coefficients,  rinner =    1.100   1.100   1.100


     PseudoPot. # 3 for O  read from file:
     ./O_PBE.UPF
     MD5 check sum: 734c27235a0248c51dbae37a1fbe46ec
     Pseudo is Ultrasoft + core correction, Zval =  6.0
     Generated by new atomic code, or converted to UPF format
     Using radial grid of  737 points,  5 beta functions with: 
                l(1) =   0
                l(2) =   0
                l(3) =   1
                l(4) =   1
                l(5) =   2
     Q(r) pseudized with  8 coefficients,  rinner =    0.900   0.900   0.900
                                                       0.900   0.900

     atomic species   valence    mass     pseudopotential
        Ca            10.00    40.07800     Ca( 1.00)
        C              4.00    12.01070     C ( 1.00)
        O              6.00    16.00000     O ( 1.00)

     12 Sym. Ops., with inversion, found ( 6 have fractional translation)



   Cartesian axes

     site n.     atom                  positions (alat units)
         1           Ca  tau(   1) = (  -0.0000000  -0.0000000   1.3553918  )
         2           Ca  tau(   2) = (  -0.0000000  -0.0000000  -0.0000000  )
         3           C   tau(   3) = (   0.0000000  -0.0000000   0.6776959  )
         4           C   tau(   4) = (  -0.0000000  -0.0000000   2.0330877  )
         5           O   tau(   5) = (   0.1021231   0.2821347   1.5812905  )
         6           O   tau(   6) = (   0.1932743  -0.2295086   1.5812905  )
         7           O   tau(   7) = (  -0.2953974  -0.0526261   1.5812905  )
         8           O   tau(   8) = (  -0.1932743   0.2295086   1.1294932  )
         9           O   tau(   9) = (   0.2953974   0.0526261   1.1294932  )
        10           O   tau(  10) = (  -0.1021231  -0.2821347   1.1294932  )

     number of k points=     4
                       cart. coord. in units 2pi/alat
        k(    1) = (   0.0000000   0.0000000   0.0000000), wk =   0.2500000
        k(    2) = (   0.6288984   0.3630946  -0.1844485), wk =   0.7500000
        k(    3) = (   0.6288984  -0.3630946  -0.3688970), wk =   0.7500000
        k(    4) = (   0.0000000   0.0000000  -0.5533455), wk =   0.2500000

     Dense  grid:    40837 G-vectors     FFT dimensions: (  60,  60,  60)

     Estimated max dynamical RAM per process >     204.92 MB

     Check: negative core charge=   -0.000003

     Initial potential from superposition of free atoms

     starting charge   63.98899, renormalised to   64.00000
     Starting wfcs are   52 randomized atomic wfcs

     total cpu time spent up to now is     3156.3 secs

     Self-consistent Calculation

     iteration #  1     ecut=    50.00 Ry     beta= 0.70
     CG style diagonalization
     c_bands:  4 eigenvalues not converged
     c_bands:  2 eigenvalues not converged
     c_bands:  3 eigenvalues not converged
     ethr =  1.00E-06,  avg # of iterations = 11.0

     total cpu time spent up to now is     3189.5 secs

     total energy              =    -366.72710560 Ry
     Harris-Foulkes estimate   =    -367.90303438 Ry
     estimated scf accuracy    <       1.68862747 Ry

     iteration #  2     ecut=    50.00 Ry     beta= 0.70
     CG style diagonalization
     ethr =  2.64E-03,  avg # of iterations =  4.3

     total cpu time spent up to now is     3203.0 secs

     total energy              =    -367.10958272 Ry
     Harris-Foulkes estimate   =    -367.87875041 Ry
     estimated scf accuracy    <       1.57359671 Ry

     iteration #  3     ecut=    50.00 Ry     beta= 0.70
     CG style diagonalization
     ethr =  2.46E-03,  avg # of iterations =  3.8

     total cpu time spent up to now is     3215.3 secs

     total energy              =    -367.41773756 Ry
     Harris-Foulkes estimate   =    -367.42057084 Ry
     estimated scf accuracy    <       0.01318213 Ry

     iteration #  4     ecut=    50.00 Ry     beta= 0.70
     CG style diagonalization
     ethr =  2.06E-05,  avg # of iterations =  4.2

     total cpu time spent up to now is     3228.6 secs

     total energy              =    -367.42890825 Ry
     Harris-Foulkes estimate   =    -367.42991007 Ry
     estimated scf accuracy    <       0.00259827 Ry

     iteration #  5     ecut=    50.00 Ry     beta= 0.70
     CG style diagonalization
     ethr =  4.06E-06,  avg # of iterations =  3.6

     total cpu time spent up to now is     3240.0 secs

     total energy              =    -367.42935432 Ry
     Harris-Foulkes estimate   =    -367.42935140 Ry
     estimated scf accuracy    <       0.00007512 Ry

     iteration #  6     ecut=    50.00 Ry     beta= 0.70
     CG style diagonalization
     ethr =  1.17E-07,  avg # of iterations =  4.1

     total cpu time spent up to now is     3253.3 secs

     total energy              =    -367.42938194 Ry
     Harris-Foulkes estimate   =    -367.42938895 Ry
     estimated scf accuracy    <       0.00001694 Ry

     iteration #  7     ecut=    50.00 Ry     beta= 0.70
     CG style diagonalization
     ethr =  2.65E-08,  avg # of iterations =  3.6

     total cpu time spent up to now is     3264.9 secs

     total energy              =    -367.42938494 Ry
     Harris-Foulkes estimate   =    -367.42938510 Ry
     estimated scf accuracy    <       0.00000066 Ry

     iteration #  8     ecut=    50.00 Ry     beta= 0.70
     CG style diagonalization
     ethr =  1.03E-09,  avg # of iterations =  4.2

     total cpu time spent up to now is     3278.3 secs

     total energy              =    -367.42938519 Ry
     Harris-Foulkes estimate   =    -367.42938528 Ry
     estimated scf accuracy    <       0.00000019 Ry

     iteration #  9     ecut=    50.00 Ry     beta= 0.70
     CG style diagonalization
     ethr =  2.94E-10,  avg # of iterations =  3.6

     total cpu time spent up to now is     3289.9 secs

     total energy              =    -367.42938524 Ry
     Harris-Foulkes estimate   =    -367.42938525 Ry
     estimated scf accuracy    <       0.00000001 Ry

     iteration # 10     ecut=    50.00 Ry     beta= 0.70
     CG style diagonalization
     ethr =  1.95E-11,  avg # of iterations =  4.0

     total cpu time spent up to now is     3302.8 secs

     total energy              =    -367.42938524 Ry
     Harris-Foulkes estimate   =    -367.42938524 Ry
     estimated scf accuracy    <          4.9E-10 Ry

     iteration # 11     ecut=    50.00 Ry     beta= 0.70
     CG style diagonalization
     ethr =  7.63E-13,  avg # of iterations =  4.3

     total cpu time spent up to now is     3316.6 secs

     End of self-consistent calculation

          k = 0.0000 0.0000 0.0000 (  5161 PWs)   bands (ev):

   -33.6989 -33.6864 -17.0830 -17.0733 -15.1289 -15.1289 -14.7640 -14.7640
   -14.6717 -14.5636 -13.9056 -13.9056 -13.3744 -13.3744  -3.3144  -3.0415
    -1.6912  -1.5339  -1.5339  -1.2749  -1.2749  -0.4021   2.3563   2.3563
     2.7879   2.7879   2.9602   2.9602   3.5752   3.5752   3.7758   4.2028

          k = 0.6289 0.3631-0.1844 (  5096 PWs)   bands (ev):

   -33.6922 -33.6922 -17.0601 -17.0601 -15.0175 -15.0175 -15.0038 -15.0038
   -14.6510 -14.6510 -13.5917 -13.5917 -13.5751 -13.5751  -2.9622  -2.9622
    -1.5007  -1.5007  -1.2288  -1.2288  -0.9169  -0.9169   2.1592   2.1592
     2.5439   2.5439   2.8420   2.8420   3.1034   3.1034   4.3129   4.3129

          k = 0.6289-0.3631-0.3689 (  5104 PWs)   bands (ev):

   -33.6943 -33.6901 -17.1615 -16.9506 -15.2159 -15.2131 -14.7465 -14.7199
   -14.6981 -14.5713 -13.9446 -13.8357 -13.3900 -13.3501  -3.1323  -2.7855
    -1.5940  -1.3791  -1.2537  -1.1859  -0.9663  -0.8629   1.9178   2.2375
     2.5115   2.6910   2.7331   2.7445   3.1349   3.2585   4.1268   4.4880

          k = 0.0000 0.0000-0.5533 (  5076 PWs)   bands (ev):

   -33.6927 -33.6927 -17.0807 -17.0807 -14.9824 -14.9824 -14.9824 -14.9824
   -14.6139 -14.6139 -13.6046 -13.6046 -13.6046 -13.6046  -3.2343  -3.2343
    -1.4043  -1.4043  -1.4043  -1.4043  -1.0070  -1.0070   2.5712   2.5712
     2.5712   2.5712   3.2473   3.2473   3.2473   3.2473   3.9675   3.9675

     highest occupied level (ev):     4.4880

!    total energy              =    -367.42938524 Ry
     Harris-Foulkes estimate   =    -367.42938524 Ry
     estimated scf accuracy    <          1.2E-10 Ry

     The total energy is the sum of the following terms:

     one-electron contribution =    -148.13824123 Ry
     hartree contribution      =     103.45515264 Ry
     xc contribution           =     -75.27021923 Ry
     ewald contribution        =    -247.47607742 Ry

     convergence has been achieved in  11 iterations

     Forces acting on atoms (cartesian axes, Ry/au):

     atom    1 type  1   force =     0.00000000    0.00000000   -0.00000000
     atom    2 type  1   force =     0.00000000   -0.00000000   -0.00000000
     atom    3 type  2   force =    -0.00000000    0.00000000    0.00000000
     atom    4 type  2   force =     0.00000000    0.00000000    0.00000000
     atom    5 type  3   force =    -0.00002000    0.00003464    0.00000000
     atom    6 type  3   force =     0.00004000   -0.00000000    0.00000000
     atom    7 type  3   force =    -0.00002000   -0.00003464   -0.00000000
     atom    8 type  3   force =    -0.00004000    0.00000000   -0.00000000
     atom    9 type  3   force =     0.00002000    0.00003464    0.00000000
     atom   10 type  3   force =     0.00002000   -0.00003464   -0.00000000

     Total force =     0.000098     Total SCF correction =     0.000023
     SCF correction compared to forces is large: reduce conv_thr to get better values


     Computing stress (Cartesian axis) and pressure

          total   stress  (Ry/bohr**3)                   (kbar)     P=   -1.23
  -0.00001002  -0.00000000  -0.00000000         -1.47     -0.00     -0.00
  -0.00000000  -0.00001002  -0.00000000         -0.00     -1.47     -0.00
  -0.00000000  -0.00000000  -0.00000498         -0.00     -0.00     -0.73


     Writing output data file CCO_k.save/
 
     init_run     :     21.35s CPU     22.96s WALL (       2 calls)
     electrons    :   2947.96s CPU   3006.03s WALL (      15 calls)
     update_pot   :     72.83s CPU     72.90s WALL (      13 calls)
     forces       :     66.55s CPU     67.71s WALL (      15 calls)
     stress       :    140.75s CPU    143.57s WALL (      15 calls)

     Called by init_run:
     wfcinit      :      7.14s CPU      7.73s WALL (       2 calls)
     potinit      :      1.88s CPU      2.00s WALL (       2 calls)
     hinit0       :     11.52s CPU     12.06s WALL (       2 calls)

     Called by electrons:
     c_bands      :   2514.42s CPU   2546.04s WALL (     200 calls)
     sum_band     :    293.88s CPU    307.39s WALL (     200 calls)
     v_of_rho     :     68.16s CPU     68.36s WALL (     215 calls)
     newd         :     76.63s CPU     89.68s WALL (     215 calls)
     mix_rho      :      4.18s CPU      4.22s WALL (     200 calls)

     Called by c_bands:
     init_us_2    :     23.91s CPU     24.02s WALL (    1728 calls)
     ccgdiagg     :   2118.32s CPU   2145.94s WALL (     805 calls)
     wfcrot       :    389.94s CPU    392.89s WALL (     753 calls)

     Called by sum_band:
     sum_band:bec :      0.15s CPU      0.15s WALL (     800 calls)
     addusdens    :     78.27s CPU     90.13s WALL (     200 calls)

     Called by *cgdiagg:
     h_psi        :   1922.67s CPU   1940.43s WALL (   84027 calls)
     s_psi        :    324.47s CPU    332.75s WALL (  167301 calls)
     cdiaghg      :      0.85s CPU      1.19s WALL (     753 calls)

     Called by h_psi:
     h_psi:pot    :   1917.84s CPU   1935.16s WALL (   84027 calls)
     h_psi:calbec :    164.92s CPU    167.73s WALL (   84027 calls)
     vloc_psi     :   1581.43s CPU   1593.48s WALL (   84027 calls)
     add_vuspsi   :    167.12s CPU    171.07s WALL (   84027 calls)
     hs_1psi      :   1718.17s CPU   1735.93s WALL (   83274 calls)
     s_1psi       :    321.02s CPU    326.45s WALL (   83274 calls)

     General routines
     calbec       :    326.25s CPU    335.04s WALL (  168401 calls)
     fft          :     18.27s CPU     18.61s WALL (    2753 calls)
     ffts         :      1.37s CPU      1.37s WALL (     200 calls)
     fftw         :   1568.88s CPU   1575.58s WALL (  240660 calls)
 
     Parallel routines
 
     PWSCF        :  54m15.15s CPU  55m22.59s WALL

 
   This run was terminated on:  13:33: 8  23Apr2022            

=------------------------------------------------------------------------------=
   JOB DONE.
=------------------------------------------------------------------------------=
