
     Program PWSCF v.6.4.1 starts on 24Apr2022 at 15:38:43 

     This program is part of the open-source Quantum ESPRESSO suite
     for quantum simulation of materials; please cite
         "P. Giannozzi et al., J. Phys.:Condens. Matter 21 395502 (2009);
         "P. Giannozzi et al., J. Phys.:Condens. Matter 29 465901 (2017);
          URL http://www.quantum-espresso.org", 
     in publications or presentations arising from this work. More details at
     http://www.quantum-espresso.org/quote

     Parallel version (MPI & OpenMP), running on     120 processor cores
     Number of MPI processes:               120
     Threads/MPI process:                     1

     MPI processes distributed on     2 nodes
     R & G space division:  proc/nbgrp/npool/nimage =     120
     Waiting for input...
     Reading input from standard input

     Current dimensions of program PWSCF are:
     Max number of different atomic species (ntypx) = 10
     Max number of k-points (npk) =  40000
     Max angular momentum in pseudopotentials (lmaxx) =  3

     Subspace diagonalization in iterative solution of the eigenvalue problem:
     one sub-group per band group will be used
     scalapack distributed-memory algorithm (size of sub-group:  7*  7 procs)

 
     Parallelization info
     --------------------
     sticks:   dense  smooth     PW     G-vecs:    dense   smooth      PW
     Min          16      16      4                  484      484      70
     Max          17      17      5                  491      491      78
     Sum        1981    1981    571                58383    58383    8873
 


     bravais-lattice index     =            5
     lattice parameter (alat)  =      12.0000  a.u.
     unit-cell volume          =    1221.8805 (a.u.)^3
     number of atoms/cell      =           10
     number of atomic types    =            3
     number of electrons       =        64.00
     number of Kohn-Sham states=           32
     kinetic-energy cutoff     =      50.0000  Ry
     charge density cutoff     =     200.0000  Ry
     convergence threshold     =      1.0E-05
     mixing beta               =       0.7000
     number of iterations used =            8  plain     mixing
     Exchange-correlation      = SLA  PW   PBE  PBE ( 1  4  3  4 0 0)
     nstep                     =           50


     celldm(1)=  12.000000  celldm(2)=   0.000000  celldm(3)=   0.000000
     celldm(4)=   0.500000  celldm(5)=   0.000000  celldm(6)=   0.000000

     crystal axes: (cart. coord. in units of alat)
               a(1) = (   0.500000  -0.288675   0.816497 )  
               a(2) = (   0.000000   0.577350   0.816497 )  
               a(3) = (  -0.500000  -0.288675   0.816497 )  

     reciprocal axes: (cart. coord. in units 2 pi/alat)
               b(1) = (  1.000000 -0.577350  0.408248 )  
               b(2) = (  0.000000  1.154701  0.408248 )  
               b(3) = ( -1.000000 -0.577350  0.408248 )  


     PseudoPot. # 1 for Ca read from file:
     ./Ca_PBE.UPF
     MD5 check sum: 403a4c14b9e4d4dfdc3024c9a3812218
     Pseudo is Ultrasoft + core correction, Zval = 10.0
     Generated by new atomic code, or converted to UPF format
     Using radial grid of  845 points,  6 beta functions with: 
                l(1) =   0
                l(2) =   0
                l(3) =   1
                l(4) =   1
                l(5) =   2
                l(6) =   2
     Q(r) pseudized with  8 coefficients,  rinner =    1.500   1.500   1.500
                                                       1.500   1.500

     PseudoPot. # 2 for C  read from file:
     ./C_PBE.UPF
     MD5 check sum: d1aef80898a10debaa0f26306b886e00
     Pseudo is Ultrasoft + core correction, Zval =  4.0
     Generated by new atomic code, or converted to UPF format
     Using radial grid of  721 points,  4 beta functions with: 
                l(1) =   0
                l(2) =   0
                l(3) =   1
                l(4) =   1
     Q(r) pseudized with  8 coefficients,  rinner =    1.100   1.100   1.100


     PseudoPot. # 3 for O  read from file:
     ./O_PBE.UPF
     MD5 check sum: 734c27235a0248c51dbae37a1fbe46ec
     Pseudo is Ultrasoft + core correction, Zval =  6.0
     Generated by new atomic code, or converted to UPF format
     Using radial grid of  737 points,  5 beta functions with: 
                l(1) =   0
                l(2) =   0
                l(3) =   1
                l(4) =   1
                l(5) =   2
     Q(r) pseudized with  8 coefficients,  rinner =    0.900   0.900   0.900
                                                       0.900   0.900

     atomic species   valence    mass     pseudopotential
        Ca            10.00    40.07800     Ca( 1.00)
        C              4.00    12.01070     C ( 1.00)
        O              6.00    16.00000     O ( 1.00)

     12 Sym. Ops., with inversion, found ( 6 have fractional translation)



   Cartesian axes

     site n.     atom                  positions (alat units)
         1           Ca  tau(   1) = (   0.0000000  -0.0000000   1.2247449  )
         2           Ca  tau(   2) = (   0.0000000   0.0000000   0.0000000  )
         3           C   tau(   3) = (   0.0000000  -0.0000000   0.6123724  )
         4           C   tau(   4) = (  -0.0000000  -0.0000000   1.8371173  )
         5           O   tau(   5) = (   0.1284501   0.3548681   1.4288690  )
         6           O   tau(   6) = (   0.2430998  -0.2886751   1.4288690  )
         7           O   tau(   7) = (  -0.3715499  -0.0661930   1.4288690  )
         8           O   tau(   8) = (  -0.2430998   0.2886751   1.0206207  )
         9           O   tau(   9) = (   0.3715499   0.0661930   1.0206207  )
        10           O   tau(  10) = (  -0.1284501  -0.3548681   1.0206207  )

     number of k points=    19
                       cart. coord. in units 2pi/alat
        k(    1) = (   0.0000000   0.0000000   0.0000000), wk =   0.0160000
        k(    2) = (  -0.2000000  -0.1154701   0.0816497), wk =   0.0960000
        k(    3) = (  -0.4000000  -0.2309401   0.1632993), wk =   0.0960000
        k(    4) = (  -0.2000000   0.1154701   0.1632993), wk =   0.0960000
        k(    5) = (  -0.4000000  -0.0000000   0.2449490), wk =   0.1920000
        k(    6) = (   0.4000000   0.4618802  -0.0816497), wk =   0.1920000
        k(    7) = (   0.2000000   0.3464102   0.0000000), wk =   0.0960000
        k(    8) = (  -0.4000000   0.2309401   0.3265986), wk =   0.0960000
        k(    9) = (   0.4000000   0.6928203   0.0000000), wk =   0.0960000
        k(   10) = (   0.0000000  -0.0000000   0.2449490), wk =   0.0320000
        k(   11) = (  -0.2000000  -0.1154701   0.3265986), wk =   0.0960000
        k(   12) = (   0.6000000   0.3464102   0.0000000), wk =   0.0960000
        k(   13) = (   0.4000000   0.2309401   0.0816497), wk =   0.0960000
        k(   14) = (  -0.2000000   0.1154701   0.4082483), wk =   0.0960000
        k(   15) = (   0.6000000   0.5773503   0.0816497), wk =   0.1920000
        k(   16) = (   0.4000000   0.4618802   0.1632993), wk =   0.1920000
        k(   17) = (   0.6000000  -0.3464102  -0.2449490), wk =   0.0960000
        k(   18) = (   0.0000000  -0.0000000   0.4898979), wk =   0.0320000
        k(   19) = (   0.8000000   0.4618802   0.1632993), wk =   0.0960000

     Dense  grid:    58383 G-vectors     FFT dimensions: (  60,  60,  60)

     Estimated max dynamical RAM per process >      15.83 MB

     Estimated total dynamical RAM >       1.86 GB
     Message from routine sym_rho_init:
     some processors have no G-vectors for symmetrization
     Message from routine sym_rho_init:
     some processors have no G-vectors for symmetrization
     Message from routine sym_rho_init:
     some processors have no G-vectors for symmetrization
     Message from routine sym_rho_init:
     some processors have no G-vectors for symmetrization
     Message from routine sym_rho_init:
     some processors have no G-vectors for symmetrization

     Check: negative core charge=   -0.000002

     Initial potential from superposition of free atoms

     starting charge   63.98899, renormalised to   64.00000
     Starting wfcs are   52 randomized atomic wfcs

     total cpu time spent up to now is        3.5 secs

     Self-consistent Calculation

     iteration #  1     ecut=    50.00 Ry     beta= 0.70
     CG style diagonalization
     ethr =  1.00E-02,  avg # of iterations =  2.2

     total cpu time spent up to now is        7.6 secs

     total energy              =    -365.13644208 Ry
     Harris-Foulkes estimate   =    -366.89797291 Ry
     estimated scf accuracy    <       2.39185825 Ry

     iteration #  2     ecut=    50.00 Ry     beta= 0.70
     CG style diagonalization
     ethr =  3.74E-03,  avg # of iterations =  4.8

     total cpu time spent up to now is       16.3 secs

     total energy              =    -364.98040244 Ry
     Harris-Foulkes estimate   =    -368.32807200 Ry
     estimated scf accuracy    <       9.61493534 Ry

     iteration #  3     ecut=    50.00 Ry     beta= 0.70
     CG style diagonalization
     ethr =  3.74E-03,  avg # of iterations =  4.3

     total cpu time spent up to now is       24.1 secs

     total energy              =    -366.40015114 Ry
     Harris-Foulkes estimate   =    -366.42527158 Ry
     estimated scf accuracy    <       0.05445041 Ry

     iteration #  4     ecut=    50.00 Ry     beta= 0.70
     CG style diagonalization
     ethr =  8.51E-05,  avg # of iterations =  4.3

     total cpu time spent up to now is       31.9 secs

     total energy              =    -366.43480240 Ry
     Harris-Foulkes estimate   =    -366.43796051 Ry
     estimated scf accuracy    <       0.00991520 Ry

     iteration #  5     ecut=    50.00 Ry     beta= 0.70
     CG style diagonalization
     ethr =  1.55E-05,  avg # of iterations =  3.8

     total cpu time spent up to now is       38.8 secs

     total energy              =    -366.43764898 Ry
     Harris-Foulkes estimate   =    -366.43765120 Ry
     estimated scf accuracy    <       0.00015682 Ry

     iteration #  6     ecut=    50.00 Ry     beta= 0.70
     CG style diagonalization
     ethr =  2.45E-07,  avg # of iterations =  5.2

     total cpu time spent up to now is       48.2 secs

     total energy              =    -366.43785417 Ry
     Harris-Foulkes estimate   =    -366.43789533 Ry
     estimated scf accuracy    <       0.00009919 Ry

     iteration #  7     ecut=    50.00 Ry     beta= 0.70
     CG style diagonalization
     ethr =  1.55E-07,  avg # of iterations =  3.8

     total cpu time spent up to now is       55.1 secs

     total energy              =    -366.43788158 Ry
     Harris-Foulkes estimate   =    -366.43788575 Ry
     estimated scf accuracy    <       0.00001438 Ry

     iteration #  8     ecut=    50.00 Ry     beta= 0.70
     CG style diagonalization
     ethr =  2.25E-08,  avg # of iterations =  3.6

     total cpu time spent up to now is       61.6 secs

     End of self-consistent calculation

          k = 0.0000 0.0000 0.0000 (  7391 PWs)   bands (ev):

   -38.5913 -38.5895 -19.5841 -19.5607 -19.5027 -19.5027 -19.4776 -19.4776
   -15.9212 -15.6383 -14.6378 -14.6378 -14.4895 -14.4895  -6.2872  -6.1405
    -2.5707  -2.5707  -2.4853  -2.4853  -1.7022  -0.5838   0.2951   0.2951
     0.4589   0.4589   0.5569   0.5569   0.8599   1.4274   1.4952   1.4952

          k =-0.2000-0.1155 0.0816 (  7297 PWs)   bands (ev):

   -38.5912 -38.5897 -19.5817 -19.5629 -19.5009 -19.5008 -19.4809 -19.4802
   -15.8843 -15.6694 -14.6242 -14.6154 -14.5155 -14.5066  -6.2761  -6.1373
    -2.5923  -2.5546  -2.4822  -2.4516  -1.5952  -0.7323   0.2808   0.3041
     0.3123   0.3497   0.6349   0.6768   0.9625   1.3405   1.4183   1.4671

          k =-0.4000-0.2309 0.1633 (  7315 PWs)   bands (ev):

   -38.5907 -38.5901 -19.5757 -19.5686 -19.4958 -19.4955 -19.4882 -19.4871
   -15.8061 -15.7326 -14.5931 -14.5864 -14.5551 -14.5444  -6.2277  -6.1621
    -2.5970  -2.5477  -2.4678  -2.4245  -1.3244  -1.0101   0.0868   0.1202
     0.3549   0.3929   0.7579   0.7981   1.0349   1.1213   1.4004   1.4303

          k =-0.2000 0.1155 0.1633 (  7319 PWs)   bands (ev):

   -38.5911 -38.5897 -19.5817 -19.5639 -19.5048 -19.4957 -19.4854 -19.4765
   -15.8761 -15.6759 -14.6319 -14.5999 -14.5331 -14.4984  -6.2768  -6.1386
    -2.6223  -2.5247  -2.4827  -2.4403  -1.5744  -0.7721   0.2923   0.2947
     0.3555   0.3900   0.5474   0.7404   0.9810   1.3408   1.3496   1.4413

          k =-0.4000-0.0000 0.2449 (  7286 PWs)   bands (ev):

   -38.5908 -38.5900 -19.5781 -19.5684 -19.5042 -19.4926 -19.4889 -19.4786
   -15.8189 -15.7184 -14.6207 -14.5793 -14.5630 -14.5168  -6.2462  -6.1488
    -2.6276  -2.5373  -2.4676  -2.3988  -1.3946  -0.9667   0.1395   0.1825
     0.3822   0.4228   0.6420   0.8288   1.0384   1.1652   1.3157   1.4217

          k = 0.4000 0.4619-0.0816 (  7303 PWs)   bands (ev):

   -38.5905 -38.5903 -19.5738 -19.5722 -19.4997 -19.4984 -19.4853 -19.4827
   -15.7689 -15.7597 -14.6105 -14.6020 -14.5423 -14.5352  -6.2014  -6.1794
    -2.6209  -2.5537  -2.4330  -2.4122  -1.1924  -1.1416   0.0374   0.0699
     0.3966   0.4645   0.7103   0.7874   1.0763   1.1364   1.3307   1.4156

          k = 0.2000 0.3464 0.0000 (  7291 PWs)   bands (ev):

   -38.5909 -38.5899 -19.5786 -19.5662 -19.5025 -19.4936 -19.4897 -19.4794
   -15.8330 -15.7086 -14.6189 -14.5853 -14.5529 -14.5186  -6.2560  -6.1360
    -2.6413  -2.5116  -2.4454  -2.4447  -1.4416  -0.9031   0.0966   0.1888
     0.3234   0.4112   0.6392   0.8168   1.0390   1.3133   1.3140   1.4213

          k =-0.4000 0.2309 0.3266 (  7255 PWs)   bands (ev):

   -38.5908 -38.5900 -19.5786 -19.5710 -19.5081 -19.4962 -19.4834 -19.4747
   -15.7963 -15.7317 -14.6289 -14.6043 -14.5412 -14.5153  -6.2573  -6.1310
    -2.6907  -2.4904  -2.4690  -2.3514  -1.3709  -1.0501   0.1802   0.2410
     0.4140   0.4898   0.5453   0.8864   0.9573   1.1730   1.2389   1.3880

          k = 0.4000 0.6928 0.0000 (  7300 PWs)   bands (ev):

   -38.5906 -38.5902 -19.5764 -19.5729 -19.5062 -19.4989 -19.4811 -19.4774
   -15.7750 -15.7465 -14.6281 -14.6153 -14.5300 -14.5237  -6.2262  -6.1537
    -2.6509  -2.5648  -2.4300  -2.3550  -1.2720  -1.1090   0.0918   0.1192
     0.4662   0.5679   0.6367   0.6920   1.0754   1.1356   1.2419   1.4043

          k = 0.0000-0.0000 0.2449 (  7297 PWs)   bands (ev):

   -38.5912 -38.5897 -19.5825 -19.5635 -19.5004 -19.5004 -19.4801 -19.4801
   -15.8934 -15.6647 -14.6237 -14.6237 -14.5037 -14.5037  -6.2787  -6.1598
    -2.5572  -2.5572  -2.4863  -2.4863  -1.5990  -0.7090   0.3035   0.3035
     0.4309   0.4309   0.6482   0.6482   0.8993   1.3521   1.3980   1.3980

          k =-0.2000-0.1155 0.3266 (  7291 PWs)   bands (ev):

   -38.5909 -38.5899 -19.5796 -19.5671 -19.5016 -19.4932 -19.4881 -19.4797
   -15.8481 -15.7005 -14.6151 -14.5940 -14.5371 -14.5195  -6.2556  -6.1688
    -2.5677  -2.5266  -2.5243  -2.4350  -1.4592  -0.8884   0.2732   0.2737
     0.3485   0.4760   0.6059   0.8141   0.9955   1.1715   1.3152   1.3850

          k = 0.6000 0.3464 0.0000 (  7303 PWs)   bands (ev):

   -38.5905 -38.5903 -19.5743 -19.5725 -19.4996 -19.4970 -19.4853 -19.4831
   -15.7828 -15.7494 -14.6127 -14.5758 -14.5599 -14.5368  -6.2021  -6.1904
    -2.6319  -2.4884  -2.4879  -2.4128  -1.2314  -1.1271   0.1054   0.1513
     0.4101   0.4374   0.6740   0.9010   1.0246   1.0937   1.3132   1.3604

          k = 0.4000 0.2309 0.0816 (  7286 PWs)   bands (ev):

   -38.5908 -38.5900 -19.5778 -19.5683 -19.5042 -19.4929 -19.4893 -19.4784
   -15.8109 -15.7252 -14.6183 -14.5824 -14.5599 -14.5211  -6.2527  -6.1345
    -2.6703  -2.4834  -2.4556  -2.4157  -1.3839  -0.9882   0.1038   0.1848
     0.3396   0.4166   0.6232   0.8811   1.0329   1.2669   1.3301   1.3424

          k =-0.2000 0.1155 0.4082 (  7286 PWs)   bands (ev):

   -38.5908 -38.5900 -19.5790 -19.5693 -19.5033 -19.4917 -19.4887 -19.4782
   -15.8274 -15.7184 -14.6147 -14.5731 -14.5646 -14.5157  -6.2564  -6.1715
    -2.6134  -2.5151  -2.4865  -2.4215  -1.4024  -0.9707   0.2778   0.3271
     0.4074   0.4138   0.6493   0.8785   1.0120   1.1190   1.2046   1.3449

          k = 0.6000 0.5774 0.0816 (  7289 PWs)   bands (ev):

   -38.5906 -38.5902 -19.5763 -19.5729 -19.5032 -19.4983 -19.4825 -19.4789
   -15.7842 -15.7459 -14.6164 -14.5989 -14.5462 -14.5253  -6.2188  -6.1813
    -2.6081  -2.5806  -2.4315  -2.3917  -1.2717  -1.1122   0.1732   0.1768
     0.4782   0.5217   0.6320   0.7994   1.0664   1.0991   1.2117   1.3350

          k = 0.4000 0.4619 0.1633 (  7289 PWs)   bands (ev):

   -38.5906 -38.5902 -19.5757 -19.5723 -19.5038 -19.4991 -19.4828 -19.4788
   -15.7738 -15.7504 -14.6227 -14.6096 -14.5354 -14.5266  -6.2192  -6.1610
    -2.6514  -2.5470  -2.4181  -2.3914  -1.2477  -1.1152   0.0577   0.1070
     0.4525   0.4971   0.6349   0.7870   1.0596   1.1804   1.3006   1.3514

          k = 0.6000-0.3464-0.2449 (  7300 PWs)   bands (ev):

   -38.5906 -38.5902 -19.5767 -19.5733 -19.5057 -19.4985 -19.4812 -19.4772
   -15.7723 -15.7533 -14.6276 -14.6013 -14.5347 -14.5282  -6.2385  -6.1532
    -2.6774  -2.5014  -2.4550  -2.3653  -1.2732  -1.1378   0.1541   0.2197
     0.4551   0.5590   0.5777   0.8252   0.9665   1.1893   1.2406   1.2935

          k = 0.0000-0.0000 0.4899 (  7315 PWs)   bands (ev):

   -38.5907 -38.5901 -19.5776 -19.5704 -19.4943 -19.4943 -19.4866 -19.4866
   -15.8215 -15.7343 -14.5868 -14.5868 -14.5410 -14.5410  -6.2508  -6.2053
    -2.5259  -2.5259  -2.4977  -2.4977  -1.3327  -1.0010   0.3330   0.3330
     0.3814   0.3814   0.8705   0.8705   1.0140   1.1542   1.1542   1.1841

          k = 0.8000 0.4619 0.1633 (  7303 PWs)   bands (ev):

   -38.5905 -38.5903 -19.5754 -19.5737 -19.4980 -19.4969 -19.4847 -19.4825
   -15.7838 -15.7599 -14.5977 -14.5771 -14.5536 -14.5413  -6.2174  -6.2161
    -2.5845  -2.5377  -2.4690  -2.4352  -1.2248  -1.1449   0.2661   0.3028
     0.3897   0.4654   0.7566   0.9305   1.0275   1.1126   1.1660   1.1695

     highest occupied level (ev):     1.4952

!    total energy              =    -366.43788290 Ry
     Harris-Foulkes estimate   =    -366.43788403 Ry
     estimated scf accuracy    <       0.00000147 Ry

     The total energy is the sum of the following terms:

     one-electron contribution =    -167.19386158 Ry
     hartree contribution      =     105.90345907 Ry
     xc contribution           =     -72.68140763 Ry
     ewald contribution        =    -232.46607275 Ry

     convergence has been achieved in   8 iterations

     Forces acting on atoms (cartesian axes, Ry/au):

     atom    1 type  1   force =    -0.00000000   -0.00000000   -0.00000000
     atom    2 type  1   force =    -0.00000000    0.00000000   -0.00000000
     atom    3 type  2   force =     0.00000000    0.00000000   -0.00000000
     atom    4 type  2   force =    -0.00000000   -0.00000000   -0.00000000
     atom    5 type  3   force =    -0.12156758    0.21056123    0.00000000
     atom    6 type  3   force =     0.24313517   -0.00000000   -0.00000000
     atom    7 type  3   force =    -0.12156758   -0.21056123   -0.00000000
     atom    8 type  3   force =    -0.24313517    0.00000000    0.00000000
     atom    9 type  3   force =     0.12156758    0.21056123    0.00000000
     atom   10 type  3   force =     0.12156758   -0.21056123   -0.00000000

     Total force =     0.595557     Total SCF correction =     0.001405


     Computing stress (Cartesian axis) and pressure

          total   stress  (Ry/bohr**3)                   (kbar)     P= -286.67
  -0.00282340  -0.00000000  -0.00000000       -415.34     -0.00     -0.00
  -0.00000000  -0.00282340  -0.00000000         -0.00   -415.34     -0.00
  -0.00000000  -0.00000000  -0.00019935         -0.00     -0.00    -29.33


     BFGS Geometry Optimization

     number of scf cycles    =   1
     number of bfgs steps    =   0

     enthalpy new            =    -366.4378828970 Ry

     new trust radius        =       0.4934650996 bohr
     new conv_thr            =       0.0000100000 Ry

     new unit-cell volume =   1050.21516 a.u.^3 (   155.62583 Ang^3 )
     density =      2.13591 g/cm^3

CELL_PARAMETERS (alat= 12.00000000)
   0.464707527  -0.268299016   0.812427296
   0.000000000   0.536598032   0.812427296
  -0.464707527  -0.268299016   0.812427296

ATOMIC_POSITIONS (crystal)
Ca       0.500000000   0.500000000   0.500000000
Ca      -0.000000000   0.000000000   0.000000000
C        0.250000000   0.250000000   0.250000000
C        0.750000000   0.750000000   0.750000000
O        0.486638981   1.013361019   0.250000000
O        1.013361019   0.250000000   0.486638981
O        0.250000000   0.486638981   1.013361019
O       -0.013361019   0.750000000   0.513361019
O        0.750000000   0.513361019  -0.013361019
O        0.513361019  -0.013361019   0.750000000



     Writing output data file CCO_k.save/
     NEW-OLD atomic charge density approx. for the potential

     Check: negative core charge=   -0.000002
     extrapolated charge   53.54053, renormalised to   64.00000

     total cpu time spent up to now is       62.5 secs

     Self-consistent Calculation

     iteration #  1     ecut=    50.00 Ry     beta= 0.70
     CG style diagonalization
     c_bands:  2 eigenvalues not converged
     c_bands:  4 eigenvalues not converged
     c_bands:  3 eigenvalues not converged
     c_bands:  4 eigenvalues not converged
     c_bands:  2 eigenvalues not converged
     c_bands:  3 eigenvalues not converged
     c_bands:  2 eigenvalues not converged
     c_bands:  2 eigenvalues not converged
     c_bands:  5 eigenvalues not converged
     c_bands:  4 eigenvalues not converged
     c_bands:  4 eigenvalues not converged
     c_bands:  3 eigenvalues not converged
     c_bands:  4 eigenvalues not converged
     c_bands:  4 eigenvalues not converged
     c_bands:  2 eigenvalues not converged
     c_bands:  1 eigenvalues not converged
     ethr =  1.00E-06,  avg # of iterations = 13.1

     total cpu time spent up to now is       85.4 secs

     total energy              =    -360.78219966 Ry
     Harris-Foulkes estimate   =    -388.25654099 Ry
     estimated scf accuracy    <       5.66902419 Ry

     iteration #  2     ecut=    50.00 Ry     beta= 0.70
     CG style diagonalization
     ethr =  8.86E-03,  avg # of iterations =  5.4

     total cpu time spent up to now is       95.1 secs

     total energy              =    -364.86756820 Ry
     Harris-Foulkes estimate   =    -373.43759787 Ry
     estimated scf accuracy    <      26.33340033 Ry

     iteration #  3     ecut=    50.00 Ry     beta= 0.70
     CG style diagonalization
     ethr =  8.86E-03,  avg # of iterations =  4.2

     total cpu time spent up to now is      102.7 secs

     total energy              =    -367.22607938 Ry
     Harris-Foulkes estimate   =    -367.68246121 Ry
     estimated scf accuracy    <       1.77189398 Ry

     iteration #  4     ecut=    50.00 Ry     beta= 0.70
     CG style diagonalization
     ethr =  2.77E-03,  avg # of iterations =  3.1

     total cpu time spent up to now is      108.4 secs

     total energy              =    -367.20067994 Ry
     Harris-Foulkes estimate   =    -367.34831144 Ry
     estimated scf accuracy    <       0.75631563 Ry

     iteration #  5     ecut=    50.00 Ry     beta= 0.70
     CG style diagonalization
     ethr =  1.18E-03,  avg # of iterations =  3.1

     total cpu time spent up to now is      114.1 secs

     total energy              =    -367.10694461 Ry
     Harris-Foulkes estimate   =    -367.23804327 Ry
     estimated scf accuracy    <       0.33973311 Ry

     iteration #  6     ecut=    50.00 Ry     beta= 0.70
     CG style diagonalization
     ethr =  5.31E-04,  avg # of iterations =  3.7

     total cpu time spent up to now is      120.8 secs

     total energy              =    -367.16826196 Ry
     Harris-Foulkes estimate   =    -367.16980749 Ry
     estimated scf accuracy    <       0.00353773 Ry

     iteration #  7     ecut=    50.00 Ry     beta= 0.70
     CG style diagonalization
     ethr =  5.53E-06,  avg # of iterations =  5.2

     total cpu time spent up to now is      130.1 secs

     total energy              =    -367.17423343 Ry
     Harris-Foulkes estimate   =    -367.17524755 Ry
     estimated scf accuracy    <       0.00206038 Ry

     iteration #  8     ecut=    50.00 Ry     beta= 0.70
     CG style diagonalization
     ethr =  3.22E-06,  avg # of iterations =  3.9

     total cpu time spent up to now is      137.2 secs

     total energy              =    -367.17461015 Ry
     Harris-Foulkes estimate   =    -367.17472792 Ry
     estimated scf accuracy    <       0.00019595 Ry

     iteration #  9     ecut=    50.00 Ry     beta= 0.70
     CG style diagonalization
     ethr =  3.06E-07,  avg # of iterations =  4.3

     total cpu time spent up to now is      144.9 secs

     total energy              =    -367.17468364 Ry
     Harris-Foulkes estimate   =    -367.17470501 Ry
     estimated scf accuracy    <       0.00008443 Ry

     iteration # 10     ecut=    50.00 Ry     beta= 0.70
     CG style diagonalization
     ethr =  1.32E-07,  avg # of iterations =  3.2

     total cpu time spent up to now is      150.8 secs

     total energy              =    -367.17467866 Ry
     Harris-Foulkes estimate   =    -367.17468874 Ry
     estimated scf accuracy    <       0.00002441 Ry

     iteration # 11     ecut=    50.00 Ry     beta= 0.70
     CG style diagonalization
     ethr =  3.81E-08,  avg # of iterations =  3.7

     total cpu time spent up to now is      157.6 secs

     End of self-consistent calculation

          k = 0.0000 0.0000 0.0000 (  7391 PWs)   bands (ev):

   -36.9760 -36.9719 -18.0263 -17.9537 -17.9271 -17.9271 -17.8819 -17.8819
   -16.9917 -16.7294 -14.5025 -14.5025 -14.3195 -14.3195  -4.6819  -4.5866
    -2.2999  -2.2999  -2.2701  -2.2701  -1.9395  -0.8447   1.1860   1.1860
     1.4657   1.4657   1.4825   1.4825   2.3916   2.4990   2.4990   2.8511

          k =-0.2152-0.1242 0.0821 (  7297 PWs)   bands (ev):

   -36.9756 -36.9723 -18.0145 -17.9590 -17.9363 -17.9256 -17.8964 -17.8882
   -16.9315 -16.7625 -14.4855 -14.4734 -14.3565 -14.3386  -4.6290  -4.5950
    -2.3535  -2.3021  -2.2610  -2.2288  -1.8098  -0.9587   1.1862   1.2087
     1.2776   1.2963   1.6010   1.6110   2.3439   2.3819   2.5847   2.7934

          k =-0.4304-0.2485 0.1641 (  7315 PWs)   bands (ev):

   -36.9745 -36.9733 -17.9908 -17.9707 -17.9477 -17.9314 -17.9061 -17.9036
   -16.8447 -16.8060 -14.4482 -14.4395 -14.4043 -14.3829  -4.5801  -4.5659
    -2.3882  -2.3280  -2.2448  -2.2001  -1.5113  -1.1999   1.0257   1.0720
     1.2155   1.2463   1.7461   1.7743   2.1943   2.1980   2.7208   2.7374

          k =-0.2152 0.1242 0.1641 (  7319 PWs)   bands (ev):

   -36.9755 -36.9723 -18.0143 -17.9699 -17.9409 -17.9140 -17.9037 -17.8794
   -16.9202 -16.7713 -14.4887 -14.4593 -14.3719 -14.3344  -4.6244  -4.6055
    -2.3760  -2.2890  -2.2588  -2.2088  -1.7881  -0.9870   1.1862   1.1968
     1.2931   1.3792   1.4887   1.6980   2.2585   2.4384   2.5596   2.7680

          k =-0.4304 0.0000 0.2462 (  7286 PWs)   bands (ev):

   -36.9748 -36.9730 -17.9996 -17.9874 -17.9496 -17.9235 -17.9016 -17.8847
   -16.8511 -16.8048 -14.4732 -14.4315 -14.4092 -14.3584  -4.5975  -4.5673
    -2.3986  -2.3226  -2.2509  -2.1685  -1.5843  -1.1533   1.0403   1.1296
     1.2605   1.3251   1.5976   1.8060   2.0995   2.3128   2.6968   2.7165

          k = 0.4304 0.4970-0.0821 (  7303 PWs)   bands (ev):

   -36.9740 -36.9738 -17.9879 -17.9810 -17.9581 -17.9435 -17.8979 -17.8903
   -16.8221 -16.8138 -14.4651 -14.4533 -14.3877 -14.3778  -4.5706  -4.5482
    -2.4194  -2.3296  -2.2249  -2.1841  -1.3766  -1.3191   0.9454   0.9915
     1.2727   1.3270   1.6839   1.7645   2.1659   2.2020   2.7230   2.7510

          k = 0.2152 0.3727 0.0000 (  7291 PWs)   bands (ev):

   -36.9750 -36.9728 -17.9983 -17.9660 -17.9616 -17.9207 -17.9119 -17.8848
   -16.8591 -16.8013 -14.4729 -14.4437 -14.3975 -14.3565  -4.5973  -4.5599
    -2.4267  -2.2758  -2.2308  -2.2154  -1.6397  -1.1011   1.0148   1.1479
     1.2104   1.2929   1.6034   1.7850   2.2067   2.3165   2.7045   2.7329

          k =-0.4304 0.2485 0.3282 (  7255 PWs)   bands (ev):

   -36.9747 -36.9731 -18.0191 -17.9974 -17.9519 -17.9187 -17.8889 -17.8752
   -16.8377 -16.8085 -14.4837 -14.4439 -14.3908 -14.3603  -4.6279  -4.5174
    -2.4647  -2.2790  -2.2597  -2.1092  -1.5611  -1.2155   1.0065   1.2175
     1.3176   1.3665   1.5088   1.8211   1.9625   2.3461   2.6303   2.7441

          k = 0.4304 0.7454 0.0000 (  7300 PWs)   bands (ev):

   -36.9743 -36.9735 -18.0132 -17.9904 -17.9584 -17.9323 -17.8846 -17.8806
   -16.8305 -16.8022 -14.4826 -14.4592 -14.3728 -14.3719  -4.5951  -4.5226
    -2.4252  -2.3615  -2.2314  -2.1163  -1.4504  -1.2785   0.9447   1.0482
     1.3729   1.4393   1.5824   1.6355   2.0876   2.2751   2.6689   2.7633

          k = 0.0000 0.0000 0.2462 (  7297 PWs)   bands (ev):

   -36.9756 -36.9723 -18.0229 -17.9654 -17.9232 -17.9232 -17.8866 -17.8866
   -16.9614 -16.7506 -14.4848 -14.4848 -14.3367 -14.3367  -4.6859  -4.6102
    -2.2927  -2.2927  -2.2681  -2.2681  -1.8205  -0.9403   1.2039   1.2039
     1.3800   1.3800   1.6252   1.6252   2.3995   2.3995   2.4225   2.7920

          k =-0.2152-0.1242 0.3282 (  7291 PWs)   bands (ev):

   -36.9750 -36.9728 -18.0138 -17.9777 -17.9282 -17.9159 -17.9051 -17.8887
   -16.9033 -16.7800 -14.4668 -14.4540 -14.3701 -14.3644  -4.6433  -4.6081
    -2.3239  -2.2931  -2.2876  -2.2211  -1.6563  -1.0868   1.1937   1.2231
     1.2366   1.4053   1.5481   1.8015   2.1786   2.3032   2.5707   2.7387

          k = 0.6456 0.3727 0.0000 (  7303 PWs)   bands (ev):

   -36.9740 -36.9738 -18.0039 -17.9840 -17.9429 -17.9199 -17.9114 -17.8912
   -16.8506 -16.7947 -14.4656 -14.4149 -14.4126 -14.3844  -4.6032  -4.5496
    -2.4249  -2.2625  -2.2448  -2.2149  -1.4041  -1.3118   1.0152   1.1024
     1.2802   1.2968   1.6421   1.9251   2.0150   2.2072   2.6682   2.7450

          k = 0.4304 0.2485 0.0821 (  7286 PWs)   bands (ev):

   -36.9748 -36.9730 -17.9939 -17.9938 -17.9529 -17.9169 -17.9067 -17.8848
   -16.8288 -16.8224 -14.4727 -14.4289 -14.4117 -14.3625  -4.6092  -4.5322
    -2.4577  -2.2696  -2.2202  -2.1925  -1.5786  -1.1695   0.9941   1.1565
     1.2180   1.2857   1.5941   1.8824   2.0734   2.3189   2.6846   2.7354

          k =-0.2152 0.1242 0.4103 (  7286 PWs)   bands (ev):

   -36.9748 -36.9730 -18.0103 -17.9939 -17.9359 -17.9106 -17.8997 -17.8825
   -16.8755 -16.8039 -14.4631 -14.4291 -14.4038 -14.3596  -4.6321  -4.6288
    -2.3696  -2.2852  -2.2659  -2.1846  -1.5973  -1.1552   1.1692   1.2671
     1.3252   1.3304   1.6173   1.8628   2.0183   2.3197   2.5782   2.6823

          k = 0.6456 0.6212 0.0821 (  7289 PWs)   bands (ev):

   -36.9742 -36.9735 -18.0040 -18.0025 -17.9419 -17.9297 -17.8895 -17.8837
   -16.8329 -16.8155 -14.4637 -14.4420 -14.3973 -14.3718  -4.5942  -4.5827
    -2.3800  -2.3630  -2.2185  -2.1627  -1.4486  -1.2864   1.0697   1.0963
     1.3745   1.4185   1.5840   1.7451   2.0641   2.2193   2.6742   2.6879

          k = 0.4304 0.4970 0.1641 (  7289 PWs)   bands (ev):

   -36.9742 -36.9735 -18.0032 -17.9906 -17.9539 -17.9380 -17.8905 -17.8828
   -16.8282 -16.8058 -14.4777 -14.4550 -14.3831 -14.3697  -4.5884  -4.5297
    -2.4426  -2.3318  -2.1982  -2.1707  -1.4299  -1.2865   0.9355   1.0339
     1.3329   1.3738   1.6020   1.7401   2.1162   2.2421   2.6862   2.7579

          k = 0.6456-0.3727-0.2462 (  7300 PWs)   bands (ev):

   -36.9743 -36.9735 -18.0212 -17.9947 -17.9486 -17.9214 -17.8870 -17.8808
   -16.8476 -16.7949 -14.4815 -14.4373 -14.3875 -14.3734  -4.6269  -4.5256
    -2.4598  -2.2624  -2.2624  -2.1317  -1.4565  -1.3006   1.0050   1.1802
     1.3386   1.4469   1.5259   1.7590   2.0071   2.2660   2.6172   2.7454

          k = 0.0000 0.0000 0.4924 (  7315 PWs)   bands (ev):

   -36.9745 -36.9733 -18.0112 -17.9900 -17.9125 -17.9125 -17.8985 -17.8985
   -16.8887 -16.8090 -14.4387 -14.4387 -14.3821 -14.3821  -4.6841  -4.6560
    -2.2779  -2.2779  -2.2682  -2.2682  -1.5269  -1.1938   1.2486   1.2486
     1.3088   1.3088   1.8608   1.8608   2.1505   2.1505   2.5144   2.6543

          k = 0.8608 0.4970 0.1641 (  7303 PWs)   bands (ev):

   -36.9740 -36.9738 -18.0090 -17.9982 -17.9250 -17.9192 -17.8965 -17.8892
   -16.8530 -16.8214 -14.4426 -14.4154 -14.4073 -14.3909  -4.6488  -4.6253
    -2.3541  -2.2938  -2.2429  -2.2099  -1.4049  -1.3271   1.1820   1.2316
     1.2946   1.3855   1.7069   1.9028   2.0440   2.1379   2.5945   2.6477

     highest occupied level (ev):     2.8511

!    total energy              =    -367.17468294 Ry
     Harris-Foulkes estimate   =    -367.17468425 Ry
     estimated scf accuracy    <       0.00000175 Ry

     The total energy is the sum of the following terms:

     one-electron contribution =    -166.20208531 Ry
     hartree contribution      =     108.18462844 Ry
     xc contribution           =     -74.05023693 Ry
     ewald contribution        =    -235.10698913 Ry

     convergence has been achieved in  11 iterations

     Forces acting on atoms (cartesian axes, Ry/au):

     atom    1 type  1   force =     0.00000000   -0.00000000    0.00000000
     atom    2 type  1   force =     0.00000000    0.00000000   -0.00000000
     atom    3 type  2   force =     0.00000000   -0.00000000   -0.00000000
     atom    4 type  2   force =    -0.00000000    0.00000000    0.00000000
     atom    5 type  3   force =    -0.06971598    0.12075162    0.00000000
     atom    6 type  3   force =     0.13943196    0.00000000    0.00000000
     atom    7 type  3   force =    -0.06971598   -0.12075162   -0.00000000
     atom    8 type  3   force =    -0.13943196   -0.00000000    0.00000000
     atom    9 type  3   force =     0.06971598    0.12075162    0.00000000
     atom   10 type  3   force =     0.06971598   -0.12075162   -0.00000000

     Total force =     0.341537     Total SCF correction =     0.003090


     Computing stress (Cartesian axis) and pressure

          total   stress  (Ry/bohr**3)                   (kbar)     P= -208.82
  -0.00204972  -0.00000000   0.00000000       -301.52     -0.00      0.00
  -0.00000000  -0.00204972  -0.00000000         -0.00   -301.52     -0.00
   0.00000000  -0.00000000  -0.00015923          0.00     -0.00    -23.42


     number of scf cycles    =   2
     number of bfgs steps    =   1

     enthalpy old            =    -366.4378828970 Ry
     enthalpy new            =    -367.1746829388 Ry

     CASE: enthalpy_new < enthalpy_old

     new trust radius        =       0.7383508334 bohr
     new conv_thr            =       0.0000100000 Ry

     new unit-cell volume =    818.20310 a.u.^3 (   121.24519 Ang^3 )
     density =      2.74157 g/cm^3

CELL_PARAMETERS (alat= 12.00000000)
   0.411768819  -0.237734838   0.806157405
  -0.000000000   0.475469676   0.806157405
  -0.411768819  -0.237734838   0.806157405

ATOMIC_POSITIONS (crystal)
Ca       0.500000000   0.500000000   0.500000000
Ca       0.000000000   0.000000000  -0.000000000
C        0.250000000   0.250000000   0.250000000
C        0.750000000   0.750000000   0.750000000
O        0.462400429   1.037599571   0.250000000
O        1.037599571   0.250000000   0.462400429
O        0.250000000   0.462400429   1.037599571
O       -0.037599571   0.750000000   0.537599571
O        0.750000000   0.537599571  -0.037599571
O        0.537599571  -0.037599571   0.750000000



     Writing output data file CCO_k.save/
     NEW-OLD atomic charge density approx. for the potential

     Check: negative core charge=   -0.000003

     negative rho (up, down):  1.839E-03 0.000E+00
     extrapolated charge   45.85509, renormalised to   64.00000

     total cpu time spent up to now is      158.4 secs

     Self-consistent Calculation

     iteration #  1     ecut=    50.00 Ry     beta= 0.70
     CG style diagonalization
     c_bands:  2 eigenvalues not converged
     c_bands:  4 eigenvalues not converged
     ethr =  1.00E-06,  avg # of iterations = 19.8

     negative rho (up, down):  2.827E-04 0.000E+00

     total cpu time spent up to now is      192.5 secs

     total energy              =    -354.00969292 Ry
     Harris-Foulkes estimate   =    -406.14514369 Ry
     estimated scf accuracy    <      10.95635038 Ry

     iteration #  2     ecut=    50.00 Ry     beta= 0.70
     CG style diagonalization
     ethr =  1.00E-02,  avg # of iterations =  6.2

     total cpu time spent up to now is      203.6 secs

     total energy              =    -360.18339726 Ry
     Harris-Foulkes estimate   =    -377.03760153 Ry
     estimated scf accuracy    <      53.23933078 Ry

     iteration #  3     ecut=    50.00 Ry     beta= 0.70
     CG style diagonalization
     ethr =  1.00E-02,  avg # of iterations =  4.7

     total cpu time spent up to now is      212.0 secs

     total energy              =    -366.49047341 Ry
     Harris-Foulkes estimate   =    -367.70989097 Ry
     estimated scf accuracy    <       3.32790726 Ry

     iteration #  4     ecut=    50.00 Ry     beta= 0.70
     CG style diagonalization
     ethr =  5.20E-03,  avg # of iterations =  3.3

     total cpu time spent up to now is      218.1 secs

     total energy              =    -366.42116766 Ry
     Harris-Foulkes estimate   =    -366.80606531 Ry
     estimated scf accuracy    <       1.13139982 Ry

     iteration #  5     ecut=    50.00 Ry     beta= 0.70
     CG style diagonalization
     ethr =  1.77E-03,  avg # of iterations =  3.4

     total cpu time spent up to now is      224.4 secs

     total energy              =    -366.54399384 Ry
     Harris-Foulkes estimate   =    -366.59126906 Ry
     estimated scf accuracy    <       0.14755875 Ry

     iteration #  6     ecut=    50.00 Ry     beta= 0.70
     CG style diagonalization
     ethr =  2.31E-04,  avg # of iterations =  3.6

     total cpu time spent up to now is      231.0 secs

     total energy              =    -366.62686297 Ry
     Harris-Foulkes estimate   =    -366.63028787 Ry
     estimated scf accuracy    <       0.00934971 Ry

     iteration #  7     ecut=    50.00 Ry     beta= 0.70
     CG style diagonalization
     ethr =  1.46E-05,  avg # of iterations =  4.0

     total cpu time spent up to now is      238.3 secs

     total energy              =    -366.62966080 Ry
     Harris-Foulkes estimate   =    -366.62994212 Ry
     estimated scf accuracy    <       0.00094837 Ry

     iteration #  8     ecut=    50.00 Ry     beta= 0.70
     CG style diagonalization
     ethr =  1.48E-06,  avg # of iterations =  4.1

     total cpu time spent up to now is      245.7 secs

     total energy              =    -366.62988643 Ry
     Harris-Foulkes estimate   =    -366.62995793 Ry
     estimated scf accuracy    <       0.00015813 Ry

     iteration #  9     ecut=    50.00 Ry     beta= 0.70
     CG style diagonalization
     ethr =  2.47E-07,  avg # of iterations =  3.8

     total cpu time spent up to now is      252.6 secs

     total energy              =    -366.62991639 Ry
     Harris-Foulkes estimate   =    -366.62992314 Ry
     estimated scf accuracy    <       0.00001611 Ry

     iteration # 10     ecut=    50.00 Ry     beta= 0.70
     CG style diagonalization
     ethr =  2.52E-08,  avg # of iterations =  3.9

     total cpu time spent up to now is      259.6 secs

     End of self-consistent calculation

          k = 0.0000 0.0000 0.0000 (  7391 PWs)   bands (ev):

   -33.8425 -33.8284 -19.3219 -19.2022 -15.2688 -15.2688 -14.8844 -14.8645
   -14.8645 -14.8336 -14.8336 -14.8278 -14.2727 -14.2727  -2.8321  -2.3277
    -1.8604  -1.6896  -1.4054  -1.4054  -1.2047  -1.2047   2.9013   2.9013
     3.1881   3.1881   3.3917   3.3917   4.3353   4.3353   5.5629   5.9625

          k =-0.2429-0.1402 0.0827 (  7297 PWs)   bands (ev):

   -33.8411 -33.8297 -19.3177 -19.2098 -15.2784 -15.1910 -15.1449 -14.9814
   -14.8530 -14.8226 -14.6891 -14.5483 -14.3934 -14.2903  -2.7411  -2.2221
    -1.9506  -1.7431  -1.3510  -1.3459  -1.2420  -1.1959   2.8883   2.9155
     3.1269   3.1384   3.3444   3.4042   4.1890   4.2151   5.7080   5.8897

          k =-0.4857-0.2804 0.1654 (  7315 PWs)   bands (ev):

   -33.8374 -33.8330 -19.2910 -19.2430 -15.2535 -15.2065 -15.1786 -15.0787
   -14.8332 -14.7916 -14.5834 -14.4594 -14.4483 -14.3592  -2.5358  -2.3085
    -1.8654  -1.7806  -1.2934  -1.2818  -1.2547  -1.2070   2.7555   2.8029
     2.9503   2.9619   3.5563   3.5664   3.9744   4.0083   5.8349   5.8609

          k =-0.2429 0.1402 0.1654 (  7319 PWs)   bands (ev):

   -33.8408 -33.8299 -19.3169 -19.2110 -15.2594 -15.2290 -15.0874 -15.0662
   -14.8331 -14.8237 -14.6216 -14.5725 -14.3569 -14.3417  -2.7346  -2.2766
    -1.8870  -1.7513  -1.3898  -1.3281  -1.2407  -1.1776   2.8919   2.9101
     3.1099   3.2025   3.2810   3.4842   4.0612   4.2771   5.7215   5.8626

          k =-0.4857 0.0000 0.2481 (  7286 PWs)   bands (ev):

   -33.8383 -33.8322 -19.3016 -19.2314 -15.3017 -15.2381 -15.1308 -15.0012
   -14.8384 -14.7931 -14.6223 -14.5309 -14.3743 -14.3602  -2.5818  -2.2923
    -1.8600  -1.7966  -1.3951  -1.2587  -1.2121  -1.1755   2.7407   2.9007
     2.9641   3.0810   3.3632   3.6056   3.8792   4.1555   5.8111   5.8658

          k = 0.4857 0.5608-0.0827 (  7303 PWs)   bands (ev):

   -33.8356 -33.8347 -19.2753 -19.2609 -15.2737 -15.2155 -15.1614 -15.0701
   -14.8231 -14.8133 -14.5675 -14.4877 -14.4157 -14.3634  -2.4344  -2.3798
    -1.8286  -1.8028  -1.3098  -1.3003  -1.2157  -1.1584   2.6389   2.7163
     2.9735   3.0226   3.4645   3.5311   3.9853   4.0394   5.8424   5.9004

          k = 0.2429 0.4206 0.0000 (  7291 PWs)   bands (ev):

   -33.8390 -33.8314 -19.3093 -19.2226 -15.3058 -15.2278 -15.1397 -14.9892
   -14.8267 -14.8013 -14.6534 -14.5265 -14.3678 -14.3548  -2.6064  -2.1610
    -1.9704  -1.8070  -1.3527  -1.3056  -1.1951  -1.1861   2.7218   2.8978
     2.9567   3.0627   3.3676   3.5662   3.9790   4.1522   5.8135   5.8808

          k =-0.4857 0.2804 0.3308 (  7255 PWs)   bands (ev):

   -33.8380 -33.8324 -19.3088 -19.2252 -15.3774 -15.2985 -14.9621 -14.9124
   -14.8411 -14.7990 -14.6810 -14.6481 -14.3562 -14.3148  -2.5245  -2.2835
    -1.8900  -1.7777  -1.5009  -1.2710  -1.1692  -1.1046   2.6082   2.9974
     3.0588   3.0869   3.3109   3.5321   3.8224   4.1738   5.6970   5.9740

          k = 0.4857 0.8413 0.0000 (  7300 PWs)   bands (ev):

   -33.8366 -33.8337 -19.2917 -19.2447 -15.3099 -15.2907 -15.0706 -15.0172
   -14.8052 -14.8029 -14.6297 -14.5368 -14.3689 -14.3584  -2.4469  -2.3387
    -1.8647  -1.7877  -1.4491  -1.2688  -1.1468  -1.1245   2.5730   2.7943
     3.0965   3.1009   3.3569   3.3845   3.9598   4.1131   5.7665   5.9595

          k = 0.0000 0.0000 0.2481 (  7297 PWs)   bands (ev):

   -33.8412 -33.8298 -19.3114 -19.2145 -15.2529 -15.2529 -14.9989 -14.9989
   -14.8776 -14.8316 -14.6841 -14.6841 -14.3036 -14.3036  -2.8172  -2.4643
    -1.7440  -1.6620  -1.3842  -1.3842  -1.2218  -1.2218   2.9243   2.9243
     3.1310   3.1310   3.4996   3.4996   4.2420   4.2420   5.5836   5.9079

          k =-0.2429-0.1402 0.3308 (  7291 PWs)   bands (ev):

   -33.8392 -33.8316 -19.2994 -19.2306 -15.3001 -15.2124 -15.1180 -14.9423
   -14.8662 -14.8165 -14.7169 -14.4680 -14.4565 -14.2912  -2.7083  -2.4454
    -1.7731  -1.7035  -1.3531  -1.2956  -1.2393  -1.2354   2.9280   2.9319
     3.0358   3.1672   3.3175   3.6480   4.0059   4.1405   5.7034   5.8572

          k = 0.7286 0.4206 0.0000 (  7303 PWs)   bands (ev):

   -33.8357 -33.8347 -19.2694 -19.2658 -15.3232 -15.1784 -15.1628 -15.0113
   -14.8490 -14.7938 -14.5989 -14.4988 -14.4579 -14.3160  -2.4713  -2.4281
    -1.8590  -1.7149  -1.3449  -1.3020  -1.2240  -1.1693   2.7060   2.8882
     2.9507   3.0187   3.4199   3.7701   3.7774   4.0306   5.7687   5.9081

          k = 0.4857 0.2804 0.0827 (  7286 PWs)   bands (ev):

   -33.8383 -33.8321 -19.3073 -19.2260 -15.3056 -15.2972 -15.0654 -14.9907
   -14.8140 -14.7873 -14.6872 -14.5163 -14.3730 -14.3560  -2.5521  -2.2206
    -1.8705  -1.8508  -1.4197  -1.2835  -1.2059  -1.1292   2.6511   2.8794
     3.0101   3.0260   3.3733   3.7081   3.7979   4.1476   5.7533   5.9384

          k =-0.2429 0.1402 0.4135 (  7286 PWs)   bands (ev):

   -33.8384 -33.8323 -19.2970 -19.2336 -15.2997 -15.1794 -15.1578 -15.0036
   -14.8449 -14.8248 -14.6284 -14.4597 -14.4383 -14.3502  -2.6935  -2.4896
    -1.7280  -1.7058  -1.3862  -1.3094  -1.2446  -1.1865   2.8900   2.9979
     3.0602   3.0880   3.4596   3.6974   3.8075   4.1678   5.7454   5.7926

          k = 0.7286 0.7011 0.0827 (  7289 PWs)   bands (ev):

   -33.8364 -33.8340 -19.2809 -19.2540 -15.2875 -15.2629 -15.0987 -15.0468
   -14.8216 -14.7986 -14.5726 -14.5434 -14.3821 -14.3739  -2.5250  -2.4369
    -1.7791  -1.7718  -1.3853  -1.3174  -1.1743  -1.1629   2.7754   2.8398
     3.0619   3.1317   3.3728   3.5159   3.9044   4.0658   5.8132   5.8343

          k = 0.4857 0.5608 0.1654 (  7289 PWs)   bands (ev):

   -33.8363 -33.8340 -19.2871 -19.2492 -15.3071 -15.2524 -15.1269 -15.0103
   -14.8187 -14.8033 -14.6236 -14.4891 -14.4144 -14.3448  -2.4525  -2.3430
    -1.8545  -1.7909  -1.3967  -1.2964  -1.1724  -1.1218   2.5886   2.7770
     3.0142   3.0834   3.3834   3.4825   3.9615   4.0851   5.7890   5.9434

          k = 0.7286-0.4206-0.2481 (  7300 PWs)   bands (ev):

   -33.8366 -33.8337 -19.2946 -19.2407 -15.3826 -15.2556 -15.0516 -14.8579
   -14.8479 -14.8018 -14.7148 -14.5911 -14.3904 -14.2953  -2.4903  -2.3849
    -1.8826  -1.7042  -1.4678  -1.2901  -1.1761  -1.1140   2.6287   2.9510
     3.0864   3.1164   3.3094   3.5115   3.8784   4.0889   5.7019   5.9593

          k = 0.0000 0.0000 0.4962 (  7315 PWs)   bands (ev):

   -33.8376 -33.8333 -19.2830 -19.2460 -15.2037 -15.2037 -15.1189 -15.1189
   -14.8611 -14.8434 -14.5250 -14.5250 -14.3918 -14.3918  -2.7660  -2.6517
    -1.6217  -1.6115  -1.3307  -1.3307  -1.2687  -1.2687   2.9798   2.9798
     3.0503   3.0503   3.7288   3.7288   4.0064   4.0064   5.6550   5.7796

          k = 0.9714 0.5608 0.1654 (  7303 PWs)   bands (ev):

   -33.8358 -33.8349 -19.2676 -19.2643 -15.3064 -15.2297 -15.0946 -14.9764
   -14.8593 -14.8385 -14.6148 -14.5158 -14.4154 -14.3338  -2.6324  -2.6081
    -1.7068  -1.6605  -1.3571  -1.2840  -1.2584  -1.2165   2.9215   2.9698
     3.0377   3.1007   3.5078   3.7319   3.8910   3.9813   5.7282   5.7943

     highest occupied level (ev):     5.9740

!    total energy              =    -366.62991639 Ry
     Harris-Foulkes estimate   =    -366.62992026 Ry
     estimated scf accuracy    <       0.00000454 Ry

     The total energy is the sum of the following terms:

     one-electron contribution =    -171.65019663 Ry
     hartree contribution      =     116.23872130 Ry
     xc contribution           =     -76.99383080 Ry
     ewald contribution        =    -234.22461026 Ry

     convergence has been achieved in  10 iterations

     Forces acting on atoms (cartesian axes, Ry/au):

     atom    1 type  1   force =     0.00000000    0.00000000    0.00000000
     atom    2 type  1   force =     0.00000000    0.00000000    0.00000000
     atom    3 type  2   force =     0.00000000    0.00000000    0.00000000
     atom    4 type  2   force =     0.00000000    0.00000000    0.00000000
     atom    5 type  3   force =     0.45575462   -0.78939016   -0.00000000
     atom    6 type  3   force =    -0.91150924   -0.00000000    0.00000000
     atom    7 type  3   force =     0.45575462    0.78939016    0.00000000
     atom    8 type  3   force =     0.91150924    0.00000000   -0.00000000
     atom    9 type  3   force =    -0.45575462   -0.78939016   -0.00000000
     atom   10 type  3   force =    -0.45575462    0.78939016    0.00000000

     Total force =     2.232733     Total SCF correction =     0.007262


     Computing stress (Cartesian axis) and pressure

          total   stress  (Ry/bohr**3)                   (kbar)     P=  621.19
   0.00632348   0.00000000  -0.00000000        930.22      0.00     -0.00
   0.00000000   0.00632348   0.00000000          0.00    930.22      0.00
  -0.00000000   0.00000000   0.00002144         -0.00      0.00      3.15


     number of scf cycles    =   3
     number of bfgs steps    =   2

     enthalpy old            =    -367.1746829388 Ry
     enthalpy new            =    -366.6299163875 Ry

     CASE: enthalpy_new > enthalpy_old

     new trust radius        =       0.2090864292 bohr
     new conv_thr            =       0.0000100000 Ry

     new unit-cell volume =    981.13764 a.u.^3 (   145.38960 Ang^3 )
     density =      2.28629 g/cm^3

CELL_PARAMETERS (alat= 12.00000000)
   0.449658143  -0.259610250   0.810644895
   0.000000000   0.519220499   0.810644895
  -0.449658143  -0.259610250   0.810644895

ATOMIC_POSITIONS (crystal)
Ca       0.500000000   0.500000000   0.500000000
Ca      -0.000000000   0.000000000  -0.000000000
C        0.250000000   0.250000000   0.250000000
C        0.750000000   0.750000000   0.750000000
O        0.479748460   1.020251540   0.250000000
O        1.020251540   0.250000000   0.479748460
O        0.250000000   0.479748460   1.020251540
O       -0.020251540   0.750000000   0.520251540
O        0.750000000   0.520251540  -0.020251540
O        0.520251540  -0.020251540   0.750000000



     Writing output data file CCO_k.save/
     NEW-OLD atomic charge density approx. for the potential

     Check: negative core charge=   -0.000002
     extrapolated charge   74.62646, renormalised to   64.00000

     total cpu time spent up to now is      260.4 secs

     Self-consistent Calculation

     iteration #  1     ecut=    50.00 Ry     beta= 0.70
     CG style diagonalization
     c_bands:  4 eigenvalues not converged
     c_bands:  1 eigenvalues not converged
     ethr =  1.00E-06,  avg # of iterations = 23.0

     total cpu time spent up to now is      299.7 secs

     total energy              =    -350.57535525 Ry
     Harris-Foulkes estimate   =    -348.41867233 Ry
     estimated scf accuracy    <      15.00079587 Ry

     iteration #  2     ecut=    50.00 Ry     beta= 0.70
     CG style diagonalization
     ethr =  1.00E-02,  avg # of iterations =  5.8

     total cpu time spent up to now is      310.1 secs

     total energy              =    -367.74468509 Ry
     Harris-Foulkes estimate   =    -379.45181668 Ry
     estimated scf accuracy    <      27.68536395 Ry

     iteration #  3     ecut=    50.00 Ry     beta= 0.70
     CG style diagonalization
     ethr =  1.00E-02,  avg # of iterations =  3.8

     total cpu time spent up to now is      317.1 secs

     total energy              =    -368.15886678 Ry
     Harris-Foulkes estimate   =    -369.64313966 Ry
     estimated scf accuracy    <       5.33804689 Ry

     iteration #  4     ecut=    50.00 Ry     beta= 0.70
     CG style diagonalization
     ethr =  8.34E-03,  avg # of iterations =  3.0

     total cpu time spent up to now is      322.6 secs

     total energy              =    -367.80385721 Ry
     Harris-Foulkes estimate   =    -368.26190183 Ry
     estimated scf accuracy    <       2.70038997 Ry

     iteration #  5     ecut=    50.00 Ry     beta= 0.70
     CG style diagonalization
     ethr =  4.22E-03,  avg # of iterations =  3.0

     total cpu time spent up to now is      328.1 secs

     total energy              =    -367.91397507 Ry
     Harris-Foulkes estimate   =    -367.84950003 Ry
     estimated scf accuracy    <       1.62803686 Ry

     iteration #  6     ecut=    50.00 Ry     beta= 0.70
     CG style diagonalization
     ethr =  2.54E-03,  avg # of iterations =  3.0

     total cpu time spent up to now is      333.7 secs

     total energy              =    -366.99365414 Ry
     Harris-Foulkes estimate   =    -367.92289637 Ry
     estimated scf accuracy    <       1.75209142 Ry

     iteration #  7     ecut=    50.00 Ry     beta= 0.70
     CG style diagonalization
     ethr =  2.54E-03,  avg # of iterations =  3.6

     total cpu time spent up to now is      340.2 secs

     total energy              =    -367.30936257 Ry
     Harris-Foulkes estimate   =    -367.31749209 Ry
     estimated scf accuracy    <       0.06071343 Ry

     iteration #  8     ecut=    50.00 Ry     beta= 0.70
     CG style diagonalization
     ethr =  9.49E-05,  avg # of iterations =  3.8

     total cpu time spent up to now is      347.2 secs

     total energy              =    -367.33250480 Ry
     Harris-Foulkes estimate   =    -367.33158772 Ry
     estimated scf accuracy    <       0.05765079 Ry

     iteration #  9     ecut=    50.00 Ry     beta= 0.70
     CG style diagonalization
     ethr =  9.01E-05,  avg # of iterations =  3.0

     total cpu time spent up to now is      352.7 secs

     total energy              =    -367.32505087 Ry
     Harris-Foulkes estimate   =    -367.33320828 Ry
     estimated scf accuracy    <       0.05865655 Ry

     iteration # 10     ecut=    50.00 Ry     beta= 0.70
     CG style diagonalization
     ethr =  9.01E-05,  avg # of iterations =  3.2

     total cpu time spent up to now is      358.7 secs

     total energy              =    -367.34158122 Ry
     Harris-Foulkes estimate   =    -367.32852241 Ry
     estimated scf accuracy    <       0.05076798 Ry

     iteration # 11     ecut=    50.00 Ry     beta= 0.70
     CG style diagonalization
     ethr =  7.93E-05,  avg # of iterations =  3.6

     total cpu time spent up to now is      365.3 secs

     total energy              =    -367.34776981 Ry
     Harris-Foulkes estimate   =    -367.35060268 Ry
     estimated scf accuracy    <       0.13013311 Ry

     iteration # 12     ecut=    50.00 Ry     beta= 0.70
     CG style diagonalization
     ethr =  7.93E-05,  avg # of iterations =  3.8

     total cpu time spent up to now is      372.1 secs

     total energy              =    -367.35252362 Ry
     Harris-Foulkes estimate   =    -367.36078679 Ry
     estimated scf accuracy    <       0.15968733 Ry

     iteration # 13     ecut=    50.00 Ry     beta= 0.70
     CG style diagonalization
     ethr =  7.93E-05,  avg # of iterations =  3.0

     total cpu time spent up to now is      377.7 secs

     total energy              =    -367.35548909 Ry
     Harris-Foulkes estimate   =    -367.35331932 Ry
     estimated scf accuracy    <       0.14179181 Ry

     iteration # 14     ecut=    50.00 Ry     beta= 0.70
     CG style diagonalization
     ethr =  7.93E-05,  avg # of iterations =  3.0

     total cpu time spent up to now is      383.3 secs

     total energy              =    -367.35477774 Ry
     Harris-Foulkes estimate   =    -367.35583527 Ry
     estimated scf accuracy    <       0.14835627 Ry

     iteration # 15     ecut=    50.00 Ry     beta= 0.70
     CG style diagonalization
     ethr =  7.93E-05,  avg # of iterations =  3.0

     total cpu time spent up to now is      388.8 secs

     total energy              =    -367.35037225 Ry
     Harris-Foulkes estimate   =    -367.35490167 Ry
     estimated scf accuracy    <       0.14693359 Ry

     iteration # 16     ecut=    50.00 Ry     beta= 0.70
     CG style diagonalization
     ethr =  7.93E-05,  avg # of iterations =  3.0

     total cpu time spent up to now is      394.5 secs

     total energy              =    -367.27163633 Ry
     Harris-Foulkes estimate   =    -367.35081076 Ry
     estimated scf accuracy    <       0.13625921 Ry

     iteration # 17     ecut=    50.00 Ry     beta= 0.70
     CG style diagonalization
     ethr =  7.93E-05,  avg # of iterations =  4.4

     total cpu time spent up to now is      402.8 secs

     total energy              =    -367.31244902 Ry
     Harris-Foulkes estimate   =    -367.32218074 Ry
     estimated scf accuracy    <       0.02028960 Ry

     iteration # 18     ecut=    50.00 Ry     beta= 0.70
     CG style diagonalization
     ethr =  3.17E-05,  avg # of iterations =  3.5

     total cpu time spent up to now is      409.2 secs

     total energy              =    -367.31506352 Ry
     Harris-Foulkes estimate   =    -367.31537153 Ry
     estimated scf accuracy    <       0.00057990 Ry

     iteration # 19     ecut=    50.00 Ry     beta= 0.70
     CG style diagonalization
     ethr =  9.06E-07,  avg # of iterations =  4.1

     total cpu time spent up to now is      416.7 secs

     total energy              =    -367.31530122 Ry
     Harris-Foulkes estimate   =    -367.31535897 Ry
     estimated scf accuracy    <       0.00016136 Ry

     iteration # 20     ecut=    50.00 Ry     beta= 0.70
     CG style diagonalization
     ethr =  2.52E-07,  avg # of iterations =  3.6

     total cpu time spent up to now is      423.3 secs

     total energy              =    -367.31531154 Ry
     Harris-Foulkes estimate   =    -367.31532178 Ry
     estimated scf accuracy    <       0.00007628 Ry

     iteration # 21     ecut=    50.00 Ry     beta= 0.70
     CG style diagonalization
     ethr =  1.19E-07,  avg # of iterations =  3.7

     total cpu time spent up to now is      430.2 secs

     total energy              =    -367.31531691 Ry
     Harris-Foulkes estimate   =    -367.31532497 Ry
     estimated scf accuracy    <       0.00002590 Ry

     iteration # 22     ecut=    50.00 Ry     beta= 0.70
     CG style diagonalization
     ethr =  4.05E-08,  avg # of iterations =  3.5

     total cpu time spent up to now is      436.6 secs

     End of self-consistent calculation

          k = 0.0000 0.0000 0.0000 (  7391 PWs)   bands (ev):

   -36.1570 -36.1512 -17.5644 -17.5542 -17.1441 -17.1441 -17.1393 -17.0791
   -17.0791 -16.9910 -14.5294 -14.5294 -14.3234 -14.3234  -4.0363  -3.8083
    -2.0965  -2.0902  -2.0902  -2.0732  -2.0732  -1.0187   1.6077   1.6077
     1.9153   1.9153   1.9437   1.9437   2.9635   2.9635   3.1458   3.5780

          k =-0.2224-0.1284 0.0822 (  7297 PWs)   bands (ev):

   -36.1564 -36.1518 -17.6176 -17.5301 -17.1468 -17.1459 -17.1181 -17.0988
   -17.0219 -17.0123 -14.5098 -14.4921 -14.3691 -14.3435  -3.9573  -3.8284
    -2.1862  -2.0996  -2.0644  -2.0391  -1.9170  -1.1168   1.6035   1.6294
     1.7338   1.7586   2.0504   2.0537   2.8407   2.8461   3.2948   3.5166

          k =-0.4448-0.2568 0.1645 (  7315 PWs)   bands (ev):

   -36.1550 -36.1532 -17.6304 -17.5535 -17.1795 -17.1650 -17.1165 -17.1158
   -16.9820 -16.9371 -14.4675 -14.4535 -14.4215 -14.3921  -3.8456  -3.8311
    -2.2288  -2.1495  -2.0523  -2.0076  -1.6150  -1.3232   1.4609   1.5117
     1.6316   1.6555   2.2067   2.2299   2.6586   2.6613   3.4469   3.4578

          k =-0.2224 0.1284 0.1645 (  7319 PWs)   bands (ev):

   -36.1563 -36.1519 -17.6295 -17.5238 -17.1492 -17.1286 -17.1220 -17.0757
   -17.0488 -17.0144 -14.5076 -14.4813 -14.3809 -14.3442  -3.9504  -3.8462
    -2.1806  -2.0961  -2.0879  -2.0065  -1.8968  -1.1413   1.6054   1.6192
     1.7416   1.8464   1.9284   2.1497   2.7249   2.9043   3.2976   3.4919

          k =-0.4448 0.0000 0.2467 (  7286 PWs)   bands (ev):

   -36.1553 -36.1528 -17.6540 -17.5290 -17.1817 -17.1508 -17.1111 -17.0859
   -17.0285 -16.9403 -14.4892 -14.4505 -14.4207 -14.3707  -3.8561  -3.8492
    -2.2121  -2.1435  -2.0845  -1.9702  -1.6825  -1.2832   1.4618   1.5699
     1.6775   1.7553   2.0434   2.2639   2.5522   2.7868   3.4344   3.4395

          k = 0.4448 0.5136-0.0822 (  7303 PWs)   bands (ev):

   -36.1542 -36.1539 -17.6252 -17.5819 -17.1848 -17.1786 -17.1054 -17.0908
   -16.9717 -16.9353 -14.4846 -14.4690 -14.4006 -14.3886  -3.8305  -3.8073
    -2.2575  -2.1443  -2.0581  -1.9871  -1.4872  -1.4229   1.3666   1.4202
     1.6888   1.7389   2.1363   2.2149   2.6290   2.6729   3.4509   3.4838

          k = 0.2224 0.3852 0.0000 (  7291 PWs)   bands (ev):

   -36.1556 -36.1525 -17.6614 -17.5041 -17.1836 -17.1590 -17.1237 -17.0831
   -17.0362 -16.9311 -14.4897 -14.4659 -14.4080 -14.3669  -3.8505  -3.8422
    -2.2624  -2.0702  -2.0619  -2.0171  -1.7478  -1.2366   1.4399   1.5892
     1.6356   1.7188   2.0511   2.2380   2.6679   2.7814   3.4413   3.4530

          k =-0.4448 0.2568 0.3290 (  7255 PWs)   bands (ev):

   -36.1552 -36.1529 -17.7070 -17.4540 -17.1812 -17.1721 -17.1244 -17.0828
   -17.0687 -16.8866 -14.5065 -14.4453 -14.4112 -14.3739  -3.8909  -3.7862
    -2.2687  -2.1164  -2.0897  -1.9053  -1.6642  -1.3393   1.3989   1.6675
     1.7486   1.7820   1.9607   2.2520   2.4345   2.8116   3.3484   3.5036

          k = 0.4448 0.7704 0.0000 (  7300 PWs)   bands (ev):

   -36.1546 -36.1535 -17.6765 -17.5318 -17.1986 -17.1586 -17.0801 -17.0769
   -17.0448 -16.9046 -14.5047 -14.4664 -14.3923 -14.3811  -3.8555  -3.7809
    -2.2270  -2.1985  -2.0849  -1.9138  -1.5456  -1.3927   1.3457   1.4806
     1.7989   1.8474   2.0290   2.0768   2.5615   2.7458   3.3943   3.5110

          k = 0.0000 0.0000 0.2467 (  7297 PWs)   bands (ev):

   -36.1564 -36.1518 -17.5715 -17.5609 -17.1386 -17.1386 -17.1165 -17.0861
   -17.0861 -16.9991 -14.5091 -14.5091 -14.3425 -14.3425  -4.0357  -3.8579
    -2.0845  -2.0845  -2.0708  -2.0708  -1.9622  -1.0983   1.6281   1.6281
     1.8222   1.8222   2.0909   2.0909   2.8649   2.8649   3.1737   3.5220

          k =-0.2224-0.1284 0.3290 (  7291 PWs)   bands (ev):

   -36.1556 -36.1525 -17.6009 -17.5642 -17.1470 -17.1411 -17.1254 -17.0970
   -17.0154 -17.0003 -14.4806 -14.4795 -14.3810 -14.3731  -3.9667  -3.8665
    -2.1245  -2.1082  -2.0920  -2.0363  -1.7622  -1.2262   1.6249   1.6456
     1.6799   1.8428   1.9925   2.2672   2.6392   2.7821   3.2984   3.4697

          k = 0.6672 0.3852 0.0000 (  7303 PWs)   bands (ev):

   -36.1542 -36.1539 -17.6337 -17.5623 -17.1711 -17.1667 -17.1344 -17.0915
   -16.9902 -16.9279 -14.4819 -14.4374 -14.4159 -14.4010  -3.8833  -3.8047
    -2.2532  -2.0838  -2.0491  -2.0400  -1.5029  -1.4290   1.4379   1.5469
     1.6909   1.7108   2.0929   2.3949   2.4600   2.6776   3.3886   3.4856

          k = 0.4448 0.2568 0.0822 (  7286 PWs)   bands (ev):

   -36.1553 -36.1528 -17.6836 -17.4787 -17.1908 -17.1621 -17.1292 -17.0926
   -17.0402 -16.9019 -14.4928 -14.4396 -14.4272 -14.3755  -3.8630  -3.8070
    -2.2873  -2.0916  -2.0266  -2.0033  -1.6876  -1.2957   1.4069   1.5975
     1.6471   1.7049   2.0446   2.3469   2.5148   2.7841   3.4016   3.4841

          k =-0.2224 0.1284 0.4112 (  7286 PWs)   bands (ev):

   -36.1553 -36.1528 -17.6281 -17.5456 -17.1549 -17.1187 -17.1027 -17.0922
   -17.0419 -17.0078 -14.4752 -14.4517 -14.4109 -14.3756  -3.9445  -3.9054
    -2.1650  -2.1007  -2.0779  -1.9836  -1.7119  -1.2881   1.5920   1.7005
     1.7599   1.7604   2.0775   2.3263   2.4691   2.7878   3.3262   3.4125

          k = 0.6672 0.6420 0.0822 (  7289 PWs)   bands (ev):

   -36.1545 -36.1536 -17.6278 -17.5812 -17.1698 -17.1530 -17.0946 -17.0836
   -17.0031 -16.9667 -14.4766 -14.4517 -14.4164 -14.3876  -3.8643  -3.8615
    -2.1932  -2.1776  -2.0523  -1.9672  -1.5498  -1.4030   1.4905   1.5273
     1.7915   1.8416   2.0338   2.1900   2.5301   2.6910   3.4155   3.4206

          k = 0.4448 0.5136 0.1645 (  7289 PWs)   bands (ev):

   -36.1545 -36.1536 -17.6619 -17.5463 -17.1910 -17.1679 -17.0981 -17.0800
   -17.0150 -16.9123 -14.4990 -14.4646 -14.3997 -14.3806  -3.8487  -3.7882
    -2.2712  -2.1573  -2.0153  -1.9882  -1.5346  -1.3938   1.3448   1.4658
     1.7472   1.7915   2.0525   2.1817   2.5850   2.7110   3.4122   3.5031

          k = 0.6672-0.3852-0.2467 (  7300 PWs)   bands (ev):

   -36.1547 -36.1535 -17.6900 -17.4942 -17.1721 -17.1708 -17.1282 -17.0775
   -17.0489 -16.8944 -14.5026 -14.4362 -14.4139 -14.3849  -3.9006  -3.7878
    -2.2753  -2.0998  -2.0721  -1.9378  -1.5653  -1.4120   1.4051   1.6243
     1.7628   1.8584   1.9763   2.1970   2.4828   2.7290   3.3409   3.5013

          k = 0.0000 0.0000 0.4934 (  7315 PWs)   bands (ev):

   -36.1550 -36.1532 -17.5794 -17.5741 -17.1235 -17.1235 -17.1035 -17.1035
   -17.0682 -17.0247 -14.4566 -14.4566 -14.3930 -14.3930  -4.0162  -3.9517
    -2.0738  -2.0738  -2.0686  -2.0686  -1.6504  -1.3247   1.6777   1.6777
     1.7428   1.7428   2.3291   2.3291   2.6177   2.6177   3.2587   3.3910

          k = 0.8896 0.5136 0.1645 (  7303 PWs)   bands (ev):

   -36.1543 -36.1539 -17.6043 -17.5765 -17.1474 -17.1315 -17.1208 -17.0880
   -17.0265 -16.9965 -14.4531 -14.4307 -14.4197 -14.4101  -3.9542  -3.9176
    -2.1591  -2.0906  -2.0538  -2.0196  -1.5196  -1.4475   1.6123   1.6646
     1.7229   1.8134   2.1572   2.3613   2.5108   2.6041   3.3333   3.3895

     highest occupied level (ev):     3.5780

!    total energy              =    -367.31531877 Ry
     Harris-Foulkes estimate   =    -367.31532097 Ry
     estimated scf accuracy    <       0.00000260 Ry

     The total energy is the sum of the following terms:

     one-electron contribution =    -166.40219173 Ry
     hartree contribution      =     109.63160976 Ry
     xc contribution           =     -74.74997004 Ry
     ewald contribution        =    -235.79476676 Ry

     convergence has been achieved in  22 iterations

     Forces acting on atoms (cartesian axes, Ry/au):

     atom    1 type  1   force =    -0.00000000   -0.00000000   -0.00000000
     atom    2 type  1   force =    -0.00000000   -0.00000000   -0.00000000
     atom    3 type  2   force =     0.00000000    0.00000000    0.00000000
     atom    4 type  2   force =    -0.00000000    0.00000000    0.00000000
     atom    5 type  3   force =    -0.00067888    0.00117585    0.00000000
     atom    6 type  3   force =     0.00135775   -0.00000000    0.00000000
     atom    7 type  3   force =    -0.00067888   -0.00117585   -0.00000000
     atom    8 type  3   force =    -0.00135775    0.00000000   -0.00000000
     atom    9 type  3   force =     0.00067888    0.00117585    0.00000000
     atom   10 type  3   force =     0.00067888   -0.00117585   -0.00000000

     Total force =     0.003326     Total SCF correction =     0.001422
     SCF correction compared to forces is large: reduce conv_thr to get better values


     Computing stress (Cartesian axis) and pressure

          total   stress  (Ry/bohr**3)                   (kbar)     P= -102.23
  -0.00097522  -0.00000000   0.00000000       -143.46     -0.00      0.00
   0.00000000  -0.00097522  -0.00000000          0.00   -143.46     -0.00
   0.00000000  -0.00000000  -0.00013439          0.00     -0.00    -19.77


     number of scf cycles    =   4
     number of bfgs steps    =   2

     enthalpy old            =    -367.1746829388 Ry
     enthalpy new            =    -367.3153187702 Ry

     CASE: enthalpy_new < enthalpy_old

     new trust radius        =       0.1952699866 bohr
     new conv_thr            =       0.0000001358 Ry

     new unit-cell volume =    917.49650 a.u.^3 (   135.95895 Ang^3 )
     density =      2.44487 g/cm^3

CELL_PARAMETERS (alat= 12.00000000)
   0.435642178  -0.251518129   0.807625853
   0.000000000   0.503036257   0.807625853
  -0.435642178  -0.251518129   0.807625853

ATOMIC_POSITIONS (crystal)
Ca       0.500000000   0.500000000   0.500000000
Ca       0.000000000  -0.000000000   0.000000000
C        0.250000000   0.250000000   0.250000000
C        0.750000000   0.750000000   0.750000000
O        0.480331693   1.019668307   0.250000000
O        1.019668307   0.250000000   0.480331693
O        0.250000000   0.480331693   1.019668307
O       -0.019668307   0.750000000   0.519668307
O        0.750000000   0.519668307  -0.019668307
O        0.519668307  -0.019668307   0.750000000



     Writing output data file CCO_k.save/
     NEW-OLD atomic charge density approx. for the potential

     Check: negative core charge=   -0.000003
     extrapolated charge   59.56147, renormalised to   64.00000

     total cpu time spent up to now is      437.4 secs

     Self-consistent Calculation

     iteration #  1     ecut=    50.00 Ry     beta= 0.70
     CG style diagonalization
     c_bands:  2 eigenvalues not converged
     c_bands:  2 eigenvalues not converged
     c_bands:  3 eigenvalues not converged
     c_bands:  2 eigenvalues not converged
     c_bands:  5 eigenvalues not converged
     c_bands:  5 eigenvalues not converged
     c_bands:  5 eigenvalues not converged
     c_bands:  4 eigenvalues not converged
     ethr =  1.00E-06,  avg # of iterations = 14.7

     total cpu time spent up to now is      462.9 secs

     total energy              =    -366.24178625 Ry
     Harris-Foulkes estimate   =    -376.01948016 Ry
     estimated scf accuracy    <       0.81990814 Ry

     iteration #  2     ecut=    50.00 Ry     beta= 0.70
     CG style diagonalization
     ethr =  1.28E-03,  avg # of iterations =  5.1

     total cpu time spent up to now is      472.1 secs

     total energy              =    -367.19474353 Ry
     Harris-Foulkes estimate   =    -368.26909184 Ry
     estimated scf accuracy    <       3.12463796 Ry

     iteration #  3     ecut=    50.00 Ry     beta= 0.70
     CG style diagonalization
     ethr =  1.28E-03,  avg # of iterations =  4.0

     total cpu time spent up to now is      479.5 secs

     total energy              =    -367.37366477 Ry
     Harris-Foulkes estimate   =    -367.45314583 Ry
     estimated scf accuracy    <       0.33746949 Ry

     iteration #  4     ecut=    50.00 Ry     beta= 0.70
     CG style diagonalization
     ethr =  5.27E-04,  avg # of iterations =  3.0

     total cpu time spent up to now is      485.0 secs

     total energy              =    -367.34829411 Ry
     Harris-Foulkes estimate   =    -367.38526509 Ry
     estimated scf accuracy    <       0.15041793 Ry

     iteration #  5     ecut=    50.00 Ry     beta= 0.70
     CG style diagonalization
     ethr =  2.35E-04,  avg # of iterations =  3.3

     total cpu time spent up to now is      491.0 secs

     total energy              =    -367.35047084 Ry
     Harris-Foulkes estimate   =    -367.36062934 Ry
     estimated scf accuracy    <       0.03164839 Ry

     iteration #  6     ecut=    50.00 Ry     beta= 0.70
     CG style diagonalization
     ethr =  4.95E-05,  avg # of iterations =  3.3

     total cpu time spent up to now is      497.0 secs

     total energy              =    -367.35172919 Ry
     Harris-Foulkes estimate   =    -367.35313521 Ry
     estimated scf accuracy    <       0.00663575 Ry

     iteration #  7     ecut=    50.00 Ry     beta= 0.70
     CG style diagonalization
     ethr =  1.04E-05,  avg # of iterations =  3.3

     total cpu time spent up to now is      503.1 secs

     total energy              =    -367.35200072 Ry
     Harris-Foulkes estimate   =    -367.35242680 Ry
     estimated scf accuracy    <       0.00247626 Ry

     iteration #  8     ecut=    50.00 Ry     beta= 0.70
     CG style diagonalization
     ethr =  3.87E-06,  avg # of iterations =  3.4

     total cpu time spent up to now is      509.3 secs

     total energy              =    -367.35200033 Ry
     Harris-Foulkes estimate   =    -367.35231745 Ry
     estimated scf accuracy    <       0.00087402 Ry

     iteration #  9     ecut=    50.00 Ry     beta= 0.70
     CG style diagonalization
     ethr =  1.37E-06,  avg # of iterations =  3.5

     total cpu time spent up to now is      515.8 secs

     total energy              =    -367.35205280 Ry
     Harris-Foulkes estimate   =    -367.35211301 Ry
     estimated scf accuracy    <       0.00009359 Ry

     iteration # 10     ecut=    50.00 Ry     beta= 0.70
     CG style diagonalization
     ethr =  1.46E-07,  avg # of iterations =  4.3

     total cpu time spent up to now is      523.7 secs

     total energy              =    -367.35209018 Ry
     Harris-Foulkes estimate   =    -367.35211651 Ry
     estimated scf accuracy    <       0.00004516 Ry

     iteration # 11     ecut=    50.00 Ry     beta= 0.70
     CG style diagonalization
     ethr =  7.06E-08,  avg # of iterations =  3.8

     total cpu time spent up to now is      530.7 secs

     total energy              =    -367.35210367 Ry
     Harris-Foulkes estimate   =    -367.35210567 Ry
     estimated scf accuracy    <       0.00000508 Ry

     iteration # 12     ecut=    50.00 Ry     beta= 0.70
     CG style diagonalization
     ethr =  7.93E-09,  avg # of iterations =  3.7

     total cpu time spent up to now is      537.5 secs

     End of self-consistent calculation

          k = 0.0000 0.0000 0.0000 (  7391 PWs)   bands (ev):

   -35.2134 -35.2050 -17.6380 -17.5164 -16.2774 -16.2774 -16.2018 -16.1702
   -16.1635 -16.1635 -14.3438 -14.3438 -14.0710 -14.0710  -3.5243  -3.2265
    -2.0117  -1.7920  -1.7920  -1.7224  -1.7224  -0.8556   2.0415   2.0415
     2.3208   2.3208   2.4288   2.4288   3.4390   3.4390   3.7312   4.1667

          k =-0.2295-0.1325 0.0825 (  7297 PWs)   bands (ev):

   -35.2126 -35.2057 -17.6512 -17.5138 -16.2785 -16.2412 -16.2213 -16.2129
   -16.1595 -16.1322 -14.3167 -14.2836 -14.1373 -14.0949  -3.4254  -3.2562
    -1.9719  -1.7929  -1.7332  -1.7239  -1.6908  -0.9543   2.0311   2.0619
     2.1947   2.2163   2.4725   2.4852   3.3062   3.3122   3.8873   4.1016

          k =-0.4591-0.2651 0.1651 (  7315 PWs)   bands (ev):

   -35.2104 -35.2078 -17.6321 -17.5566 -16.2848 -16.2470 -16.2366 -16.2290
   -16.1289 -16.0858 -14.2600 -14.2304 -14.2036 -14.1571  -3.2833  -3.2628
    -1.9662  -1.8565  -1.7237  -1.6800  -1.4327  -1.1460   1.8878   1.9449
     2.0618   2.0849   2.6442   2.6725   3.1043   3.1101   4.0437   4.0455

          k =-0.2295 0.1325 0.1651 (  7319 PWs)   bands (ev):

   -35.2124 -35.2059 -17.6544 -17.5121 -16.2672 -16.2606 -16.2038 -16.2030
   -16.1576 -16.1534 -14.3030 -14.2799 -14.1424 -14.1053  -3.4170  -3.2815
    -1.9280  -1.8138  -1.7863  -1.6694  -1.6684  -0.9790   2.0338   2.0492
     2.2026   2.3015   2.3512   2.5837   3.1804   3.3756   3.8936   4.0753

          k =-0.4591 0.0000 0.2476 (  7286 PWs)   bands (ev):

   -35.2109 -35.2073 -17.6506 -17.5351 -16.3026 -16.2408 -16.2336 -16.1794
   -16.1661 -16.0940 -14.2805 -14.2407 -14.1887 -14.1378  -3.2976  -3.2872
    -1.9300  -1.8420  -1.7959  -1.6347  -1.4843  -1.1112   1.8817   2.0124
     2.1023   2.1895   2.4733   2.7042   2.9952   3.2499   4.0230   4.0387

          k = 0.4591 0.5301-0.0825 (  7303 PWs)   bands (ev):

   -35.2093 -35.2088 -17.6152 -17.5841 -16.2933 -16.2788 -16.2144 -16.1823
   -16.1231 -16.1027 -14.2800 -14.2524 -14.1742 -14.1539  -3.2640  -3.2337
    -1.9836  -1.8551  -1.7486  -1.6531  -1.3078  -1.2281   1.7846   1.8449
     2.1086   2.1647   2.5687   2.6472   3.0826   3.1283   4.0435   4.0841

          k = 0.2295 0.3976 0.0000 (  7291 PWs)   bands (ev):

   -35.2114 -35.2068 -17.6612 -17.5184 -16.3079 -16.2480 -16.2395 -16.1763
   -16.1682 -16.0831 -14.2777 -14.2662 -14.1714 -14.1323  -3.2894  -3.2768
    -2.0020  -1.7699  -1.7390  -1.6828  -1.5707  -1.0646   1.8602   2.0357
     2.0703   2.1519   2.4741   2.6787   3.1149   3.2417   4.0319   4.0503

          k =-0.4591 0.2651 0.3302 (  7255 PWs)   bands (ev):

   -35.2108 -35.2074 -17.6805 -17.5054 -16.3155 -16.3115 -16.2003 -16.1665
   -16.1479 -16.0675 -14.3150 -14.2101 -14.1942 -14.1369  -3.3418  -3.2055
    -1.9625  -1.8251  -1.8152  -1.5635  -1.4642  -1.1707   1.7972   2.0921
     2.1980   2.2054   2.3994   2.6705   2.8944   3.2752   3.9217   4.1205

          k = 0.4591 0.7952 0.0000 (  7300 PWs)   bands (ev):

   -35.2099 -35.2082 -17.6514 -17.5490 -16.3153 -16.2717 -16.1951 -16.1663
   -16.1568 -16.0855 -14.3093 -14.2360 -14.1756 -14.1420  -3.2963  -3.1990
    -1.9162  -1.9125  -1.8221  -1.5722  -1.3394  -1.2138   1.7459   1.9066
     2.2298   2.2685   2.4587   2.4959   3.0235   3.2079   3.9783   4.1224

          k = 0.0000 0.0000 0.2476 (  7297 PWs)   bands (ev):

   -35.2126 -35.2058 -17.6293 -17.5307 -16.2682 -16.2682 -16.1952 -16.1763
   -16.1763 -16.1699 -14.3159 -14.3159 -14.0954 -14.0954  -3.5255  -3.3004
    -1.8506  -1.7811  -1.7811  -1.7251  -1.7251  -0.9308   2.0626   2.0626
     2.2510   2.2510   2.5521   2.5521   3.3374   3.3374   3.7587   4.1090

          k =-0.2295-0.1325 0.3302 (  7291 PWs)   bands (ev):

   -35.2114 -35.2069 -17.6274 -17.5473 -16.2746 -16.2462 -16.2316 -16.1907
   -16.1579 -16.1365 -14.2865 -14.2610 -14.1594 -14.1232  -3.4400  -3.3120
    -1.8501  -1.8101  -1.7602  -1.7130  -1.5711  -1.0574   2.0624   2.0725
     2.1274   2.2846   2.4172   2.7176   3.0957   3.2463   3.8892   4.0566

          k = 0.6886 0.3976 0.0000 (  7303 PWs)   bands (ev):

   -35.2094 -35.2088 -17.6132 -17.5816 -16.2859 -16.2703 -16.2407 -16.1844
   -16.1175 -16.1047 -14.2688 -14.2350 -14.1799 -14.1695  -3.3330  -3.2294
    -1.9672  -1.8155  -1.7281  -1.7037  -1.3077  -1.2532   1.8585   1.9818
     2.1031   2.1492   2.5284   2.8490   2.8952   3.1284   3.9761   4.0851

          k = 0.4591 0.2651 0.0825 (  7286 PWs)   bands (ev):

   -35.2109 -35.2073 -17.6690 -17.5142 -16.3118 -16.2815 -16.2166 -16.1935
   -16.1452 -16.0671 -14.2954 -14.2104 -14.2046 -14.1425  -3.3044  -3.2323
    -2.0146  -1.7935  -1.7098  -1.6767  -1.5059  -1.1204   1.8176   2.0209
     2.0828   2.1514   2.4731   2.8009   2.9469   3.2421   3.9786   4.0955

          k =-0.2295 0.1325 0.4127 (  7286 PWs)   bands (ev):

   -35.2110 -35.2073 -17.6349 -17.5423 -16.2818 -16.2316 -16.2035 -16.1945
   -16.1713 -16.1549 -14.2541 -14.2503 -14.1706 -14.1521  -3.4126  -3.3640
    -1.8504  -1.8028  -1.7638  -1.6519  -1.5384  -1.1204   2.0212   2.1344
     2.1811   2.2079   2.5250   2.7755   2.9136   3.2579   3.9214   3.9961

          k = 0.6886 0.6626 0.0825 (  7289 PWs)   bands (ev):

   -35.2098 -35.2084 -17.6199 -17.5758 -16.2847 -16.2584 -16.2040 -16.1774
   -16.1585 -16.1229 -14.2622 -14.2265 -14.1985 -14.1604  -3.3093  -3.3051
    -1.8931  -1.8739  -1.7632  -1.6375  -1.3553  -1.2255   1.9102   1.9556
     2.2177   2.2756   2.4659   2.6185   2.9837   3.1522   4.0085   4.0168

          k = 0.4591 0.5301 0.1651 (  7289 PWs)   bands (ev):

   -35.2098 -35.2084 -17.6412 -17.5589 -16.3061 -16.2734 -16.2129 -16.1629
   -16.1464 -16.0904 -14.3014 -14.2358 -14.1822 -14.1426  -3.2876  -3.2086
    -1.9908  -1.8675  -1.7013  -1.6700  -1.3447  -1.2021   1.7517   1.8920
     2.1625   2.2232   2.4849   2.6067   3.0439   3.1691   3.9989   4.1115

          k = 0.6886-0.3976-0.2476 (  7300 PWs)   bands (ev):

   -35.2099 -35.2082 -17.6602 -17.5329 -16.3125 -16.2963 -16.2090 -16.1581
   -16.1436 -16.0820 -14.3043 -14.2203 -14.1813 -14.1504  -3.3552  -3.2080
    -1.9821  -1.8102  -1.7591  -1.6113  -1.3795  -1.2308   1.8084   2.0467
     2.2151   2.2756   2.4092   2.6210   2.9424   3.1880   3.9194   4.1132

          k = 0.0000 0.0000 0.4953 (  7315 PWs)   bands (ev):

   -35.2105 -35.2079 -17.6034 -17.5657 -16.2427 -16.2427 -16.2077 -16.2077
   -16.1818 -16.1723 -14.2449 -14.2449 -14.1608 -14.1608  -3.5052  -3.4265
    -1.7571  -1.7571  -1.7358  -1.7358  -1.5006  -1.1563   2.1118   2.1118
     2.1738   2.1738   2.7902   2.7902   3.0837   3.0837   3.8428   3.9753

          k = 0.9182 0.5301 0.1651 (  7303 PWs)   bands (ev):

   -35.2094 -35.2089 -17.5949 -17.5873 -16.2765 -16.2395 -16.2252 -16.1733
   -16.1605 -16.1572 -14.2294 -14.2256 -14.1961 -14.1758  -3.4270  -3.3805
    -1.8448  -1.7645  -1.7439  -1.7005  -1.3471  -1.2775   2.0435   2.0929
     2.1633   2.2442   2.5942   2.8102   2.9708   3.0649   3.9207   3.9802

     highest occupied level (ev):     4.1667

!    total energy              =    -367.35210497 Ry
     Harris-Foulkes estimate   =    -367.35210505 Ry
     estimated scf accuracy    <       0.00000010 Ry

     The total energy is the sum of the following terms:

     one-electron contribution =    -160.18747444 Ry
     hartree contribution      =     107.94125842 Ry
     xc contribution           =     -75.17867213 Ry
     ewald contribution        =    -239.92721682 Ry

     convergence has been achieved in  12 iterations

     Forces acting on atoms (cartesian axes, Ry/au):

     atom    1 type  1   force =    -0.00000000   -0.00000000    0.00000000
     atom    2 type  1   force =     0.00000000    0.00000000    0.00000000
     atom    3 type  2   force =    -0.00000000    0.00000000    0.00000000
     atom    4 type  2   force =     0.00000000    0.00000000    0.00000000
     atom    5 type  3   force =     0.04360949   -0.07553386   -0.00000000
     atom    6 type  3   force =    -0.08721899   -0.00000000    0.00000000
     atom    7 type  3   force =     0.04360949    0.07553386    0.00000000
     atom    8 type  3   force =     0.08721899   -0.00000000    0.00000000
[...]
     Q(r) pseudized with  8 coefficients,  rinner =    1.100   1.100   1.100


     PseudoPot. # 3 for O  read from file:
     ./O_PBE.UPF
     MD5 check sum: 734c27235a0248c51dbae37a1fbe46ec
     Pseudo is Ultrasoft + core correction, Zval =  6.0
     Generated by new atomic code, or converted to UPF format
     Using radial grid of  737 points,  5 beta functions with: 
                l(1) =   0
                l(2) =   0
                l(3) =   1
                l(4) =   1
                l(5) =   2
     Q(r) pseudized with  8 coefficients,  rinner =    0.900   0.900   0.900
                                                       0.900   0.900

     atomic species   valence    mass     pseudopotential
        Ca            10.00    40.07800     Ca( 1.00)
        C              4.00    12.01070     C ( 1.00)
        O              6.00    16.00000     O ( 1.00)

     12 Sym. Ops., with inversion, found ( 6 have fractional translation)



   Cartesian axes

     site n.     atom                  positions (alat units)
         1           Ca  tau(   1) = (   0.0000000  -0.0000000   1.3561322  )
         2           Ca  tau(   2) = (   0.0000000  -0.0000000  -0.0000000  )
         3           C   tau(   3) = (  -0.0000000  -0.0000000   0.6780661  )
         4           C   tau(   4) = (  -0.0000000  -0.0000000   2.0341983  )
         5           O   tau(   5) = (   0.1021182   0.2820825   1.5821543  )
         6           O   tau(   6) = (   0.1932315  -0.2294782   1.5821543  )
         7           O   tau(   7) = (  -0.2953497  -0.0526043   1.5821543  )
         8           O   tau(   8) = (  -0.1932315   0.2294782   1.1301102  )
         9           O   tau(   9) = (   0.2953497   0.0526043   1.1301102  )
        10           O   tau(  10) = (  -0.1021182  -0.2820825   1.1301102  )

     number of k points=    19
                       cart. coord. in units 2pi/alat
        k(    1) = (   0.0000000   0.0000000   0.0000000), wk =   0.0160000
        k(    2) = (  -0.2515926  -0.1452571   0.0737391), wk =   0.0960000
        k(    3) = (  -0.5031852  -0.2905141   0.1474782), wk =   0.0960000
        k(    4) = (  -0.2515926   0.1452571   0.1474782), wk =   0.0960000
        k(    5) = (  -0.5031852  -0.0000000   0.2212174), wk =   0.1920000
        k(    6) = (   0.5031852   0.5810282  -0.0737391), wk =   0.1920000
        k(    7) = (   0.2515926   0.4357712   0.0000000), wk =   0.0960000
        k(    8) = (  -0.5031852   0.2905141   0.2949565), wk =   0.0960000
        k(    9) = (   0.5031852   0.8715424   0.0000000), wk =   0.0960000
        k(   10) = (  -0.0000000  -0.0000000   0.2212174), wk =   0.0320000
        k(   11) = (  -0.2515926  -0.1452571   0.2949565), wk =   0.0960000
        k(   12) = (   0.7547778   0.4357712   0.0000000), wk =   0.0960000
        k(   13) = (   0.5031852   0.2905141   0.0737391), wk =   0.0960000
        k(   14) = (  -0.2515926   0.1452571   0.3686956), wk =   0.0960000
        k(   15) = (   0.7547778   0.7262853   0.0737391), wk =   0.1920000
        k(   16) = (   0.5031852   0.5810282   0.1474782), wk =   0.1920000
        k(   17) = (   0.7547778  -0.4357712  -0.2212174), wk =   0.0960000
        k(   18) = (  -0.0000000  -0.0000000   0.4424347), wk =   0.0320000
        k(   19) = (   1.0063704   0.5810282   0.1474782), wk =   0.0960000

     Dense  grid:    40861 G-vectors     FFT dimensions: (  60,  60,  60)

     Estimated max dynamical RAM per process >      15.07 MB

     Estimated total dynamical RAM >       1.77 GB
     Message from routine sym_rho_init:
     some processors have no G-vectors for symmetrization
     Message from routine sym_rho_init:
     some processors have no G-vectors for symmetrization
     Message from routine sym_rho_init:
     some processors have no G-vectors for symmetrization
     Message from routine sym_rho_init:
     some processors have no G-vectors for symmetrization
     Message from routine sym_rho_init:
     some processors have no G-vectors for symmetrization
     Message from routine sym_rho_init:
     some processors have no G-vectors for symmetrization
     Message from routine sym_rho_init:
     some processors have no G-vectors for symmetrization
     Message from routine sym_rho_init:
     some processors have no G-vectors for symmetrization
     Message from routine sym_rho_init:
     some processors have no G-vectors for symmetrization
     Message from routine sym_rho_init:
     some processors have no G-vectors for symmetrization

     Check: negative core charge=   -0.000003

     Initial potential from superposition of free atoms

     starting charge   63.98899, renormalised to   64.00000
     Starting wfcs are   52 randomized atomic wfcs

     total cpu time spent up to now is     1324.6 secs

     Self-consistent Calculation

     iteration #  1     ecut=    50.00 Ry     beta= 0.70
     CG style diagonalization
     c_bands:  4 eigenvalues not converged
     c_bands:  5 eigenvalues not converged
     c_bands:  4 eigenvalues not converged
     c_bands:  4 eigenvalues not converged
     c_bands:  5 eigenvalues not converged
     c_bands:  5 eigenvalues not converged
     c_bands:  2 eigenvalues not converged
     c_bands:  5 eigenvalues not converged
     c_bands:  5 eigenvalues not converged
     c_bands:  4 eigenvalues not converged
     c_bands:  2 eigenvalues not converged
     c_bands:  5 eigenvalues not converged
     ethr =  1.00E-06,  avg # of iterations = 13.5

     total cpu time spent up to now is     1346.9 secs

     total energy              =    -366.72805603 Ry
     Harris-Foulkes estimate   =    -367.90350928 Ry
     estimated scf accuracy    <       1.68784783 Ry

     iteration #  2     ecut=    50.00 Ry     beta= 0.70
     CG style diagonalization
     ethr =  2.64E-03,  avg # of iterations =  4.3

     total cpu time spent up to now is     1354.5 secs

     total energy              =    -367.11541029 Ry
     Harris-Foulkes estimate   =    -367.87754826 Ry
     estimated scf accuracy    <       1.55693957 Ry

     iteration #  3     ecut=    50.00 Ry     beta= 0.70
     CG style diagonalization
     ethr =  2.43E-03,  avg # of iterations =  3.8

     total cpu time spent up to now is     1361.1 secs

     total energy              =    -367.41878256 Ry
     Harris-Foulkes estimate   =    -367.42143114 Ry
     estimated scf accuracy    <       0.01250055 Ry

     iteration #  4     ecut=    50.00 Ry     beta= 0.70
     CG style diagonalization
     ethr =  1.95E-05,  avg # of iterations =  4.3

     total cpu time spent up to now is     1368.6 secs

     total energy              =    -367.42992048 Ry
     Harris-Foulkes estimate   =    -367.43089523 Ry
     estimated scf accuracy    <       0.00261134 Ry

     iteration #  5     ecut=    50.00 Ry     beta= 0.70
     CG style diagonalization
     ethr =  4.08E-06,  avg # of iterations =  3.6

     total cpu time spent up to now is     1374.8 secs

     total energy              =    -367.43032695 Ry
     Harris-Foulkes estimate   =    -367.43034327 Ry
     estimated scf accuracy    <       0.00011392 Ry

     iteration #  6     ecut=    50.00 Ry     beta= 0.70
     CG style diagonalization
     ethr =  1.78E-07,  avg # of iterations =  4.1

     total cpu time spent up to now is     1381.9 secs

     total energy              =    -367.43035916 Ry
     Harris-Foulkes estimate   =    -367.43036320 Ry
     estimated scf accuracy    <       0.00000824 Ry

     iteration #  7     ecut=    50.00 Ry     beta= 0.70
     CG style diagonalization
     ethr =  1.29E-08,  avg # of iterations =  4.3

     total cpu time spent up to now is     1389.4 secs

     total energy              =    -367.43036313 Ry
     Harris-Foulkes estimate   =    -367.43036464 Ry
     estimated scf accuracy    <       0.00000379 Ry

     iteration #  8     ecut=    50.00 Ry     beta= 0.70
     CG style diagonalization
     ethr =  5.93E-09,  avg # of iterations =  3.6

     total cpu time spent up to now is     1395.7 secs

     total energy              =    -367.43036358 Ry
     Harris-Foulkes estimate   =    -367.43036368 Ry
     estimated scf accuracy    <       0.00000020 Ry

     iteration #  9     ecut=    50.00 Ry     beta= 0.70
     CG style diagonalization
     ethr =  3.08E-10,  avg # of iterations =  3.9

     total cpu time spent up to now is     1402.6 secs

     End of self-consistent calculation

          k = 0.0000 0.0000 0.0000 (  5161 PWs)   bands (ev):

   -33.7043 -33.6918 -17.0892 -17.0791 -15.1340 -15.1340 -14.7694 -14.7694
   -14.6763 -14.5682 -13.9111 -13.9111 -13.3808 -13.3808  -3.3194  -3.0466
    -1.6958  -1.5389  -1.5389  -1.2801  -1.2801  -0.4085   2.3511   2.3511
     2.7843   2.7843   2.9550   2.9550   3.5692   3.5692   3.7706   4.1972

          k =-0.2516-0.1453 0.0737 (  5114 PWs)   bands (ev):

   -33.7030 -33.6929 -17.1029 -17.0529 -15.1320 -15.0370 -14.9069 -14.7712
   -14.7038 -14.6740 -13.8340 -13.6797 -13.5196 -13.4105  -3.1761  -3.0570
    -1.5786  -1.4788  -1.4162  -1.3262  -1.2669  -0.5580   2.4113   2.4894
     2.6502   2.6543   2.7817   2.8028   3.3733   3.4024   4.0455   4.2104

          k =-0.5032-0.2905 0.1475 (  5098 PWs)   bands (ev):

   -33.6996 -33.6957 -17.0952 -17.0390 -15.0952 -15.0277 -15.0044 -14.9046
   -14.6716 -14.6487 -13.6874 -13.6206 -13.5536 -13.5107  -2.9984  -2.9834
    -1.5415  -1.4408  -1.2617  -1.2485  -1.0901  -0.7901   2.1770   2.2648
     2.5321   2.5732   2.7652   2.8492   3.1299   3.1542   4.2661   4.3047

          k =-0.2516 0.1453 0.1475 (  5100 PWs)   bands (ev):

   -33.7027 -33.6931 -17.1105 -17.0465 -15.0937 -15.0847 -14.8343 -14.7921
   -14.7406 -14.6935 -13.7625 -13.7319 -13.4783 -13.4560  -3.1593  -3.0839
    -1.5257  -1.4696  -1.4653  -1.3082  -1.2524  -0.5895   2.4136   2.4554
     2.6309   2.6450   2.7771   2.8981   3.2848   3.4533   4.0557   4.1884

          k =-0.5032-0.0000 0.2212 (  5101 PWs)   bands (ev):

   -33.7004 -33.6950 -17.1154 -17.0243 -15.1510 -15.0559 -14.9097 -14.8276
   -14.6905 -14.6722 -13.7875 -13.6526 -13.5252 -13.4398  -3.0461  -2.9921
    -1.5098  -1.4155  -1.3758  -1.2330  -1.1217  -0.7502   2.2173   2.3712
     2.5247   2.5671   2.6977   2.8619   3.0845   3.2958   4.2310   4.2991

          k = 0.5032 0.5810-0.0737 (  5109 PWs)   bands (ev):

   -33.6980 -33.6972 -17.0835 -17.0474 -15.1243 -15.0617 -14.9745 -14.8521
   -14.6885 -14.6541 -13.7582 -13.6611 -13.5177 -13.4454  -2.9732  -2.9159
    -1.5394  -1.4331  -1.3054  -1.2120  -0.9296  -0.8630   2.1210   2.1999
     2.4302   2.5037   2.7071   2.7690   3.1523   3.1900   4.3179   4.3769

          k = 0.2516 0.4358 0.0000 (  5105 PWs)   bands (ev):

   -33.7011 -33.6944 -17.1241 -17.0112 -15.1581 -15.0666 -14.9464 -14.7695
   -14.7188 -14.6480 -13.7892 -13.6752 -13.5051 -13.4395  -3.0482  -2.9806
    -1.5558  -1.3778  -1.3140  -1.2364  -1.2356  -0.7150   2.2209   2.4619
     2.4834   2.5592   2.6315   2.8558   3.1651   3.2867   4.2285   4.3101

          k =-0.5032 0.2905 0.2950 (  5098 PWs)   bands (ev):

   -33.7001 -33.6952 -17.1591 -16.9706 -15.1975 -15.1840 -14.7688 -14.7437
   -14.7023 -14.6417 -13.8837 -13.7992 -13.4238 -13.3833  -3.1298  -2.8521
    -1.5780  -1.3839  -1.2942  -1.2037  -1.0338  -0.8343   2.0012   2.2934
     2.4827   2.7147   2.7310   2.8074   3.0615   3.2963   4.1381   4.4226

          k = 0.5032 0.8715 0.0000 (  5110 PWs)   bands (ev):

   -33.6989 -33.6963 -17.1243 -17.0072 -15.1818 -15.1070 -14.8302 -14.8061
   -14.7248 -14.6588 -13.8556 -13.7072 -13.4704 -13.3949  -3.0362  -2.8517
    -1.5216  -1.4550  -1.3233  -1.1981  -0.9158  -0.8364   1.9956   2.2114
     2.4913   2.5888   2.6586   2.6776   3.1596   3.2411   4.2457   4.4447

          k =-0.0000-0.0000 0.2212 (  5122 PWs)   bands (ev):

   -33.7031 -33.6930 -17.0891 -17.0809 -15.1091 -15.1091 -14.8215 -14.8215
   -14.6646 -14.5772 -13.8434 -13.8434 -13.4217 -13.4217  -3.3099  -3.0979
    -1.5541  -1.5140  -1.5140  -1.3049  -1.3049  -0.5196   2.3930   2.3930
     2.7374   2.7374   3.0129   3.0129   3.5015   3.5015   3.8060   4.1462

          k =-0.2516-0.1453 0.2950 (  5112 PWs)   bands (ev):

   -33.7013 -33.6945 -17.0878 -17.0711 -15.1298 -15.0052 -14.9790 -14.7467
   -14.7228 -14.6348 -13.8187 -13.6194 -13.5874 -13.4217  -3.1915  -3.0789
    -1.4926  -1.4665  -1.3611  -1.3164  -1.2582  -0.6801   2.4060   2.5104
     2.6280   2.6317   2.7732   2.9672   3.2483   3.3414   4.0490   4.1803

          k = 0.7548 0.4358 0.0000 (  5106 PWs)   bands (ev):

   -33.6981 -33.6973 -17.0987 -17.0388 -15.1439 -15.0391 -14.9603 -14.8499
   -14.6966 -14.6317 -13.7537 -13.6669 -13.5337 -13.4451  -3.0723  -2.9158
    -1.5385  -1.4221  -1.3251  -1.2236  -0.9667  -0.8625   2.1297   2.2756
     2.4922   2.6284   2.7234   2.9863   2.9951   3.1548   4.2198   4.3437

          k = 0.5032 0.2905 0.0737 (  5097 PWs)   bands (ev):

   -33.7004 -33.6949 -17.1403 -16.9890 -15.1728 -15.1248 -14.8877 -14.7810
   -14.7157 -14.6214 -13.8278 -13.6791 -13.5021 -13.4164  -3.0797  -2.8982
    -1.5828  -1.3652  -1.2650  -1.2480  -1.1214  -0.7840   2.0594   2.3659
     2.4281   2.6668   2.6764   2.9877   3.0013   3.2604   4.1877   4.3819

          k =-0.2516 0.1453 0.3687 (  5099 PWs)   bands (ev):

   -33.7006 -33.6952 -17.1073 -17.0537 -15.1244 -14.9972 -14.9348 -14.8116
   -14.7072 -14.6620 -13.7553 -13.6520 -13.5453 -13.4736  -3.1442  -3.1413
    -1.4804  -1.4269  -1.3932  -1.2903  -1.2011  -0.7619   2.4273   2.4374
     2.6104   2.6209   2.8655   3.0400   3.1168   3.3744   4.0837   4.1290

          k = 0.7548 0.7263 0.0737 (  5103 PWs)   bands (ev):

   -33.6987 -33.6967 -17.0907 -17.0560 -15.1184 -15.0685 -14.8498 -14.8412
   -14.7275 -14.7028 -13.7479 -13.6777 -13.5087 -13.4625  -3.0368  -3.0166
    -1.4596  -1.4566  -1.3600  -1.2646  -0.9748  -0.8445   2.2252   2.2735
     2.5719   2.6225   2.7216   2.8135   3.0921   3.2258   4.2453   4.2725

          k = 0.5032 0.5810 0.1475 (  5103 PWs)   bands (ev):

   -33.6986 -33.6965 -17.1129 -17.0183 -15.1634 -15.0875 -14.9276 -14.7586
   -14.7208 -14.6688 -13.8334 -13.6664 -13.5087 -13.4019  -3.0189  -2.8694
    -1.5540  -1.4104  -1.2840  -1.2488  -0.9327  -0.8328   2.0330   2.2180
     2.4412   2.5758   2.6660   2.7377   3.1601   3.2100   4.2673   4.4258

          k = 0.7548-0.4358-0.2212 (  5101 PWs)   bands (ev):

   -33.6989 -33.6964 -17.1439 -16.9908 -15.2039 -15.1332 -14.8059 -14.7615
   -14.7258 -14.6202 -13.8328 -13.8115 -13.4251 -13.4033  -3.1281  -2.8602
    -1.5772  -1.3745  -1.2723  -1.2487  -0.9516  -0.8863   2.0284   2.2673
     2.5410   2.6683   2.7145   2.8254   3.0824   3.2214   4.1530   4.4056

          k =-0.0000-0.0000 0.4424 (  5079 PWs)   bands (ev):

   -33.7000 -33.6961 -17.0880 -17.0849 -15.0375 -15.0375 -14.9315 -14.9315
   -14.6355 -14.6022 -13.6922 -13.6922 -13.5349 -13.5349  -3.2726  -3.1960
    -1.4493  -1.4493  -1.3696  -1.3696  -1.2118  -0.8200   2.5011   2.5011
     2.6310   2.6310   3.1528   3.1528   3.3364   3.3364   3.9007   4.0276

          k = 1.0064 0.5810 0.1475 (  5092 PWs)   bands (ev):

   -33.6983 -33.6975 -17.0925 -17.0697 -15.1199 -15.0203 -14.9388 -14.8247
   -14.6884 -14.6334 -13.7620 -13.6212 -13.5861 -13.4671  -3.1840  -3.1177
    -1.4610  -1.3868  -1.3739  -1.3604  -1.0217  -0.9287   2.4184   2.4821
     2.5897   2.6102   2.9068   3.0604   3.1549   3.2384   4.0748   4.1288

     highest occupied level (ev):     4.4447

!    total energy              =    -367.43036364 Ry
     Harris-Foulkes estimate   =    -367.43036364 Ry
     estimated scf accuracy    <          9.1E-09 Ry

     The total energy is the sum of the following terms:

     one-electron contribution =    -148.20844309 Ry
     hartree contribution      =     103.47530031 Ry
     xc contribution           =     -75.26747770 Ry
     ewald contribution        =    -247.42974315 Ry

     convergence has been achieved in   9 iterations

     Forces acting on atoms (cartesian axes, Ry/au):

     atom    1 type  1   force =     0.00000000    0.00000000    0.00000000
     atom    2 type  1   force =     0.00000000    0.00000000    0.00000000
     atom    3 type  2   force =     0.00000000   -0.00000000    0.00000000
     atom    4 type  2   force =     0.00000000    0.00000000   -0.00000000
     atom    5 type  3   force =     0.00008094   -0.00014019   -0.00000000
     atom    6 type  3   force =    -0.00016187   -0.00000000   -0.00000000
     atom    7 type  3   force =     0.00008094    0.00014019    0.00000000
     atom    8 type  3   force =     0.00016187    0.00000000    0.00000000
     atom    9 type  3   force =    -0.00008094   -0.00014019   -0.00000000
     atom   10 type  3   force =    -0.00008094    0.00014019    0.00000000

     Total force =     0.000397     Total SCF correction =     0.000142
     SCF correction compared to forces is large: reduce conv_thr to get better values


     Computing stress (Cartesian axis) and pressure

          total   stress  (Ry/bohr**3)                   (kbar)     P=   -1.19
  -0.00001031  -0.00000000   0.00000000         -1.52     -0.00      0.00
  -0.00000000  -0.00001031  -0.00000000         -0.00     -1.52     -0.00
   0.00000000  -0.00000000  -0.00000361          0.00     -0.00     -0.53


     Writing output data file CCO_k.save/
 
     init_run     :      4.84s CPU      6.71s WALL (       2 calls)
     electrons    :   1231.87s CPU   1381.15s WALL (      17 calls)
     update_pot   :      1.09s CPU      1.30s WALL (      15 calls)
     forces       :      3.72s CPU      4.08s WALL (      17 calls)
     stress       :      6.26s CPU      6.48s WALL (      17 calls)

     Called by init_run:
     wfcinit      :      4.30s CPU      5.22s WALL (       2 calls)
     potinit      :      0.05s CPU      0.07s WALL (       2 calls)
     hinit0       :      0.39s CPU      0.77s WALL (       2 calls)

     Called by electrons:
     c_bands      :   1156.55s CPU   1299.83s WALL (     171 calls)
     sum_band     :     70.40s CPU     74.69s WALL (     171 calls)
     v_of_rho     :      3.02s CPU      3.18s WALL (     185 calls)
     newd         :      1.35s CPU      1.42s WALL (     185 calls)
     mix_rho      :      0.50s CPU      0.61s WALL (     171 calls)

     Called by c_bands:
     init_us_2    :      1.62s CPU      1.93s WALL (    7182 calls)
     ccgdiagg     :    926.38s CPU   1016.96s WALL (    3334 calls)
     wfcrot       :    232.10s CPU    280.15s WALL (    2992 calls)

     Called by sum_band:
     sum_band:bec :      0.89s CPU      0.97s WALL (    3249 calls)
     addusdens    :      0.90s CPU      0.97s WALL (     171 calls)

     Called by *cgdiagg:
     h_psi        :    774.05s CPU    832.62s WALL (  371637 calls)
     s_psi        :     41.35s CPU     48.36s WALL (  740282 calls)
     cdiaghg      :     83.75s CPU    123.08s WALL (    2992 calls)

     Called by h_psi:
     h_psi:pot    :    763.75s CPU    820.67s WALL (  371637 calls)
     h_psi:calbec :     89.61s CPU     97.36s WALL (  371637 calls)
     vloc_psi     :    631.57s CPU    677.02s WALL (  371637 calls)
     add_vuspsi   :     29.85s CPU     33.62s WALL (  371637 calls)
     hs_1psi      :    694.43s CPU    750.78s WALL (  368645 calls)
     s_1psi       :     83.68s CPU     95.99s WALL (  368645 calls)

     General routines
     calbec       :    134.08s CPU    151.01s WALL (  745146 calls)
     fft          :      3.39s CPU      3.66s WALL (    2478 calls)
     ffts         :      0.23s CPU      0.23s WALL (     171 calls)
     fftw         :    661.54s CPU    707.48s WALL ( 1034266 calls)
 
     Parallel routines
     fft_scatt_xy :     30.11s CPU     32.11s WALL ( 1036915 calls)
     fft_scatt_yz :    498.98s CPU    534.92s WALL ( 1036915 calls)
 
     PWSCF        :  20m51.78s CPU  23m27.75s WALL

 
   This run was terminated on:  16: 2:11  24Apr2022            

=------------------------------------------------------------------------------=
   JOB DONE.
=------------------------------------------------------------------------------=
