
     Program PWSCF v.6.4.1 starts on  4May2022 at  9:19:23 

     This program is part of the open-source Quantum ESPRESSO suite
     for quantum simulation of materials; please cite
         "P. Giannozzi et al., J. Phys.:Condens. Matter 21 395502 (2009);
         "P. Giannozzi et al., J. Phys.:Condens. Matter 29 465901 (2017);
          URL http://www.quantum-espresso.org", 
     in publications or presentations arising from this work. More details at
     http://www.quantum-espresso.org/quote

     Parallel version (MPI & OpenMP), running on     300 processor cores
     Number of MPI processes:               300
     Threads/MPI process:                     1

     MPI processes distributed on     5 nodes
     R & G space division:  proc/nbgrp/npool/nimage =     300
     Waiting for input...
     Reading input from standard input

     Current dimensions of program PWSCF are:
     Max number of different atomic species (ntypx) = 10
     Max number of k-points (npk) =  40000
     Max angular momentum in pseudopotentials (lmaxx) =  3

     Subspace diagonalization in iterative solution of the eigenvalue problem:
     one sub-group per band group will be used
     scalapack distributed-memory algorithm (size of sub-group: 12* 12 procs)

 
     Parallelization info
     --------------------
     sticks:   dense  smooth     PW     G-vecs:    dense   smooth      PW
     Min           5       5      1                  131      131      18
     Max           6       6      2                  141      141      26
     Sum        1703    1703    505                40837    40837    6651
 


     bravais-lattice index     =            5
     lattice parameter (alat)  =      12.1620  a.u.
     unit-cell volume          =     854.7720 (a.u.)^3
     number of atoms/cell      =           10
     number of atomic types    =            3
     number of electrons       =        64.00
     number of Kohn-Sham states=           32
     kinetic-energy cutoff     =      50.0000  Ry
     charge density cutoff     =     200.0000  Ry
     convergence threshold     =      1.0E-05
     mixing beta               =       0.7000
     number of iterations used =            8  plain     mixing
     Exchange-correlation      = SLA  PW   PBE  PBE ( 1  4  3  4 0 0)
     nstep                     =           50


     celldm(1)=  12.162000  celldm(2)=   0.000000  celldm(3)=   0.000000
     celldm(4)=   0.692300  celldm(5)=   0.000000  celldm(6)=   0.000000

     crystal axes: (cart. coord. in units of alat)
               a(1) = (   0.392237  -0.226458   0.891553 )  
               a(2) = (   0.000000   0.452916   0.891553 )  
               a(3) = (  -0.392237  -0.226458   0.891553 )  

     reciprocal axes: (cart. coord. in units 2 pi/alat)
               b(1) = (  1.274739 -0.735971  0.373879 )  
               b(2) = (  0.000000  1.471942  0.373879 )  
               b(3) = ( -1.274739 -0.735971  0.373879 )  


     PseudoPot. # 1 for Ca read from file:
     ./Ca_PBE.UPF
     MD5 check sum: 403a4c14b9e4d4dfdc3024c9a3812218
     Pseudo is Ultrasoft + core correction, Zval = 10.0
     Generated by new atomic code, or converted to UPF format
     Using radial grid of  845 points,  6 beta functions with: 
                l(1) =   0
                l(2) =   0
                l(3) =   1
                l(4) =   1
                l(5) =   2
                l(6) =   2
     Q(r) pseudized with  8 coefficients,  rinner =    1.500   1.500   1.500
                                                       1.500   1.500

     PseudoPot. # 2 for C  read from file:
     ./C_PBE.UPF
     MD5 check sum: d1aef80898a10debaa0f26306b886e00
     Pseudo is Ultrasoft + core correction, Zval =  4.0
     Generated by new atomic code, or converted to UPF format
     Using radial grid of  721 points,  4 beta functions with: 
                l(1) =   0
                l(2) =   0
                l(3) =   1
                l(4) =   1
     Q(r) pseudized with  8 coefficients,  rinner =    1.100   1.100   1.100


     PseudoPot. # 3 for O  read from file:
     ./O_PBE.UPF
     MD5 check sum: 734c27235a0248c51dbae37a1fbe46ec
     Pseudo is Ultrasoft + core correction, Zval =  6.0
     Generated by new atomic code, or converted to UPF format
     Using radial grid of  737 points,  5 beta functions with: 
                l(1) =   0
                l(2) =   0
                l(3) =   1
                l(4) =   1
                l(5) =   2
     Q(r) pseudized with  8 coefficients,  rinner =    0.900   0.900   0.900
                                                       0.900   0.900

     atomic species   valence    mass     pseudopotential
        Ca            10.00    40.07800     Ca( 1.00)
        C              4.00    12.01070     C ( 1.00)
        O              6.00    16.00000     O ( 1.00)

     12 Sym. Ops., with inversion, found ( 6 have fractional translation)



   Cartesian axes

     site n.     atom                  positions (alat units)
         1           Ca  tau(   1) = (   0.0000000  -0.0000000   1.3373294  )
         2           Ca  tau(   2) = (   0.0000000   0.0000000   0.0000000  )
         3           C   tau(   3) = (   0.0000000  -0.0000000   0.6686647  )
         4           C   tau(   4) = (   0.0000000  -0.0000000   2.0059941  )
         5           O   tau(   5) = (   0.1007658   0.2783849   1.5602177  )
         6           O   tau(   6) = (   0.1907055  -0.2264582   1.5602177  )
         7           O   tau(   7) = (  -0.2914713  -0.0519267   1.5602177  )
         8           O   tau(   8) = (  -0.1907055   0.2264582   1.1144412  )
         9           O   tau(   9) = (   0.2914713   0.0519267   1.1144412  )
        10           O   tau(  10) = (  -0.1007658  -0.2783849   1.1144412  )

     number of k points=    44
                       cart. coord. in units 2pi/alat
        k(    1) = (   0.0000000   0.0000000   0.0000000), wk =   0.0058309
        k(    2) = (  -0.1821056  -0.1051387   0.0534114), wk =   0.0349854
        k(    3) = (  -0.3642111  -0.2102774   0.1068227), wk =   0.0349854
        k(    4) = (  -0.5463167  -0.3154161   0.1602341), wk =   0.0349854
        k(    5) = (  -0.1821056   0.1051387   0.1068227), wk =   0.0349854
        k(    6) = (  -0.3642111  -0.0000000   0.1602341), wk =   0.0699708
        k(    7) = (  -0.5463167  -0.1051387   0.2136454), wk =   0.0699708
        k(    8) = (   0.5463167   0.5256935  -0.1068227), wk =   0.0699708
        k(    9) = (   0.3642111   0.4205548  -0.0534114), wk =   0.0699708
        k(   10) = (   0.1821056   0.3154161   0.0000000), wk =   0.0349854
        k(   11) = (  -0.3642111   0.2102774   0.2136454), wk =   0.0349854
        k(   12) = (  -0.5463167   0.1051387   0.2670568), wk =   0.0699708
        k(   13) = (   0.5463167   0.7359709  -0.0534114), wk =   0.0699708
        k(   14) = (   0.3642111   0.6308322   0.0000000), wk =   0.0349854
        k(   15) = (  -0.5463167   0.3154161   0.3204681), wk =   0.0349854
        k(   16) = (   0.5463167   0.9462483   0.0000000), wk =   0.0349854
        k(   17) = (   0.0000000  -0.0000000   0.1602341), wk =   0.0116618
        k(   18) = (  -0.1821056  -0.1051387   0.2136454), wk =   0.0349854
        k(   19) = (  -0.3642111  -0.2102774   0.2670568), wk =   0.0349854
        k(   20) = (   0.7284223   0.4205548  -0.0534114), wk =   0.0349854
        k(   21) = (   0.5463167   0.3154161   0.0000000), wk =   0.0349854
        k(   22) = (   0.3642111   0.2102774   0.0534114), wk =   0.0349854
        k(   23) = (  -0.1821056   0.1051387   0.2670568), wk =   0.0349854
        k(   24) = (  -0.3642111   0.0000000   0.3204681), wk =   0.0699708
        k(   25) = (   0.7284223   0.6308322   0.0000000), wk =   0.0699708
        k(   26) = (   0.5463167   0.5256935   0.0534114), wk =   0.0699708
        k(   27) = (   0.3642111   0.4205548   0.1068227), wk =   0.0699708
        k(   28) = (  -0.3642111   0.2102774   0.3738795), wk =   0.0349854
        k(   29) = (   0.7284223   0.8411096   0.0534114), wk =   0.0699708
        k(   30) = (   0.5463167   0.7359709   0.1068227), wk =   0.0699708
        k(   31) = (   0.3642111   0.6308322   0.1602341), wk =   0.0699708
        k(   32) = (   0.7284223  -0.4205548  -0.2670568), wk =   0.0349854
        k(   33) = (   0.5463167  -0.5256935  -0.2136454), wk =   0.0699708
        k(   34) = (   0.5463167  -0.3154161  -0.1602341), wk =   0.0349854
        k(   35) = (   0.0000000  -0.0000000   0.3204681), wk =   0.0116618
        k(   36) = (  -0.1821056  -0.1051387   0.3738795), wk =   0.0349854
        k(   37) = (   0.9105278   0.5256935   0.0534114), wk =   0.0349854
        k(   38) = (   0.7284223   0.4205548   0.1068227), wk =   0.0349854
        k(   39) = (  -0.1821056   0.1051387   0.4272908), wk =   0.0349854
        k(   40) = (   0.9105278   0.7359709   0.1068227), wk =   0.0699708
        k(   41) = (   0.7284223   0.6308322   0.1602341), wk =   0.0699708
        k(   42) = (   0.9105278  -0.5256935  -0.2136454), wk =   0.0349854
        k(   43) = (   0.0000000   0.0000000   0.4807022), wk =   0.0116618
        k(   44) = (   1.0926334   0.6308322   0.1602341), wk =   0.0349854

     Dense  grid:    40837 G-vectors     FFT dimensions: (  60,  60,  60)

     Estimated max dynamical RAM per process >      14.40 MB

     Estimated total dynamical RAM >       4.22 GB
     Message from routine sym_rho_init:
     some processors have no G-vectors for symmetrization
     Message from routine sym_rho_init:
     some processors have no G-vectors for symmetrization
     Message from routine sym_rho_init:
     some processors have no G-vectors for symmetrization
     Message from routine sym_rho_init:
     some processors have no G-vectors for symmetrization
     Message from routine sym_rho_init:
     some processors have no G-vectors for symmetrization
     Message from routine sym_rho_init:
     some processors have no G-vectors for symmetrization
     Message from routine sym_rho_init:
     some processors have no G-vectors for symmetrization
     Message from routine sym_rho_init:
     some processors have no G-vectors for symmetrization
     Message from routine sym_rho_init:
     some processors have no G-vectors for symmetrization
     Message from routine sym_rho_init:
     some processors have no G-vectors for symmetrization
     Message from routine sym_rho_init:
     some processors have no G-vectors for symmetrization
     Message from routine sym_rho_init:
     some processors have no G-vectors for symmetrization
     Message from routine sym_rho_init:
     some processors have no G-vectors for symmetrization
     Message from routine sym_rho_init:
     some processors have no G-vectors for symmetrization
     Message from routine sym_rho_init:
     some processors have no G-vectors for symmetrization
     Message from routine sym_rho_init:
     some processors have no G-vectors for symmetrization
     Message from routine sym_rho_init:
     some processors have no G-vectors for symmetrization
     Message from routine sym_rho_init:
     some processors have no G-vectors for symmetrization
     Message from routine sym_rho_init:
     some processors have no G-vectors for symmetrization
     Message from routine sym_rho_init:
     some processors have no G-vectors for symmetrization
     Message from routine sym_rho_init:
     some processors have no G-vectors for symmetrization
     Message from routine sym_rho_init:
     some processors have no G-vectors for symmetrization
     Message from routine sym_rho_init:
     some processors have no G-vectors for symmetrization
     Message from routine sym_rho_init:
     some processors have no G-vectors for symmetrization
     Message from routine sym_rho_init:
     some processors have no G-vectors for symmetrization
     Message from routine sym_rho_init:
     some processors have no G-vectors for symmetrization
     Message from routine sym_rho_init:
     some processors have no G-vectors for symmetrization
     Message from routine sym_rho_init:
     some processors have no G-vectors for symmetrization
     Message from routine sym_rho_init:
     some processors have no G-vectors for symmetrization
     Message from routine sym_rho_init:
     some processors have no G-vectors for symmetrization
     Message from routine sym_rho_init:
     some processors have no G-vectors for symmetrization
     Message from routine sym_rho_init:
     some processors have no G-vectors for symmetrization
     Message from routine sym_rho_init:
     some processors have no G-vectors for symmetrization
     Message from routine sym_rho_init:
     some processors have no G-vectors for symmetrization
     Message from routine sym_rho_init:
     some processors have no G-vectors for symmetrization
     Message from routine sym_rho_init:
     some processors have no G-vectors for symmetrization
     Message from routine sym_rho_init:
     some processors have no G-vectors for symmetrization
     Message from routine sym_rho_init:
     some processors have no G-vectors for symmetrization
     Message from routine sym_rho_init:
     some processors have no G-vectors for symmetrization
     Message from routine sym_rho_init:
     some processors have no G-vectors for symmetrization
     Message from routine sym_rho_init:
     some processors have no G-vectors for symmetrization
     Message from routine sym_rho_init:
     some processors have no G-vectors for symmetrization
     Message from routine sym_rho_init:
     some processors have no G-vectors for symmetrization
     Message from routine sym_rho_init:
     some processors have no G-vectors for symmetrization
     Message from routine sym_rho_init:
     some processors have no G-vectors for symmetrization
     Message from routine sym_rho_init:
     some processors have no G-vectors for symmetrization
     Message from routine sym_rho_init:
     some processors have no G-vectors for symmetrization
     Message from routine sym_rho_init:
     some processors have no G-vectors for symmetrization
     Message from routine sym_rho_init:
     some processors have no G-vectors for symmetrization
     Message from routine sym_rho_init:
     some processors have no G-vectors for symmetrization
     Message from routine sym_rho_init:
     some processors have no G-vectors for symmetrization
     Message from routine sym_rho_init:
     some processors have no G-vectors for symmetrization
     Message from routine sym_rho_init:
     some processors have no G-vectors for symmetrization
     Message from routine sym_rho_init:
     some processors have no G-vectors for symmetrization
     Message from routine sym_rho_init:
     some processors have no G-vectors for symmetrization
     Message from routine sym_rho_init:
     some processors have no G-vectors for symmetrization
     Message from routine sym_rho_init:
     some processors have no G-vectors for symmetrization
     Message from routine sym_rho_init:
     some processors have no G-vectors for symmetrization
     Message from routine sym_rho_init:
     some processors have no G-vectors for symmetrization
     Message from routine sym_rho_init:
     some processors have no G-vectors for symmetrization
     Message from routine sym_rho_init:
     some processors have no G-vectors for symmetrization
     Message from routine sym_rho_init:
     some processors have no G-vectors for symmetrization
     Message from routine sym_rho_init:
     some processors have no G-vectors for symmetrization
     Message from routine sym_rho_init:
     some processors have no G-vectors for symmetrization
     Message from routine sym_rho_init:
     some processors have no G-vectors for symmetrization
     Message from routine sym_rho_init:
     some processors have no G-vectors for symmetrization
     Message from routine sym_rho_init:
     some processors have no G-vectors for symmetrization
     Message from routine sym_rho_init:
     some processors have no G-vectors for symmetrization
     Message from routine sym_rho_init:
     some processors have no G-vectors for symmetrization
     Message from routine sym_rho_init:
     some processors have no G-vectors for symmetrization
     Message from routine sym_rho_init:
     some processors have no G-vectors for symmetrization
     Message from routine sym_rho_init:
     some processors have no G-vectors for symmetrization
     Message from routine sym_rho_init:
     some processors have no G-vectors for symmetrization
     Message from routine sym_rho_init:
     some processors have no G-vectors for symmetrization
     Message from routine sym_rho_init:
     some processors have no G-vectors for symmetrization
     Message from routine sym_rho_init:
     some processors have no G-vectors for symmetrization
     Message from routine sym_rho_init:
     some processors have no G-vectors for symmetrization
     Message from routine sym_rho_init:
     some processors have no G-vectors for symmetrization
     Message from routine sym_rho_init:
     some processors have no G-vectors for symmetrization
     Message from routine sym_rho_init:
     some processors have no G-vectors for symmetrization
     Message from routine sym_rho_init:
     some processors have no G-vectors for symmetrization
     Message from routine sym_rho_init:
     some processors have no G-vectors for symmetrization
     Message from routine sym_rho_init:
     some processors have no G-vectors for symmetrization
     Message from routine sym_rho_init:
     some processors have no G-vectors for symmetrization
     Message from routine sym_rho_init:
     some processors have no G-vectors for symmetrization
     Message from routine sym_rho_init:
     some processors have no G-vectors for symmetrization
     Message from routine sym_rho_init:
     some processors have no G-vectors for symmetrization
     Message from routine sym_rho_init:
     some processors have no G-vectors for symmetrization
     Message from routine sym_rho_init:
     some processors have no G-vectors for symmetrization
     Message from routine sym_rho_init:
     some processors have no G-vectors for symmetrization
     Message from routine sym_rho_init:
     some processors have no G-vectors for symmetrization
     Message from routine sym_rho_init:
     some processors have no G-vectors for symmetrization
     Message from routine sym_rho_init:
     some processors have no G-vectors for symmetrization
     Message from routine sym_rho_init:
     some processors have no G-vectors for symmetrization
     Message from routine sym_rho_init:
     some processors have no G-vectors for symmetrization
     Message from routine sym_rho_init:
     some processors have no G-vectors for symmetrization
     Message from routine sym_rho_init:
     some processors have no G-vectors for symmetrization
     Message from routine sym_rho_init:
     some processors have no G-vectors for symmetrization
     Message from routine sym_rho_init:
     some processors have no G-vectors for symmetrization
     Message from routine sym_rho_init:
     some processors have no G-vectors for symmetrization
     Message from routine sym_rho_init:
     some processors have no G-vectors for symmetrization
     Message from routine sym_rho_init:
     some processors have no G-vectors for symmetrization
     Message from routine sym_rho_init:
     some processors have no G-vectors for symmetrization
     Message from routine sym_rho_init:
     some processors have no G-vectors for symmetrization
     Message from routine sym_rho_init:
     some processors have no G-vectors for symmetrization
     Message from routine sym_rho_init:
     some processors have no G-vectors for symmetrization
     Message from routine sym_rho_init:
     some processors have no G-vectors for symmetrization
     Message from routine sym_rho_init:
     some processors have no G-vectors for symmetrization
     Message from routine sym_rho_init:
     some processors have no G-vectors for symmetrization
     Message from routine sym_rho_init:
     some processors have no G-vectors for symmetrization
     Message from routine sym_rho_init:
     some processors have no G-vectors for symmetrization
     Message from routine sym_rho_init:
     some processors have no G-vectors for symmetrization
     Message from routine sym_rho_init:
     some processors have no G-vectors for symmetrization
     Message from routine sym_rho_init:
     some processors have no G-vectors for symmetrization
     Message from routine sym_rho_init:
     some processors have no G-vectors for symmetrization
     Message from routine sym_rho_init:
     some processors have no G-vectors for symmetrization
     Message from routine sym_rho_init:
     some processors have no G-vectors for symmetrization
     Message from routine sym_rho_init:
     some processors have no G-vectors for symmetrization
     Message from routine sym_rho_init:
     some processors have no G-vectors for symmetrization
     Message from routine sym_rho_init:
     some processors have no G-vectors for symmetrization
     Message from routine sym_rho_init:
     some processors have no G-vectors for symmetrization
     Message from routine sym_rho_init:
     some processors have no G-vectors for symmetrization
     Message from routine sym_rho_init:
     some processors have no G-vectors for symmetrization
     Message from routine sym_rho_init:
     some processors have no G-vectors for symmetrization
     Message from routine sym_rho_init:
     some processors have no G-vectors for symmetrization
     Message from routine sym_rho_init:
     some processors have no G-vectors for symmetrization
     Message from routine sym_rho_init:
     some processors have no G-vectors for symmetrization
     Message from routine sym_rho_init:
     some processors have no G-vectors for symmetrization
     Message from routine sym_rho_init:
     some processors have no G-vectors for symmetrization
     Message from routine sym_rho_init:
     some processors have no G-vectors for symmetrization
     Message from routine sym_rho_init:
     some processors have no G-vectors for symmetrization
     Message from routine sym_rho_init:
     some processors have no G-vectors for symmetrization
     Message from routine sym_rho_init:
     some processors have no G-vectors for symmetrization
     Message from routine sym_rho_init:
     some processors have no G-vectors for symmetrization
     Message from routine sym_rho_init:
     some processors have no G-vectors for symmetrization
     Message from routine sym_rho_init:
     some processors have no G-vectors for symmetrization
     Message from routine sym_rho_init:
     some processors have no G-vectors for symmetrization
     Message from routine sym_rho_init:
     some processors have no G-vectors for symmetrization
     Message from routine sym_rho_init:
     some processors have no G-vectors for symmetrization
     Message from routine sym_rho_init:
     some processors have no G-vectors for symmetrization
     Message from routine sym_rho_init:
     some processors have no G-vectors for symmetrization
     Message from routine sym_rho_init:
     some processors have no G-vectors for symmetrization
     Message from routine sym_rho_init:
     some processors have no G-vectors for symmetrization
     Message from routine sym_rho_init:
     some processors have no G-vectors for symmetrization
     Message from routine sym_rho_init:
     some processors have no G-vectors for symmetrization
     Message from routine sym_rho_init:
     some processors have no G-vectors for symmetrization
     Message from routine sym_rho_init:
     some processors have no G-vectors for symmetrization
     Message from routine sym_rho_init:
     some processors have no G-vectors for symmetrization
     Message from routine sym_rho_init:
     some processors have no G-vectors for symmetrization
     Message from routine sym_rho_init:
     some processors have no G-vectors for symmetrization
     Message from routine sym_rho_init:
     some processors have no G-vectors for symmetrization
     Message from routine sym_rho_init:
     some processors have no G-vectors for symmetrization
     Message from routine sym_rho_init:
     some processors have no G-vectors for symmetrization
     Message from routine sym_rho_init:
     some processors have no G-vectors for symmetrization
     Message from routine sym_rho_init:
     some processors have no G-vectors for symmetrization
     Message from routine sym_rho_init:
     some processors have no G-vectors for symmetrization
     Message from routine sym_rho_init:
     some processors have no G-vectors for symmetrization
     Message from routine sym_rho_init:
     some processors have no G-vectors for symmetrization
     Message from routine sym_rho_init:
     some processors have no G-vectors for symmetrization
     Message from routine sym_rho_init:
     some processors have no G-vectors for symmetrization
     Message from routine sym_rho_init:
     some processors have no G-vectors for symmetrization
     Message from routine sym_rho_init:
     some processors have no G-vectors for symmetrization
     Message from routine sym_rho_init:
     some processors have no G-vectors for symmetrization
     Message from routine sym_rho_init:
     some processors have no G-vectors for symmetrization
     Message from routine sym_rho_init:
     some processors have no G-vectors for symmetrization
     Message from routine sym_rho_init:
     some processors have no G-vectors for symmetrization
     Message from routine sym_rho_init:
     some processors have no G-vectors for symmetrization
     Message from routine sym_rho_init:
     some processors have no G-vectors for symmetrization
     Message from routine sym_rho_init:
     some processors have no G-vectors for symmetrization
     Message from routine sym_rho_init:
     some processors have no G-vectors for symmetrization
     Message from routine sym_rho_init:
     some processors have no G-vectors for symmetrization
     Message from routine sym_rho_init:
     some processors have no G-vectors for symmetrization
     Message from routine sym_rho_init:
     some processors have no G-vectors for symmetrization
     Message from routine sym_rho_init:
     some processors have no G-vectors for symmetrization
     Message from routine sym_rho_init:
     some processors have no G-vectors for symmetrization
     Message from routine sym_rho_init:
     some processors have no G-vectors for symmetrization
     Message from routine sym_rho_init:
     some processors have no G-vectors for symmetrization
     Message from routine sym_rho_init:
     some processors have no G-vectors for symmetrization
     Message from routine sym_rho_init:
     some processors have no G-vectors for symmetrization
     Message from routine sym_rho_init:
     some processors have no G-vectors for symmetrization
     Message from routine sym_rho_init:
     some processors have no G-vectors for symmetrization
     Message from routine sym_rho_init:
     some processors have no G-vectors for symmetrization
     Message from routine sym_rho_init:
     some processors have no G-vectors for symmetrization
     Message from routine sym_rho_init:
     some processors have no G-vectors for symmetrization
     Message from routine sym_rho_init:
     some processors have no G-vectors for symmetrization
     Message from routine sym_rho_init:
     some processors have no G-vectors for symmetrization
     Message from routine sym_rho_init:
     some processors have no G-vectors for symmetrization
     Message from routine sym_rho_init:
     some processors have no G-vectors for symmetrization
     Message from routine sym_rho_init:
     some processors have no G-vectors for symmetrization
     Message from routine sym_rho_init:
     some processors have no G-vectors for symmetrization
     Message from routine sym_rho_init:
     some processors have no G-vectors for symmetrization
     Message from routine sym_rho_init:
     some processors have no G-vectors for symmetrization
     Message from routine sym_rho_init:
     some processors have no G-vectors for symmetrization
     Message from routine sym_rho_init:
     some processors have no G-vectors for symmetrization

     Check: negative core charge=   -0.000003

     Initial potential from superposition of free atoms

     starting charge   63.98899, renormalised to   64.00000
     Starting wfcs are   52 randomized atomic wfcs

     total cpu time spent up to now is       11.6 secs

     Self-consistent Calculation

     iteration #  1     ecut=    50.00 Ry     beta= 0.70
     CG style diagonalization
     ethr =  1.00E-02,  avg # of iterations =  2.7

     total cpu time spent up to now is       24.6 secs

     total energy              =    -366.66927038 Ry
     Harris-Foulkes estimate   =    -367.89236740 Ry
     estimated scf accuracy    <       1.75360430 Ry

     iteration #  2     ecut=    50.00 Ry     beta= 0.70
     CG style diagonalization
     ethr =  2.74E-03,  avg # of iterations =  4.3

     total cpu time spent up to now is       46.9 secs

     total energy              =    -367.10007042 Ry
     Harris-Foulkes estimate   =    -367.91415652 Ry
     estimated scf accuracy    <       1.67482211 Ry

     iteration #  3     ecut=    50.00 Ry     beta= 0.70
     CG style diagonalization
     ethr =  2.62E-03,  avg # of iterations =  3.8

     total cpu time spent up to now is       66.5 secs

     total energy              =    -367.41858577 Ry
     Harris-Foulkes estimate   =    -367.42056654 Ry
     estimated scf accuracy    <       0.01097541 Ry

     iteration #  4     ecut=    50.00 Ry     beta= 0.70
     CG style diagonalization
     ethr =  1.71E-05,  avg # of iterations =  4.4

     total cpu time spent up to now is       88.9 secs

     total energy              =    -367.42990650 Ry
     Harris-Foulkes estimate   =    -367.43091912 Ry
     estimated scf accuracy    <       0.00272848 Ry

     iteration #  5     ecut=    50.00 Ry     beta= 0.70
     CG style diagonalization
     ethr =  4.26E-06,  avg # of iterations =  3.6

     total cpu time spent up to now is      107.5 secs

     total energy              =    -367.43031325 Ry
     Harris-Foulkes estimate   =    -367.43034592 Ry
     estimated scf accuracy    <       0.00014825 Ry

     iteration #  6     ecut=    50.00 Ry     beta= 0.70
     CG style diagonalization
     ethr =  2.32E-07,  avg # of iterations =  4.1

     total cpu time spent up to now is      128.7 secs

     total energy              =    -367.43035214 Ry
     Harris-Foulkes estimate   =    -367.43036449 Ry
     estimated scf accuracy    <       0.00002114 Ry

     iteration #  7     ecut=    50.00 Ry     beta= 0.70
     CG style diagonalization
     ethr =  3.30E-08,  avg # of iterations =  4.1

     total cpu time spent up to now is      149.7 secs

     End of self-consistent calculation

          k = 0.0000 0.0000 0.0000 (  5161 PWs)   bands (ev):

   -33.6975 -33.6849 -17.0823 -17.0727 -15.1282 -15.1282 -14.7630 -14.7630
   -14.6700 -14.5620 -13.9055 -13.9055 -13.3741 -13.3741  -3.3138  -3.0410
    -1.6910  -1.5332  -1.5332  -1.2742  -1.2742  -0.4013   2.3558   2.3558
     2.7873   2.7873   2.9598   2.9598   3.5745   3.5745   3.7751   4.2021

          k =-0.1821-0.1051 0.0534 (  5123 PWs)   bands (ev):

   -33.6967 -33.6854 -17.0876 -17.0611 -15.1271 -15.0685 -14.8331 -14.7601
   -14.6922 -14.6484 -13.8633 -13.7568 -13.4529 -13.3892  -3.2341  -3.0505
    -1.6199  -1.5016  -1.4690  -1.3072  -1.2638  -0.4856   2.3940   2.4429
     2.7042   2.7549   2.8182   2.8802   3.4560   3.4787   3.9431   4.2088

          k =-0.3642-0.2103 0.1068 (  5091 PWs)   bands (ev):

   -33.6948 -33.6870 -17.1028 -17.0287 -15.1231 -14.9972 -14.9848 -14.8035
   -14.6739 -14.6720 -13.7675 -13.5931 -13.5830 -13.4363  -3.0709  -3.0380
    -1.5400  -1.4269  -1.3043  -1.2850  -1.2684  -0.6541   2.3911   2.4051
     2.5938   2.6084   2.7144   2.8015   3.2588   3.2936   4.1972   4.2298

          k =-0.5463-0.3154 0.1602 (  5095 PWs)   bands (ev):

   -33.6921 -33.6893 -17.0814 -17.0385 -15.0703 -15.0217 -15.0030 -14.9280
   -14.6611 -14.6420 -13.6572 -13.6050 -13.5516 -13.5267  -2.9814  -2.9670
    -1.5306  -1.4534  -1.2457  -1.2334  -1.0334  -0.8180   2.1581   2.2295
     2.5329   2.5677   2.7933   2.8578   3.1170   3.1351   4.2834   4.3177

          k =-0.1821 0.1051 0.1068 (  5119 PWs)   bands (ev):

   -33.6966 -33.6856 -17.0900 -17.0594 -15.0965 -15.0950 -14.8157 -14.7659
   -14.6847 -14.6830 -13.8102 -13.7876 -13.4319 -13.4204  -3.2287  -3.0626
    -1.5943  -1.4924  -1.4805  -1.3110  -1.2589  -0.5031   2.3948   2.4478
     2.6968   2.7115   2.8543   2.9061   3.4103   3.5059   3.9456   4.1985

          k =-0.3642-0.0000 0.1602 (  5096 PWs)   bands (ev):

   -33.6952 -33.6867 -17.1054 -17.0322 -15.1039 -15.0711 -14.8721 -14.7967
   -14.7051 -14.6806 -13.7513 -13.6998 -13.4950 -13.4458  -3.1042  -3.0633
    -1.5188  -1.4412  -1.3943  -1.2844  -1.2454  -0.6327   2.3970   2.4710
     2.5823   2.6362   2.7293   2.8475   3.2350   3.3871   4.1456   4.2106

          k =-0.5463-0.1051 0.2136 (  5097 PWs)   bands (ev):

   -33.6929 -33.6886 -17.0908 -17.0332 -15.1189 -15.0518 -14.9243 -14.8728
   -14.6706 -14.6551 -13.7370 -13.6498 -13.5177 -13.4597  -2.9978  -2.9900
    -1.5088  -1.4342  -1.3246  -1.2320  -1.0771  -0.7654   2.2138   2.3260
     2.5084   2.5459   2.7272   2.8440   3.1074   3.2412   4.2730   4.3065

          k = 0.5463 0.5257-0.1068 (  5119 PWs)   bands (ev):

   -33.6911 -33.6903 -17.0768 -17.0412 -15.1053 -15.0379 -14.9852 -14.8839
   -14.6699 -14.6419 -13.7229 -13.6297 -13.5351 -13.4622  -2.9776  -2.9200
    -1.5302  -1.4493  -1.2714  -1.2102  -0.9290  -0.8757   2.1271   2.2060
     2.4594   2.5305   2.7485   2.8160   3.1318   3.1684   4.3069   4.3642

          k = 0.3642 0.4206-0.0534 (  5105 PWs)   bands (ev):

   -33.6936 -33.6880 -17.1128 -17.0071 -15.1520 -15.0452 -14.9668 -14.7945
   -14.6955 -14.6307 -13.7814 -13.6411 -13.5203 -13.4344  -3.0294  -2.9524
    -1.5547  -1.3773  -1.2902  -1.2302  -1.1674  -0.7401   2.1761   2.3975
     2.4738   2.5670   2.6650   2.8660   3.1500   3.2507   4.2435   4.3408

          k = 0.1821 0.3154 0.0000 (  5101 PWs)   bands (ev):

   -33.6956 -33.6863 -17.1086 -17.0273 -15.0955 -15.0853 -14.8607 -14.8041
   -14.7054 -14.6806 -13.7605 -13.7011 -13.4896 -13.4403  -3.1012  -3.0552
    -1.5483  -1.4347  -1.3848  -1.3291  -1.2377  -0.6009   2.4030   2.5247
     2.5256   2.6709   2.7019   2.8044   3.2894   3.3891   4.1458   4.2194

          k =-0.3642 0.2103 0.2136 (  5102 PWs)   bands (ev):

   -33.6946 -33.6872 -17.1276 -17.0048 -15.1238 -15.0940 -14.8168 -14.7745
   -14.7435 -14.6913 -13.7513 -13.7071 -13.4843 -13.4469  -3.1021  -3.0171
    -1.5086  -1.4101  -1.4020  -1.2256  -1.1978  -0.7070   2.2718   2.4197
     2.5375   2.6857   2.7129   2.9438   3.0811   3.3876   4.1758   4.2385

          k =-0.5463 0.1051 0.2671 (  5103 PWs)   bands (ev):

   -33.6932 -33.6883 -17.1279 -16.9949 -15.1786 -15.0807 -14.8647 -14.7766
   -14.6944 -14.6577 -13.8431 -13.6651 -13.5011 -13.3969  -3.0733  -2.9157
    -1.5242  -1.4103  -1.3373  -1.2102  -1.0540  -0.7847   2.1072   2.3357
     2.4856   2.6433   2.7005   2.8476   3.0634   3.3049   4.2035   4.3712

          k = 0.5463 0.7360-0.0534 (  5115 PWs)   bands (ev):

   -33.6914 -33.6900 -17.0823 -17.0382 -15.1457 -15.0337 -14.9260 -14.8422
   -14.7017 -14.6596 -13.7867 -13.6565 -13.5020 -13.4198  -2.9640  -2.9099
    -1.4897  -1.4603  -1.3395  -1.2002  -0.8955  -0.8416   2.0968   2.1960
     2.4734   2.5084   2.6775   2.7132   3.1547   3.2395   4.3248   4.3912

          k = 0.3642 0.6308 0.0000 (  5093 PWs)   bands (ev):

   -33.6918 -33.6895 -17.0935 -17.0230 -15.1464 -15.0597 -14.9769 -14.7645
   -14.7168 -14.6392 -13.8027 -13.6536 -13.5085 -13.4094  -2.9799  -2.8918
    -1.5544  -1.3577  -1.3394  -1.2072  -0.9828  -0.8052   2.1012   2.2557
     2.4209   2.4843   2.6689   2.7642   3.1990   3.2007   4.3069   4.4114

          k =-0.5463 0.3154 0.3205 (  5098 PWs)   bands (ev):

   -33.6930 -33.6885 -17.1567 -16.9572 -15.2031 -15.1943 -14.7518 -14.7317
   -14.6962 -14.6058 -13.9080 -13.8129 -13.4042 -13.3639  -3.1282  -2.8174
    -1.5827  -1.3775  -1.2716  -1.1919  -0.9984  -0.8448   1.9633   2.2694
     2.4933   2.7248   2.7400   2.7588   3.0955   3.2836   4.1347   4.4560

          k = 0.5463 0.9462 0.0000 (  5104 PWs)   bands (ev):

   -33.6923 -33.6890 -17.1380 -16.9778 -15.1934 -15.1507 -14.7890 -14.7441
   -14.7185 -14.6351 -13.8925 -13.7482 -13.4344 -13.3698  -3.0764  -2.8182
    -1.5519  -1.4193  -1.2920  -1.1892  -0.9358  -0.8356   1.9604   2.2296
     2.5033   2.6485   2.6820   2.6986   3.1532   3.2517   4.1953   4.4687

          k = 0.0000-0.0000 0.1602 (  5125 PWs)   bands (ev):

   -33.6968 -33.6855 -17.0823 -17.0736 -15.1154 -15.1154 -14.7910 -14.7910
   -14.6639 -14.5666 -13.8694 -13.8694 -13.3952 -13.3952  -3.3092  -3.0689
    -1.6162  -1.5203  -1.5203  -1.2871  -1.2871  -0.4587   2.3775   2.3775
     2.7622   2.7622   2.9906   2.9906   3.5390   3.5390   3.7934   4.1751

          k =-0.1821-0.1051 0.2136 (  5121 PWs)   bands (ev):

   -33.6958 -33.6864 -17.0836 -17.0665 -15.1308 -15.0288 -14.9149 -14.7490
   -14.6914 -14.6210 -13.8566 -13.6990 -13.5031 -13.3954  -3.2358  -3.0767
    -1.5477  -1.4895  -1.4153  -1.3106  -1.2928  -0.5624   2.4115   2.4612
     2.6783   2.7262   2.8323   2.9605   3.3897   3.4397   3.9550   4.1799

          k =-0.3642-0.2103 0.2671 (  5095 PWs)   bands (ev):

   -33.6937 -33.6881 -17.0796 -17.0554 -15.1132 -15.0376 -14.9559 -14.7977
   -14.6942 -14.6438 -13.7655 -13.6177 -13.5725 -13.4330  -3.1063  -3.0188
    -1.4916  -1.4501  -1.3346  -1.2860  -1.1712  -0.7119   2.3508   2.4529
     2.5530   2.6058   2.7334   2.8827   3.1803   3.2581   4.1720   4.2416

          k = 0.7284 0.4206-0.0534 (  5107 PWs)   bands (ev):

   -33.6911 -33.6904 -17.0837 -17.0381 -15.1114 -15.0307 -14.9683 -14.8907
   -14.6774 -14.6298 -13.7027 -13.6452 -13.5409 -13.4676  -3.0374  -2.9136
    -1.5297  -1.4437  -1.2930  -1.2093  -0.9539  -0.8661   2.1286   2.2420
     2.4928   2.6107   2.7581   2.9451   3.0290   3.1504   4.2504   4.3473

          k = 0.5463 0.3154 0.0000 (  5091 PWs)   bands (ev):

   -33.6929 -33.6886 -17.1197 -16.9965 -15.1451 -15.0943 -14.9196 -14.8296
   -14.6936 -14.6116 -13.7768 -13.6436 -13.5161 -13.4399  -3.0477  -2.8975
    -1.5770  -1.3660  -1.2825  -1.2026  -1.0865  -0.7980   2.0653   2.3132
     2.4562   2.6498   2.6968   2.9702   3.0312   3.2124   4.2192   4.3820

          k = 0.3642 0.2103 0.0534 (  5086 PWs)   bands (ev):

   -33.6951 -33.6867 -17.1199 -17.0105 -15.1216 -15.0651 -14.9004 -14.7756
   -14.7108 -14.6818 -13.7713 -13.6365 -13.5376 -13.4349  -3.0677  -3.0386
    -1.5350  -1.4180  -1.3750  -1.2589  -1.2396  -0.6546   2.3186   2.4390
     2.5789   2.6507   2.6511   2.8753   3.1955   3.3682   4.2063   4.2205

          k =-0.1821 0.1051 0.2671 (  5102 PWs)   bands (ev):

   -33.6953 -33.6869 -17.0901 -17.0615 -15.1047 -15.0421 -14.8936 -14.7811
   -14.6719 -14.6656 -13.7823 -13.7198 -13.4855 -13.4421  -3.2196  -3.1070
    -1.5046  -1.4639  -1.4300  -1.3132  -1.2798  -0.6121   2.4182   2.4743
     2.6393   2.6869   2.8930   3.0065   3.3119   3.4636   3.9665   4.1531

          k =-0.3642 0.0000 0.3205 (  5101 PWs)   bands (ev):

   -33.6939 -33.6880 -17.0960 -17.0454 -15.1050 -15.0588 -14.8897 -14.7749
   -14.7321 -14.6640 -13.7305 -13.6964 -13.5041 -13.4619  -3.1097  -3.0821
    -1.4550  -1.4420  -1.4041  -1.2694  -1.1792  -0.7254   2.3874   2.4281
     2.6077   2.6228   2.7648   2.9466   3.1309   3.3439   4.1466   4.1897

          k = 0.7284 0.6308 0.0000 (  5101 PWs)   bands (ev):

   -33.6918 -33.6897 -17.0651 -17.0636 -15.1166 -15.0400 -14.9246 -14.8434
   -14.6915 -14.6713 -13.7500 -13.6246 -13.5492 -13.4419  -3.0293  -2.9664
    -1.4901  -1.4198  -1.3711  -1.2321  -0.9776  -0.8200   2.2085   2.2635
     2.5359   2.5825   2.7132   2.8671   3.0766   3.2134   4.2670   4.3056

          k = 0.5463 0.5257 0.0534 (  5100 PWs)   bands (ev):

   -33.6917 -33.6897 -17.1085 -17.0087 -15.1542 -15.0779 -14.9431 -14.7810
   -14.7034 -14.6322 -13.8124 -13.6422 -13.5217 -13.4062  -3.0288  -2.8677
    -1.5672  -1.3523  -1.3312  -1.2050  -0.9558  -0.8396   2.0443   2.2483
     2.4275   2.6020   2.6984   2.8245   3.1248   3.1950   4.2530   4.4170

          k = 0.3642 0.4206 0.1068 (  5100 PWs)   bands (ev):

   -33.6937 -33.6879 -17.1260 -16.9933 -15.1773 -15.0622 -14.9342 -14.7482
   -14.7122 -14.6313 -13.8358 -13.6214 -13.5392 -13.4006  -3.0565  -2.9258
    -1.5538  -1.3762  -1.3018  -1.2322  -1.1373  -0.7491   2.1326   2.4128
     2.4427   2.6000   2.6631   2.8892   3.1035   3.2910   4.2177   4.3642

          k =-0.3642 0.2103 0.3739 (  5099 PWs)   bands (ev):

   -33.6933 -33.6884 -17.1240 -17.0122 -15.1582 -15.0472 -14.8431 -14.7787
   -14.7388 -14.6602 -13.7695 -13.7098 -13.4789 -13.4452  -3.1304  -3.0074
    -1.5134  -1.3966  -1.3511  -1.2486  -1.1029  -0.7987   2.2552   2.3800
     2.5724   2.6878   2.7760   2.9541   3.0149   3.3421   4.1512   4.2483

          k = 0.7284 0.8411 0.0534 (  5115 PWs)   bands (ev):

   -33.6923 -33.6893 -17.1174 -17.0103 -15.1573 -15.0855 -14.8276 -14.7761
   -14.7185 -14.6921 -13.7948 -13.7147 -13.4624 -13.4250  -3.0751  -2.9216
    -1.5149  -1.4176  -1.3219  -1.2357  -0.9694  -0.8338   2.1128   2.2803
     2.5439   2.6686   2.7212   2.7653   3.0849   3.2627   4.2084   4.3608

          k = 0.5463 0.7360 0.1068 (  5102 PWs)   bands (ev):

   -33.6909 -33.6904 -17.0692 -17.0534 -15.1170 -15.0693 -14.8830 -14.8406
   -14.7176 -14.6860 -13.7483 -13.6975 -13.4718 -13.4406  -2.9471  -2.9279
    -1.4951  -1.4591  -1.3163  -1.2301  -0.8649  -0.8504   2.1113   2.1470
     2.5108   2.5284   2.6687   2.6827   3.1730   3.2165   4.3461   4.3700

          k = 0.3642 0.6308 0.1602 (  5111 PWs)   bands (ev):

   -33.6917 -33.6896 -17.0907 -17.0270 -15.1507 -15.0456 -14.9586 -14.8115
   -14.6890 -14.6493 -13.8018 -13.6476 -13.5114 -13.4110  -2.9757  -2.8967
    -1.5274  -1.4358  -1.2686  -1.2434  -0.9470  -0.8185   2.0980   2.2387
     2.4374   2.4897   2.6744   2.7459   3.1745   3.2257   4.3112   4.4060

          k = 0.7284-0.4206-0.2671 (  5095 PWs)   bands (ev):

   -33.6924 -33.6891 -17.1485 -16.9685 -15.2065 -15.1665 -14.7506 -14.7490
   -14.7190 -14.6024 -13.8640 -13.8314 -13.3933 -13.3862  -3.1264  -2.8224
    -1.5833  -1.3729  -1.2448  -1.2313  -0.9573  -0.8676   1.9792   2.2542
     2.5297   2.6741   2.7332   2.7901   3.1018   3.2433   4.1449   4.4455

          k = 0.5463-0.5257-0.2136 (  5097 PWs)   bands (ev):

   -33.6922 -33.6892 -17.1303 -16.9860 -15.1832 -15.1325 -14.8497 -14.7326
   -14.7120 -14.6401 -13.8728 -13.7158 -13.4598 -13.3768  -3.0639  -2.8312
    -1.5638  -1.3983  -1.2617  -1.2322  -0.9439  -0.8323   1.9829   2.2403
     2.4626   2.6455   2.6810   2.7498   3.1465   3.2296   4.2115   4.4549

          k = 0.5463-0.3154-0.1602 (  5095 PWs)   bands (ev):

   -33.6932 -33.6883 -17.1463 -16.9672 -15.1876 -15.1645 -14.8200 -14.7393
   -14.7199 -14.5989 -13.8729 -13.7404 -13.4465 -13.3824  -3.1000  -2.8440
    -1.5865  -1.3598  -1.2473  -1.2349  -1.0501  -0.8130   1.9943   2.3233
     2.4273   2.6919   2.7106   2.8981   3.0551   3.2669   4.1636   4.4324

          k = 0.0000-0.0000 0.3205 (  5112 PWs)   bands (ev):

   -33.6951 -33.6873 -17.0820 -17.0761 -15.0779 -15.0779 -14.8597 -14.8597
   -14.6473 -14.5801 -13.7779 -13.7779 -13.4561 -13.4561  -3.2928  -3.1340
    -1.4842  -1.4842  -1.4179  -1.3231  -1.3231  -0.6226   2.4380   2.4380
     2.7007   2.7007   3.0694   3.0694   3.4432   3.4432   3.8452   4.1046

          k =-0.1821-0.1051 0.3739 (  5103 PWs)   bands (ev):

   -33.6939 -33.6883 -17.0785 -17.0741 -15.1086 -14.9876 -14.9790 -14.7979
   -14.6697 -14.6128 -13.7937 -13.6278 -13.5734 -13.4369  -3.2280  -3.1236
    -1.4616  -1.4535  -1.3571  -1.3380  -1.2434  -0.7247   2.4460   2.5013
     2.6386   2.6404   2.9263   3.0802   3.2609   3.3659   3.9832   4.1250

          k = 0.9105 0.5257 0.0534 (  5110 PWs)   bands (ev):

   -33.6921 -33.6897 -17.0843 -17.0540 -15.1404 -15.0043 -14.9627 -14.7644
   -14.7245 -14.6288 -13.7898 -13.6055 -13.5840 -13.4232  -3.1333  -3.0092
    -1.4837  -1.4053  -1.3586  -1.2919  -1.0437  -0.8236   2.2989   2.4200
     2.5999   2.6307   2.7076   3.0471   3.0474   3.2125   4.1510   4.2470

          k = 0.7284 0.4206 0.1068 (  5098 PWs)   bands (ev):

   -33.6914 -33.6900 -17.1227 -16.9978 -15.1748 -15.1094 -14.8545 -14.7988
   -14.7062 -14.6079 -13.7872 -13.7645 -13.4473 -13.4150  -3.0943  -2.8570
    -1.5722  -1.3462  -1.3290  -1.2086  -0.9177  -0.8966   2.0384   2.2687
     2.4828   2.6856   2.6983   2.8998   3.0708   3.1733   4.1885   4.4051

          k =-0.1821 0.1051 0.4273 (  5102 PWs)   bands (ev):

   -33.6932 -33.6889 -17.0874 -17.0664 -15.0949 -14.9734 -14.9710 -14.8417
   -14.6481 -14.6426 -13.7419 -13.6198 -13.5741 -13.4789  -3.2015  -3.1606
    -1.4570  -1.4243  -1.3815  -1.3228  -1.1844  -0.7976   2.4677   2.5095
     2.5872   2.6356   2.9837   3.1218   3.1847   3.3632   4.0073   4.0905

          k = 0.9105 0.7360 0.1068 (  5102 PWs)   bands (ev):

   -33.6920 -33.6899 -17.0812 -17.0632 -15.0919 -15.0699 -14.8698 -14.8183
   -14.7008 -14.6693 -13.7100 -13.6974 -13.5023 -13.4844  -3.1102  -3.1006
    -1.4412  -1.4274  -1.3662  -1.3090  -1.0312  -0.8673   2.3864   2.4005
     2.6045   2.6202   2.8453   2.9495   3.1330   3.2496   4.1531   4.1680

          k = 0.7284 0.6308 0.1602 (  5095 PWs)   bands (ev):

   -33.6910 -33.6905 -17.0952 -17.0350 -15.1300 -15.0693 -14.8798 -14.7718
   -14.7197 -14.7015 -13.7491 -13.7069 -13.4833 -13.4399  -3.0598  -2.9399
    -1.5139  -1.4069  -1.3147  -1.2673  -0.8959  -0.8902   2.1514   2.2578
     2.5735   2.6329   2.6905   2.8049   3.1381   3.1780   4.2320   4.3366

          k = 0.9105-0.5257-0.2136 (  5096 PWs)   bands (ev):

   -33.6916 -33.6902 -17.1088 -17.0300 -15.1630 -14.9975 -14.9285 -14.7746
   -14.7187 -14.6346 -13.7998 -13.6572 -13.5283 -13.4247  -3.1424  -3.0058
    -1.5086  -1.3789  -1.3138  -1.3078  -0.9672  -0.9155   2.2654   2.3811
     2.6039   2.6638   2.7722   2.9307   3.0878   3.2435   4.1423   4.2501

          k = 0.0000 0.0000 0.4807 (  5094 PWs)   bands (ev):

   -33.6926 -33.6898 -17.0810 -17.0789 -15.0182 -15.0182 -14.9419 -14.9419
   -14.6244 -14.6004 -13.6625 -13.6625 -13.5493 -13.5493  -3.2587  -3.2039
    -1.4324  -1.4324  -1.3749  -1.3749  -1.1494  -0.8669   2.5238   2.5238
     2.6171   2.6171   3.1818   3.1818   3.3141   3.3141   3.9222   4.0134

          k = 1.0926 0.6308 0.1602 (  5103 PWs)   bands (ev):

   -33.6915 -33.6907 -17.0817 -17.0725 -15.0789 -15.0248 -14.9293 -14.8661
   -14.6498 -14.6221 -13.7143 -13.6353 -13.5673 -13.4979  -3.2036  -3.1691
    -1.4345  -1.3885  -1.3823  -1.3769  -1.0271  -0.9476   2.4924   2.5303
     2.5820   2.5961   3.0375   3.1260   3.2086   3.2654   4.0298   4.0630

     highest occupied level (ev):     4.4687

!    total energy              =    -367.43036018 Ry
     Harris-Foulkes estimate   =    -367.43036310 Ry
     estimated scf accuracy    <       0.00000459 Ry

     The total energy is the sum of the following terms:

     one-electron contribution =    -148.11959505 Ry
     hartree contribution      =     103.42531006 Ry
     xc contribution           =     -75.26271231 Ry
     ewald contribution        =    -247.47336287 Ry

     convergence has been achieved in   7 iterations

     Forces acting on atoms (cartesian axes, Ry/au):

     atom    1 type  1   force =    -0.00000000   -0.00000000    0.00000000
     atom    2 type  1   force =     0.00000000    0.00000000    0.00000000
     atom    3 type  2   force =     0.00000000   -0.00000000   -0.00000000
     atom    4 type  2   force =    -0.00000000   -0.00000000   -0.00000000
     atom    5 type  3   force =     0.00003436   -0.00005951   -0.00000000
     atom    6 type  3   force =    -0.00006872   -0.00000000    0.00000000
     atom    7 type  3   force =     0.00003436    0.00005951    0.00000000
     atom    8 type  3   force =     0.00006872    0.00000000   -0.00000000
     atom    9 type  3   force =    -0.00003436   -0.00005951   -0.00000000
     atom   10 type  3   force =    -0.00003436    0.00005951    0.00000000

     Total force =     0.000168     Total SCF correction =     0.000258
     SCF correction compared to forces is large: reduce conv_thr to get better values


     Computing stress (Cartesian axis) and pressure

          total   stress  (Ry/bohr**3)                   (kbar)     P=   -4.81
  -0.00003403   0.00000000  -0.00000000         -5.01      0.00     -0.00
   0.00000000  -0.00003403  -0.00000000          0.00     -5.01     -0.00
   0.00000000  -0.00000000  -0.00003013          0.00     -0.00     -4.43


     number of scf cycles    =   4
     number of bfgs steps    =   1

     enthalpy old            =    -367.4335385323 Ry
     enthalpy new            =    -367.4303601777 Ry

     CASE: enthalpy_new > enthalpy_old


 %%%%%%%%%%%%%%%%%%%%%%%%%%%%%%%%%%%%%%%%%%%%%%%%%%%%%%%%%%%%%%%%%%%%%%%%%%%%%%
     Error in routine bfgs (1):
     dE0s is positive which should never happen
 %%%%%%%%%%%%%%%%%%%%%%%%%%%%%%%%%%%%%%%%%%%%%%%%%%%%%%%%%%%%%%%%%%%%%%%%%%%%%%

     stopping ...
