
     Program PWSCF v.6.4.1 starts on  4May2022 at  5: 8:44 

     This program is part of the open-source Quantum ESPRESSO suite
     for quantum simulation of materials; please cite
         "P. Giannozzi et al., J. Phys.:Condens. Matter 21 395502 (2009);
         "P. Giannozzi et al., J. Phys.:Condens. Matter 29 465901 (2017);
          URL http://www.quantum-espresso.org", 
     in publications or presentations arising from this work. More details at
     http://www.quantum-espresso.org/quote

     Parallel version (MPI & OpenMP), running on     300 processor cores
     Number of MPI processes:               300
     Threads/MPI process:                     1

     MPI processes distributed on     5 nodes
     R & G space division:  proc/nbgrp/npool/nimage =     300
     Waiting for input...
     Reading input from standard input

     Current dimensions of program PWSCF are:
     Max number of different atomic species (ntypx) = 10
     Max number of k-points (npk) =  40000
     Max angular momentum in pseudopotentials (lmaxx) =  3

     Subspace diagonalization in iterative solution of the eigenvalue problem:
     one sub-group per band group will be used
     scalapack distributed-memory algorithm (size of sub-group: 12* 12 procs)

 
     Parallelization info
     --------------------
     sticks:   dense  smooth     PW     G-vecs:    dense   smooth      PW
     Min           7       7      2                  219      219      33
     Max           8       8      3                  230      230      39
     Sum        2391    2391    683                67821    67821   10363
 


     bravais-lattice index     =            5
     lattice parameter (alat)  =      12.1816  a.u.
     unit-cell volume          =     855.2616 (a.u.)^3
     number of atoms/cell      =           10
     number of atomic types    =            3
     number of electrons       =        64.00
     number of Kohn-Sham states=           32
     kinetic-energy cutoff     =      70.0000  Ry
     charge density cutoff     =     280.0000  Ry
     convergence threshold     =      1.0E-05
     mixing beta               =       0.7000
     number of iterations used =            8  plain     mixing
     Exchange-correlation      = SLA  PW   PBE  PBE ( 1  4  3  4 0 0)
     nstep                     =           50


     celldm(1)=  12.181600  celldm(2)=   0.000000  celldm(3)=   0.000000
     celldm(4)=   0.693800  celldm(5)=   0.000000  celldm(6)=   0.000000

     crystal axes: (cart. coord. in units of alat)
               a(1) = (   0.391280  -0.225906   0.892114 )  
               a(2) = (   0.000000   0.451811   0.892114 )  
               a(3) = (  -0.391280  -0.225906   0.892114 )  

     reciprocal axes: (cart. coord. in units 2 pi/alat)
               b(1) = (  1.277857 -0.737771  0.373644 )  
               b(2) = ( -0.000000  1.475543  0.373644 )  
               b(3) = ( -1.277857 -0.737771  0.373644 )  


     PseudoPot. # 1 for Ca read from file:
     ./Ca_PBE.UPF
     MD5 check sum: 403a4c14b9e4d4dfdc3024c9a3812218
     Pseudo is Ultrasoft + core correction, Zval = 10.0
     Generated by new atomic code, or converted to UPF format
     Using radial grid of  845 points,  6 beta functions with: 
                l(1) =   0
                l(2) =   0
                l(3) =   1
                l(4) =   1
                l(5) =   2
                l(6) =   2
     Q(r) pseudized with  8 coefficients,  rinner =    1.500   1.500   1.500
                                                       1.500   1.500

     PseudoPot. # 2 for C  read from file:
     ./C_PBE.UPF
     MD5 check sum: d1aef80898a10debaa0f26306b886e00
     Pseudo is Ultrasoft + core correction, Zval =  4.0
     Generated by new atomic code, or converted to UPF format
     Using radial grid of  721 points,  4 beta functions with: 
                l(1) =   0
                l(2) =   0
                l(3) =   1
                l(4) =   1
     Q(r) pseudized with  8 coefficients,  rinner =    1.100   1.100   1.100


     PseudoPot. # 3 for O  read from file:
     ./O_PBE.UPF
     MD5 check sum: 734c27235a0248c51dbae37a1fbe46ec
     Pseudo is Ultrasoft + core correction, Zval =  6.0
     Generated by new atomic code, or converted to UPF format
     Using radial grid of  737 points,  5 beta functions with: 
                l(1) =   0
                l(2) =   0
                l(3) =   1
                l(4) =   1
                l(5) =   2
     Q(r) pseudized with  8 coefficients,  rinner =    0.900   0.900   0.900
                                                       0.900   0.900

     atomic species   valence    mass     pseudopotential
        Ca            10.00    40.07800     Ca( 1.00)
        C              4.00    12.01070     C ( 1.00)
        O              6.00    16.00000     O ( 1.00)

     12 Sym. Ops., with inversion, found ( 6 have fractional translation)



   Cartesian axes

     site n.     atom                  positions (alat units)
         1           Ca  tau(   1) = (   0.0000000  -0.0000000   1.3381704  )
         2           Ca  tau(   2) = (   0.0000000   0.0000000   0.0000000  )
         3           C   tau(   3) = (   0.0000000  -0.0000000   0.6690852  )
         4           C   tau(   4) = (  -0.0000000  -0.0000000   2.0072556  )
         5           O   tau(   5) = (   0.1005790   0.2776032   1.5611988  )
         6           O   tau(   6) = (   0.1901219  -0.2259056   1.5611988  )
         7           O   tau(   7) = (  -0.2907009  -0.0516976   1.5611988  )
         8           O   tau(   8) = (  -0.1901219   0.2259056   1.1151420  )
         9           O   tau(   9) = (   0.2907009   0.0516976   1.1151420  )
        10           O   tau(  10) = (  -0.1005790  -0.2776032   1.1151420  )

     number of k points=    13
                       cart. coord. in units 2pi/alat
        k(    1) = (   0.0000000   0.0000000   0.0000000), wk =   0.0312500
        k(    2) = (  -0.3194644  -0.1844428   0.0934111), wk =   0.1875000
        k(    3) = (   0.6389287   0.3688857  -0.1868222), wk =   0.0937500
        k(    4) = (  -0.3194644   0.1844428   0.1868222), wk =   0.1875000
        k(    5) = (   0.6389287   0.7377713  -0.0934111), wk =   0.3750000
        k(    6) = (   0.3194644   0.5533285   0.0000000), wk =   0.1875000
        k(    7) = (   0.6389287  -0.3688857  -0.3736445), wk =   0.0937500
        k(    8) = (   0.0000000   0.0000000   0.2802334), wk =   0.0625000
        k(    9) = (   0.9583931   0.5533285   0.0000000), wk =   0.1875000
        k(   10) = (   0.6389287   0.3688857   0.0934111), wk =   0.1875000
        k(   11) = (   0.9583931  -0.5533285  -0.2802334), wk =   0.1875000
        k(   12) = (   0.6389287  -0.7377713  -0.1868222), wk =   0.1875000
        k(   13) = (   0.0000000   0.0000000  -0.5604667), wk =   0.0312500

     Dense  grid:    67821 G-vectors     FFT dimensions: (  72,  72,  72)

     Estimated max dynamical RAM per process >      17.11 MB

     Estimated total dynamical RAM >       5.01 GB
     Message from routine sym_rho_init:
     some processors have no G-vectors for symmetrization
     Message from routine sym_rho_init:
     some processors have no G-vectors for symmetrization
     Message from routine sym_rho_init:
     some processors have no G-vectors for symmetrization
     Message from routine sym_rho_init:
     some processors have no G-vectors for symmetrization
     Message from routine sym_rho_init:
     some processors have no G-vectors for symmetrization
     Message from routine sym_rho_init:
     some processors have no G-vectors for symmetrization
     Message from routine sym_rho_init:
     some processors have no G-vectors for symmetrization
     Message from routine sym_rho_init:
     some processors have no G-vectors for symmetrization
     Message from routine sym_rho_init:
     some processors have no G-vectors for symmetrization
     Message from routine sym_rho_init:
     some processors have no G-vectors for symmetrization
     Message from routine sym_rho_init:
     some processors have no G-vectors for symmetrization
     Message from routine sym_rho_init:
     some processors have no G-vectors for symmetrization
     Message from routine sym_rho_init:
     some processors have no G-vectors for symmetrization
     Message from routine sym_rho_init:
     some processors have no G-vectors for symmetrization
     Message from routine sym_rho_init:
     some processors have no G-vectors for symmetrization
     Message from routine sym_rho_init:
     some processors have no G-vectors for symmetrization
     Message from routine sym_rho_init:
     some processors have no G-vectors for symmetrization
     Message from routine sym_rho_init:
     some processors have no G-vectors for symmetrization
     Message from routine sym_rho_init:
     some processors have no G-vectors for symmetrization
     Message from routine sym_rho_init:
     some processors have no G-vectors for symmetrization
     Message from routine sym_rho_init:
     some processors have no G-vectors for symmetrization
     Message from routine sym_rho_init:
     some processors have no G-vectors for symmetrization
     Message from routine sym_rho_init:
     some processors have no G-vectors for symmetrization
     Message from routine sym_rho_init:
     some processors have no G-vectors for symmetrization
     Message from routine sym_rho_init:
     some processors have no G-vectors for symmetrization
     Message from routine sym_rho_init:
     some processors have no G-vectors for symmetrization
     Message from routine sym_rho_init:
     some processors have no G-vectors for symmetrization
     Message from routine sym_rho_init:
     some processors have no G-vectors for symmetrization
     Message from routine sym_rho_init:
     some processors have no G-vectors for symmetrization
     Message from routine sym_rho_init:
     some processors have no G-vectors for symmetrization
     Message from routine sym_rho_init:
     some processors have no G-vectors for symmetrization
     Message from routine sym_rho_init:
     some processors have no G-vectors for symmetrization
     Message from routine sym_rho_init:
     some processors have no G-vectors for symmetrization
     Message from routine sym_rho_init:
     some processors have no G-vectors for symmetrization
     Message from routine sym_rho_init:
     some processors have no G-vectors for symmetrization
     Message from routine sym_rho_init:
     some processors have no G-vectors for symmetrization
     Message from routine sym_rho_init:
     some processors have no G-vectors for symmetrization
     Message from routine sym_rho_init:
     some processors have no G-vectors for symmetrization
     Message from routine sym_rho_init:
     some processors have no G-vectors for symmetrization
     Message from routine sym_rho_init:
     some processors have no G-vectors for symmetrization
     Message from routine sym_rho_init:
     some processors have no G-vectors for symmetrization
     Message from routine sym_rho_init:
     some processors have no G-vectors for symmetrization
     Message from routine sym_rho_init:
     some processors have no G-vectors for symmetrization
     Message from routine sym_rho_init:
     some processors have no G-vectors for symmetrization
     Message from routine sym_rho_init:
     some processors have no G-vectors for symmetrization
     Message from routine sym_rho_init:
     some processors have no G-vectors for symmetrization
     Message from routine sym_rho_init:
     some processors have no G-vectors for symmetrization
     Message from routine sym_rho_init:
     some processors have no G-vectors for symmetrization
     Message from routine sym_rho_init:
     some processors have no G-vectors for symmetrization
     Message from routine sym_rho_init:
     some processors have no G-vectors for symmetrization
     Message from routine sym_rho_init:
     some processors have no G-vectors for symmetrization
     Message from routine sym_rho_init:
     some processors have no G-vectors for symmetrization
     Message from routine sym_rho_init:
     some processors have no G-vectors for symmetrization
     Message from routine sym_rho_init:
     some processors have no G-vectors for symmetrization
     Message from routine sym_rho_init:
     some processors have no G-vectors for symmetrization
     Message from routine sym_rho_init:
     some processors have no G-vectors for symmetrization
     Message from routine sym_rho_init:
     some processors have no G-vectors for symmetrization
     Message from routine sym_rho_init:
     some processors have no G-vectors for symmetrization
     Message from routine sym_rho_init:
     some processors have no G-vectors for symmetrization
     Message from routine sym_rho_init:
     some processors have no G-vectors for symmetrization
     Message from routine sym_rho_init:
     some processors have no G-vectors for symmetrization
     Message from routine sym_rho_init:
     some processors have no G-vectors for symmetrization
     Message from routine sym_rho_init:
     some processors have no G-vectors for symmetrization
     Message from routine sym_rho_init:
     some processors have no G-vectors for symmetrization
     Message from routine sym_rho_init:
     some processors have no G-vectors for symmetrization
     Message from routine sym_rho_init:
     some processors have no G-vectors for symmetrization
     Message from routine sym_rho_init:
     some processors have no G-vectors for symmetrization
     Message from routine sym_rho_init:
     some processors have no G-vectors for symmetrization
     Message from routine sym_rho_init:
     some processors have no G-vectors for symmetrization
     Message from routine sym_rho_init:
     some processors have no G-vectors for symmetrization
     Message from routine sym_rho_init:
     some processors have no G-vectors for symmetrization
     Message from routine sym_rho_init:
     some processors have no G-vectors for symmetrization
     Message from routine sym_rho_init:
     some processors have no G-vectors for symmetrization
     Message from routine sym_rho_init:
     some processors have no G-vectors for symmetrization
     Message from routine sym_rho_init:
     some processors have no G-vectors for symmetrization
     Message from routine sym_rho_init:
     some processors have no G-vectors for symmetrization
     Message from routine sym_rho_init:
     some processors have no G-vectors for symmetrization
     Message from routine sym_rho_init:
     some processors have no G-vectors for symmetrization
     Message from routine sym_rho_init:
     some processors have no G-vectors for symmetrization
     Message from routine sym_rho_init:
     some processors have no G-vectors for symmetrization
     Message from routine sym_rho_init:
     some processors have no G-vectors for symmetrization
     Message from routine sym_rho_init:
     some processors have no G-vectors for symmetrization
     Message from routine sym_rho_init:
     some processors have no G-vectors for symmetrization
     Message from routine sym_rho_init:
     some processors have no G-vectors for symmetrization
     Message from routine sym_rho_init:
     some processors have no G-vectors for symmetrization
     Message from routine sym_rho_init:
     some processors have no G-vectors for symmetrization
     Message from routine sym_rho_init:
     some processors have no G-vectors for symmetrization
     Message from routine sym_rho_init:
     some processors have no G-vectors for symmetrization
     Message from routine sym_rho_init:
     some processors have no G-vectors for symmetrization
     Message from routine sym_rho_init:
     some processors have no G-vectors for symmetrization
     Message from routine sym_rho_init:
     some processors have no G-vectors for symmetrization
     Message from routine sym_rho_init:
     some processors have no G-vectors for symmetrization
     Message from routine sym_rho_init:
     some processors have no G-vectors for symmetrization
     Message from routine sym_rho_init:
     some processors have no G-vectors for symmetrization
     Message from routine sym_rho_init:
     some processors have no G-vectors for symmetrization
     Message from routine sym_rho_init:
     some processors have no G-vectors for symmetrization
     Message from routine sym_rho_init:
     some processors have no G-vectors for symmetrization
     Message from routine sym_rho_init:
     some processors have no G-vectors for symmetrization
     Message from routine sym_rho_init:
     some processors have no G-vectors for symmetrization
     Message from routine sym_rho_init:
     some processors have no G-vectors for symmetrization
     Message from routine sym_rho_init:
     some processors have no G-vectors for symmetrization
     Message from routine sym_rho_init:
     some processors have no G-vectors for symmetrization
     Message from routine sym_rho_init:
     some processors have no G-vectors for symmetrization
     Message from routine sym_rho_init:
     some processors have no G-vectors for symmetrization
     Message from routine sym_rho_init:
     some processors have no G-vectors for symmetrization
     Message from routine sym_rho_init:
     some processors have no G-vectors for symmetrization
     Message from routine sym_rho_init:
     some processors have no G-vectors for symmetrization
     Message from routine sym_rho_init:
     some processors have no G-vectors for symmetrization
     Message from routine sym_rho_init:
     some processors have no G-vectors for symmetrization
     Message from routine sym_rho_init:
     some processors have no G-vectors for symmetrization
     Message from routine sym_rho_init:
     some processors have no G-vectors for symmetrization
     Message from routine sym_rho_init:
     some processors have no G-vectors for symmetrization
     Message from routine sym_rho_init:
     some processors have no G-vectors for symmetrization
     Message from routine sym_rho_init:
     some processors have no G-vectors for symmetrization
     Message from routine sym_rho_init:
     some processors have no G-vectors for symmetrization
     Message from routine sym_rho_init:
     some processors have no G-vectors for symmetrization
     Message from routine sym_rho_init:
     some processors have no G-vectors for symmetrization
     Message from routine sym_rho_init:
     some processors have no G-vectors for symmetrization
     Message from routine sym_rho_init:
     some processors have no G-vectors for symmetrization
     Message from routine sym_rho_init:
     some processors have no G-vectors for symmetrization
     Message from routine sym_rho_init:
     some processors have no G-vectors for symmetrization
     Message from routine sym_rho_init:
     some processors have no G-vectors for symmetrization
     Message from routine sym_rho_init:
     some processors have no G-vectors for symmetrization
     Message from routine sym_rho_init:
     some processors have no G-vectors for symmetrization
     Message from routine sym_rho_init:
     some processors have no G-vectors for symmetrization
     Message from routine sym_rho_init:
     some processors have no G-vectors for symmetrization
     Message from routine sym_rho_init:
     some processors have no G-vectors for symmetrization
     Message from routine sym_rho_init:
     some processors have no G-vectors for symmetrization
     Message from routine sym_rho_init:
     some processors have no G-vectors for symmetrization
     Message from routine sym_rho_init:
     some processors have no G-vectors for symmetrization
     Message from routine sym_rho_init:
     some processors have no G-vectors for symmetrization
     Message from routine sym_rho_init:
     some processors have no G-vectors for symmetrization
     Message from routine sym_rho_init:
     some processors have no G-vectors for symmetrization
     Message from routine sym_rho_init:
     some processors have no G-vectors for symmetrization
     Message from routine sym_rho_init:
     some processors have no G-vectors for symmetrization
     Message from routine sym_rho_init:
     some processors have no G-vectors for symmetrization
     Message from routine sym_rho_init:
     some processors have no G-vectors for symmetrization
     Message from routine sym_rho_init:
     some processors have no G-vectors for symmetrization
     Message from routine sym_rho_init:
     some processors have no G-vectors for symmetrization
     Message from routine sym_rho_init:
     some processors have no G-vectors for symmetrization
     Message from routine sym_rho_init:
     some processors have no G-vectors for symmetrization
     Message from routine sym_rho_init:
     some processors have no G-vectors for symmetrization
     Message from routine sym_rho_init:
     some processors have no G-vectors for symmetrization
     Message from routine sym_rho_init:
     some processors have no G-vectors for symmetrization
     Message from routine sym_rho_init:
     some processors have no G-vectors for symmetrization
     Message from routine sym_rho_init:
     some processors have no G-vectors for symmetrization
     Message from routine sym_rho_init:
     some processors have no G-vectors for symmetrization
     Message from routine sym_rho_init:
     some processors have no G-vectors for symmetrization
     Message from routine sym_rho_init:
     some processors have no G-vectors for symmetrization
     Message from routine sym_rho_init:
     some processors have no G-vectors for symmetrization
     Message from routine sym_rho_init:
     some processors have no G-vectors for symmetrization
     Message from routine sym_rho_init:
     some processors have no G-vectors for symmetrization
     Message from routine sym_rho_init:
     some processors have no G-vectors for symmetrization
     Message from routine sym_rho_init:
     some processors have no G-vectors for symmetrization

     Check: negative core charge=   -0.000003

     Initial potential from superposition of free atoms

     starting charge   63.98899, renormalised to   64.00000
     Starting wfcs are   52 randomized atomic wfcs

     total cpu time spent up to now is        6.5 secs

     Self-consistent Calculation

     iteration #  1     ecut=    70.00 Ry     beta= 0.70
     CG style diagonalization
     ethr =  1.00E-02,  avg # of iterations =  2.7

     total cpu time spent up to now is       11.4 secs

     total energy              =    -366.67297471 Ry
     Harris-Foulkes estimate   =    -367.89588624 Ry
     estimated scf accuracy    <       1.75350577 Ry

     iteration #  2     ecut=    70.00 Ry     beta= 0.70
     CG style diagonalization
     ethr =  2.74E-03,  avg # of iterations =  4.4

     total cpu time spent up to now is       19.3 secs

     total energy              =    -367.10618705 Ry
     Harris-Foulkes estimate   =    -367.91576267 Ry
     estimated scf accuracy    <       1.66377171 Ry

     iteration #  3     ecut=    70.00 Ry     beta= 0.70
     CG style diagonalization
     ethr =  2.60E-03,  avg # of iterations =  3.8

     total cpu time spent up to now is       27.0 secs

     total energy              =    -367.42143707 Ry
     Harris-Foulkes estimate   =    -367.42346455 Ry
     estimated scf accuracy    <       0.01097403 Ry

     iteration #  4     ecut=    70.00 Ry     beta= 0.70
     CG style diagonalization
     ethr =  1.71E-05,  avg # of iterations =  4.4

     total cpu time spent up to now is       36.0 secs

     total energy              =    -367.43310837 Ry
     Harris-Foulkes estimate   =    -367.43413337 Ry
     estimated scf accuracy    <       0.00277291 Ry

     iteration #  5     ecut=    70.00 Ry     beta= 0.70
     CG style diagonalization
     ethr =  4.33E-06,  avg # of iterations =  3.6

     total cpu time spent up to now is       43.4 secs

     total energy              =    -367.43348640 Ry
     Harris-Foulkes estimate   =    -367.43352772 Ry
     estimated scf accuracy    <       0.00016407 Ry

     iteration #  6     ecut=    70.00 Ry     beta= 0.70
     CG style diagonalization
     ethr =  2.56E-07,  avg # of iterations =  4.1

     total cpu time spent up to now is       51.8 secs

     total energy              =    -367.43352490 Ry
     Harris-Foulkes estimate   =    -367.43354182 Ry
     estimated scf accuracy    <       0.00002839 Ry

     iteration #  7     ecut=    70.00 Ry     beta= 0.70
     CG style diagonalization
     ethr =  4.44E-08,  avg # of iterations =  4.1

     total cpu time spent up to now is       60.4 secs

     End of self-consistent calculation

          k = 0.0000 0.0000 0.0000 (  8435 PWs)   bands (ev):

   -33.7051 -33.6926 -17.0937 -17.0819 -15.1348 -15.1348 -14.7710 -14.7710
   -14.6767 -14.5680 -13.9120 -13.9120 -13.3832 -13.3832  -3.3192  -3.0459
    -1.6991  -1.5396  -1.5396  -1.2802  -1.2802  -0.4153   2.3490   2.3490
     2.7873   2.7873   2.9555   2.9555   3.5650   3.5650   3.7683   4.1947

          k =-0.3195-0.1844 0.0934 (  8456 PWs)   bands (ev):

   -33.7030 -33.6942 -17.1108 -17.0453 -15.1318 -15.0140 -14.9626 -14.7903
   -14.6940 -14.6807 -13.8002 -13.6213 -13.5728 -13.4300  -3.1159  -3.0499
    -1.5537  -1.4509  -1.3517  -1.3217  -1.2694  -0.6249   2.4137   2.4639
     2.5865   2.6258   2.7361   2.7843   3.2977   3.3312   4.1351   4.2174

          k = 0.6389 0.3689-0.1868 (  8460 PWs)   bands (ev):

   -33.6984 -33.6984 -17.0689 -17.0689 -15.0238 -15.0238 -15.0099 -15.0099
   -14.6581 -14.6581 -13.5987 -13.5987 -13.5827 -13.5827  -2.9647  -2.9647
    -1.5055  -1.5055  -1.2332  -1.2332  -0.9273  -0.9273   2.1523   2.1523
     2.5394   2.5394   2.8331   2.8331   3.0927   3.0927   4.3093   4.3093

          k =-0.3195 0.1844 0.1868 (  8460 PWs)   bands (ev):

   -33.7028 -33.6945 -17.1270 -17.0305 -15.1099 -15.0858 -14.8206 -14.8143
   -14.7509 -14.6968 -13.7451 -13.7080 -13.4988 -13.4660  -3.0963  -3.0807
    -1.4946  -1.4529  -1.4357  -1.2576  -1.2406  -0.6695   2.3606   2.4210
     2.5802   2.6518   2.7271   2.9137   3.1618   3.4060   4.1602   4.1794

          k = 0.6389 0.7378-0.0934 (  8463 PWs)   bands (ev):

   -33.6999 -33.6969 -17.1066 -17.0342 -15.1658 -15.0166 -14.9606 -14.8358
   -14.6967 -14.6630 -13.8162 -13.6075 -13.5619 -13.4192  -3.0015  -2.9267
    -1.4952  -1.4584  -1.3445  -1.2154  -0.9794  -0.8198   2.1087   2.2579
     2.4785   2.5305   2.6833   2.7739   3.1028   3.2456   4.2795   4.3741

          k = 0.3195 0.5533 0.0000 (  8447 PWs)   bands (ev):

   -33.7005 -33.6963 -17.1190 -17.0164 -15.1784 -15.0284 -15.0142 -14.7577
   -14.7231 -14.6292 -13.8348 -13.6284 -13.5444 -13.4099  -3.0152  -2.9080
    -1.5665  -1.3644  -1.3075  -1.2255  -1.0910  -0.7856   2.1098   2.3528
     2.4191   2.4994   2.6543   2.8164   3.1603   3.2174   4.2633   4.3949

          k = 0.6389-0.3689-0.3736 (  8508 PWs)   bands (ev):

   -33.7004 -33.6963 -17.1698 -16.9600 -15.2215 -15.2195 -14.7538 -14.7267
   -14.7036 -14.5785 -13.9519 -13.8435 -13.3976 -13.3570  -3.1344  -2.7885
    -1.5982  -1.3835  -1.2591  -1.1927  -0.9737  -0.8741   1.9107   2.2304
     2.5035   2.6846   2.7266   2.7400   3.1249   3.2460   4.1239   4.4841

          k = 0.0000 0.0000 0.2802 (  8465 PWs)   bands (ev):

   -33.7033 -33.6945 -17.0932 -17.0849 -15.0962 -15.0962 -14.8478 -14.8478
   -14.6590 -14.5821 -13.8113 -13.8113 -13.4463 -13.4463  -3.3034  -3.1208
    -1.5015  -1.5015  -1.4857  -1.3184  -1.3184  -0.5864   2.4138   2.4138
     2.7167   2.7167   3.0421   3.0421   3.4631   3.4631   3.8228   4.1179

          k = 0.9584 0.5533 0.0000 (  8453 PWs)   bands (ev):

   -33.7007 -33.6965 -17.0827 -17.0787 -15.1300 -15.0357 -14.9573 -14.7587
   -14.7353 -14.6367 -13.7935 -13.6161 -13.5937 -13.4350  -3.1547  -3.0487
    -1.4667  -1.4472  -1.3635  -1.3152  -1.1376  -0.7776   2.3572   2.4786
     2.5900   2.6179   2.7310   3.0022   3.1226   3.2535   4.1153   4.2073

          k = 0.6389 0.3689 0.0934 (  8453 PWs)   bands (ev):

   -33.6998 -33.6969 -17.1409 -16.9929 -15.1674 -15.1637 -14.8395 -14.8165
   -14.7132 -14.6022 -13.8250 -13.7532 -13.4474 -13.4220  -3.0852  -2.8410
    -1.5944  -1.3476  -1.3065  -1.2026  -0.9912  -0.8644   1.9840   2.2666
     2.4299   2.6841   2.7007   2.8985   3.0497   3.1852   4.1855   4.4293

          k = 0.9584-0.5533-0.2802 (  8463 PWs)   bands (ev):

   -33.7001 -33.6972 -17.1168 -17.0460 -15.1536 -14.9902 -14.9377 -14.8052
   -14.7184 -14.6504 -13.7822 -13.6501 -13.5479 -13.4549  -3.1500  -3.0639
    -1.4977  -1.3994  -1.3500  -1.3025  -1.0632  -0.8742   2.3325   2.4042
     2.5963   2.6437   2.8396   2.9615   3.0668   3.2898   4.1276   4.1842

          k = 0.6389-0.7378-0.1868 (  8466 PWs)   bands (ev):

   -33.6984 -33.6984 -17.0731 -17.0731 -15.0967 -15.0967 -14.8524 -14.8524
   -14.7255 -14.7255 -13.7224 -13.7224 -13.4720 -13.4720  -2.9665  -2.9665
    -1.4783  -1.4783  -1.2879  -1.2879  -0.8764  -0.8764   2.1480   2.1480
     2.5640   2.5640   2.6855   2.6855   3.1674   3.1674   4.3257   4.3257

          k = 0.0000 0.0000-0.5605 (  8482 PWs)   bands (ev):

   -33.6989 -33.6989 -17.0903 -17.0903 -14.9886 -14.9886 -14.9886 -14.9886
   -14.6187 -14.6187 -13.6125 -13.6125 -13.6125 -13.6125  -3.2384  -3.2384
    -1.4100  -1.4100  -1.4100  -1.4100  -1.0184  -1.0184   2.5665   2.5665
     2.5665   2.5665   3.2408   3.2408   3.2408   3.2408   3.9600   3.9600

     highest occupied level (ev):     4.4841

!    total energy              =    -367.43353499 Ry
     Harris-Foulkes estimate   =    -367.43353850 Ry
     estimated scf accuracy    <       0.00000553 Ry

     The total energy is the sum of the following terms:

     one-electron contribution =    -148.34982148 Ry
     hartree contribution      =     103.52450243 Ry
     xc contribution           =     -75.26510850 Ry
     ewald contribution        =    -247.34310744 Ry

     convergence has been achieved in   7 iterations

     Forces acting on atoms (cartesian axes, Ry/au):

     atom    1 type  1   force =    -0.00000000   -0.00000000   -0.00000000
     atom    2 type  1   force =     0.00000000    0.00000000    0.00000000
     atom    3 type  2   force =     0.00000000    0.00000000   -0.00000000
     atom    4 type  2   force =    -0.00000000   -0.00000000    0.00000000
     atom    5 type  3   force =     0.00037795   -0.00065463   -0.00000000
     atom    6 type  3   force =    -0.00075590    0.00000000    0.00000000
     atom    7 type  3   force =     0.00037795    0.00065463    0.00000000
     atom    8 type  3   force =     0.00075590   -0.00000000   -0.00000000
     atom    9 type  3   force =    -0.00037795   -0.00065463   -0.00000000
     atom   10 type  3   force =    -0.00037795    0.00065463    0.00000000

     Total force =     0.001852     Total SCF correction =     0.000298
     SCF correction compared to forces is large: reduce conv_thr to get better values


     Computing stress (Cartesian axis) and pressure

          total   stress  (Ry/bohr**3)                   (kbar)     P=   -2.92
  -0.00001555   0.00000000   0.00000000         -2.29      0.00      0.00
  -0.00000000  -0.00001555  -0.00000000         -0.00     -2.29     -0.00
   0.00000000  -0.00000000  -0.00002851          0.00     -0.00     -4.19


     BFGS Geometry Optimization

     number of scf cycles    =   1
     number of bfgs steps    =   0

     enthalpy new            =    -367.4335349898 Ry

     new trust radius        =       0.0041694662 bohr
     new conv_thr            =       0.0000100000 Ry

     new unit-cell volume =    853.98748 a.u.^3 (   126.54789 Ang^3 )
     density =      2.62669 g/cm^3

CELL_PARAMETERS (alat= 12.18160000)
   0.391127820  -0.225817752   0.891477648
   0.000000000   0.451635505   0.891477648
  -0.391127820  -0.225817752   0.891477648

ATOMIC_POSITIONS (crystal)
Ca       0.500000000   0.500000000   0.500000000
Ca      -0.000000000   0.000000000  -0.000000000
C        0.250000000   0.250000000   0.250000000
C        0.750000000   0.750000000   0.750000000
O        0.507130654   0.992869346   0.250000000
O        0.992869346   0.250000000   0.507130654
O        0.250000000   0.507130654   0.992869346
O        0.007130654   0.750000000   0.492869346
O        0.750000000   0.492869346   0.007130654
O        0.492869346   0.007130654   0.750000000



     Writing output data file CCO_k.save/
     NEW-OLD atomic charge density approx. for the potential

     Check: negative core charge=   -0.000003
     extrapolated charge   63.90453, renormalised to   64.00000

     total cpu time spent up to now is       61.6 secs

     Self-consistent Calculation

     iteration #  1     ecut=    70.00 Ry     beta= 0.70
     CG style diagonalization
     ethr =  1.00E-06,  avg # of iterations =  2.6

     total cpu time spent up to now is       66.5 secs

     total energy              =    -367.43299812 Ry
     Harris-Foulkes estimate   =    -367.60443089 Ry
     estimated scf accuracy    <       0.00039552 Ry

     iteration #  2     ecut=    70.00 Ry     beta= 0.70
     CG style diagonalization
     ethr =  6.18E-07,  avg # of iterations =  4.9

     total cpu time spent up to now is       76.6 secs

     total energy              =    -367.43348771 Ry
     Harris-Foulkes estimate   =    -367.43390592 Ry
     estimated scf accuracy    <       0.00113957 Ry

     iteration #  3     ecut=    70.00 Ry     beta= 0.70
     CG style diagonalization
     ethr =  6.18E-07,  avg # of iterations =  3.8

     total cpu time spent up to now is       84.4 secs

     total energy              =    -367.43354068 Ry
     Harris-Foulkes estimate   =    -367.43357326 Ry
     estimated scf accuracy    <       0.00012983 Ry

     iteration #  4     ecut=    70.00 Ry     beta= 0.70
     CG style diagonalization
     ethr =  2.03E-07,  avg # of iterations =  3.0

     total cpu time spent up to now is       90.8 secs

     total energy              =    -367.43352813 Ry
     Harris-Foulkes estimate   =    -367.43354477 Ry
     estimated scf accuracy    <       0.00005869 Ry

     iteration #  5     ecut=    70.00 Ry     beta= 0.70
     CG style diagonalization
     ethr =  9.17E-08,  avg # of iterations =  3.1

     total cpu time spent up to now is       97.3 secs

     total energy              =    -367.43352604 Ry
     Harris-Foulkes estimate   =    -367.43353139 Ry
     estimated scf accuracy    <       0.00001560 Ry

     iteration #  6     ecut=    70.00 Ry     beta= 0.70
     CG style diagonalization
     ethr =  2.44E-08,  avg # of iterations =  3.5

     total cpu time spent up to now is      104.3 secs

     End of self-consistent calculation

          k = 0.0000 0.0000 0.0000 (  8435 PWs)   bands (ev):

   -33.6834 -33.6709 -17.0834 -17.0719 -15.1183 -15.1183 -14.7502 -14.7502
   -14.6558 -14.5470 -13.9011 -13.9011 -13.3670 -13.3670  -3.3092  -3.0348
    -1.6902  -1.5306  -1.5306  -1.2696  -1.2696  -0.4026   2.3595   2.3595
     2.7988   2.7988   2.9685   2.9685   3.5788   3.5788   3.7794   4.2071

          k =-0.3196-0.1845 0.0935 (  8456 PWs)   bands (ev):

   -33.6813 -33.6725 -17.1009 -17.0349 -15.1155 -14.9966 -14.9451 -14.7710
   -14.6729 -14.6599 -13.7876 -13.6066 -13.5578 -13.4139  -3.1054  -3.0395
    -1.5443  -1.4414  -1.3419  -1.3115  -1.2590  -0.6130   2.4249   2.4754
     2.5986   2.6374   2.7482   2.7962   3.3107   3.3445   4.1472   4.2295

          k = 0.6392 0.3690-0.1870 (  8460 PWs)   bands (ev):

   -33.6767 -33.6767 -17.0587 -17.0587 -15.0065 -15.0065 -14.9930 -14.9930
   -14.6369 -14.6369 -13.5837 -13.5837 -13.5678 -13.5678  -2.9543  -2.9543
    -1.4960  -1.4960  -1.2229  -1.2229  -0.9161  -0.9161   2.1638   2.1638
     2.5512   2.5512   2.8451   2.8451   3.1051   3.1051   4.3213   4.3213

          k =-0.3196 0.1845 0.1870 (  8460 PWs)   bands (ev):

   -33.6811 -33.6727 -17.1171 -17.0201 -15.0934 -15.0692 -14.8018 -14.7955
   -14.7302 -14.6760 -13.7315 -13.6944 -13.4830 -13.4502  -3.0861  -3.0700
    -1.4850  -1.4434  -1.4261  -1.2473  -1.2300  -0.6577   2.3718   2.4321
     2.5918   2.6639   2.7393   2.9258   3.1744   3.4196   4.1723   4.1914

          k = 0.6392 0.7381-0.0935 (  8463 PWs)   bands (ev):

   -33.6781 -33.6752 -17.0966 -17.0239 -15.1499 -14.9997 -14.9431 -14.8165
   -14.6757 -14.6417 -13.8035 -13.5926 -13.5466 -13.4029  -2.9914  -2.9160
    -1.4857  -1.4488  -1.3345  -1.2048  -0.9683  -0.8083   2.1198   2.2693
     2.4903   2.5423   2.6951   2.7857   3.1154   3.2586   4.2914   4.3864

          k = 0.3196 0.5535 0.0000 (  8447 PWs)   bands (ev):

   -33.6788 -33.6746 -17.1090 -17.0060 -15.1627 -15.0112 -14.9970 -14.7381
   -14.7022 -14.6078 -13.8223 -13.6136 -13.5293 -13.3935  -3.0051  -2.8972
    -1.5572  -1.3544  -1.2973  -1.2150  -1.0803  -0.7741   2.1211   2.3645
     2.4309   2.5111   2.6658   2.8284   3.1732   3.2303   4.2752   4.4073

          k = 0.6392-0.3690-0.3739 (  8508 PWs)   bands (ev):

   -33.6787 -33.6746 -17.1600 -16.9495 -15.2060 -15.2040 -14.7328 -14.7057
   -14.6827 -14.5571 -13.9411 -13.8322 -13.3810 -13.3403  -3.1249  -2.7770
    -1.5891  -1.3737  -1.2486  -1.1818  -0.9626  -0.8630   1.9213   2.2413
     2.5156   2.6957   2.7389   2.7525   3.1377   3.2591   4.1351   4.4967

          k = 0.0000 0.0000 0.2804 (  8465 PWs)   bands (ev):

   -33.6816 -33.6727 -17.0829 -17.0749 -15.0794 -15.0794 -14.8284 -14.8284
   -14.6380 -14.5611 -13.7989 -13.7989 -13.4305 -13.4305  -3.2934  -3.1101
    -1.4923  -1.4923  -1.4761  -1.3081  -1.3081  -0.5741   2.4246   2.4246
     2.7285   2.7285   3.0548   3.0548   3.4766   3.4766   3.8340   4.1300

          k = 0.9588 0.5535 0.0000 (  8453 PWs)   bands (ev):

   -33.6790 -33.6748 -17.0725 -17.0687 -15.1137 -15.0187 -14.9394 -14.7391
   -14.7144 -14.6157 -13.7811 -13.6016 -13.5787 -13.4188  -3.1446  -3.0381
    -1.4570  -1.4376  -1.3534  -1.3050  -1.1270  -0.7659   2.3683   2.4903
     2.6020   2.6296   2.7424   3.0147   3.1352   3.2664   4.1272   4.2193

          k = 0.6392 0.3690 0.0935 (  8453 PWs)   bands (ev):

   -33.6781 -33.6752 -17.1310 -16.9825 -15.1514 -15.1478 -14.8200 -14.7975
   -14.6922 -14.5809 -13.8122 -13.7404 -13.4312 -13.4057  -3.0754  -2.8298
    -1.5852  -1.3377  -1.2962  -1.1921  -0.9802  -0.8531   1.9949   2.2780
     2.4414   2.6965   2.7128   2.9105   3.0623   3.1980   4.1971   4.4417

          k = 0.9588-0.5535-0.2804 (  8463 PWs)   bands (ev):

   -33.6784 -33.6754 -17.1068 -17.0357 -15.1375 -14.9730 -14.9199 -14.7853
   -14.6976 -14.6295 -13.7698 -13.6355 -13.5327 -13.4388  -3.1400  -3.0534
    -1.4883  -1.3895  -1.3399  -1.2923  -1.0524  -0.8629   2.3437   2.4154
     2.6083   2.6556   2.8516   2.9736   3.0792   3.3031   4.1394   4.1962

          k = 0.6392-0.7381-0.1870 (  8466 PWs)   bands (ev):

   -33.6767 -33.6767 -17.0630 -17.0630 -15.0804 -15.0804 -14.8340 -14.8340
   -14.7045 -14.7045 -13.7086 -13.7086 -13.4560 -13.4560  -2.9562  -2.9562
    -1.4688  -1.4688  -1.2776  -1.2776  -0.8650  -0.8650   2.1591   2.1591
     2.5761   2.5761   2.6972   2.6972   3.1801   3.1801   4.3378   4.3378

          k = 0.0000 0.0000-0.5609 (  8482 PWs)   bands (ev):

   -33.6771 -33.6771 -17.0802 -17.0802 -14.9708 -14.9708 -14.9708 -14.9708
   -14.5977 -14.5977 -13.5980 -13.5980 -13.5980 -13.5980  -3.2282  -3.2282
    -1.4002  -1.4002  -1.4002  -1.4002  -1.0073  -1.0073   2.5779   2.5779
     2.5779   2.5779   3.2537   3.2537   3.2537   3.2537   3.9716   3.9716

     highest occupied level (ev):     4.4967

!    total energy              =    -367.43352660 Ry
     Harris-Foulkes estimate   =    -367.43352779 Ry
     estimated scf accuracy    <       0.00000151 Ry

     The total energy is the sum of the following terms:

     one-electron contribution =    -148.08197121 Ry
     hartree contribution      =     103.43360863 Ry
     xc contribution           =     -75.27175367 Ry
     ewald contribution        =    -247.51341034 Ry

     convergence has been achieved in   6 iterations

     Forces acting on atoms (cartesian axes, Ry/au):

     atom    1 type  1   force =    -0.00000000    0.00000000   -0.00000000
     atom    2 type  1   force =    -0.00000000    0.00000000   -0.00000000
     atom    3 type  2   force =     0.00000000   -0.00000000   -0.00000000
     atom    4 type  2   force =     0.00000000    0.00000000    0.00000000
     atom    5 type  3   force =     0.00015187   -0.00026305   -0.00000000
     atom    6 type  3   force =    -0.00030375   -0.00000000   -0.00000000
     atom    7 type  3   force =     0.00015187    0.00026305    0.00000000
     atom    8 type  3   force =     0.00030375    0.00000000    0.00000000
     atom    9 type  3   force =    -0.00015187   -0.00026305   -0.00000000
     atom   10 type  3   force =    -0.00015187    0.00026305    0.00000000

     Total force =     0.000744     Total SCF correction =     0.001069
     SCF correction compared to forces is large: reduce conv_thr to get better values


     Computing stress (Cartesian axis) and pressure

          total   stress  (Ry/bohr**3)                   (kbar)     P=    0.02
   0.00000297   0.00000000   0.00000000          0.44      0.00      0.00
  -0.00000000   0.00000297   0.00000000         -0.00      0.44      0.00
   0.00000000   0.00000000  -0.00000554          0.00      0.00     -0.82


     number of scf cycles    =   2
     number of bfgs steps    =   1

     enthalpy old            =    -367.4335349898 Ry
     enthalpy new            =    -367.4335265952 Ry

     CASE: enthalpy_new > enthalpy_old

     new trust radius        =       0.0016421931 bohr
     new conv_thr            =       0.0000100000 Ry

     new unit-cell volume =    854.75961 a.u.^3 (   126.66231 Ang^3 )
     density =      2.62432 g/cm^3

CELL_PARAMETERS (alat= 12.18160000)
   0.391220031  -0.225870990   0.891863112
   0.000000000   0.451741980   0.891863112
  -0.391220031  -0.225870990   0.891863112

ATOMIC_POSITIONS (crystal)
Ca       0.500000000   0.500000000   0.500000000
Ca      -0.000000000   0.000000000  -0.000000000
C        0.250000000   0.250000000   0.250000000
C        0.750000000   0.750000000   0.750000000
O        0.507082592   0.992917408   0.250000000
O        0.992917408   0.250000000   0.507082592
O        0.250000000   0.507082592   0.992917408
O        0.007082592   0.750000000   0.492917408
O        0.750000000   0.492917408   0.007082592
O        0.492917408   0.007082592   0.750000000



     Writing output data file CCO_k.save/
     NEW-OLD atomic charge density approx. for the potential

     Check: negative core charge=   -0.000003
     extrapolated charge   64.05780, renormalised to   64.00000

     total cpu time spent up to now is      105.1 secs

     Self-consistent Calculation

     iteration #  1     ecut=    70.00 Ry     beta= 0.70
     CG style diagonalization
     ethr =  1.00E-06,  avg # of iterations =  2.2

     total cpu time spent up to now is      109.1 secs

     total energy              =    -367.43340613 Ry
     Harris-Foulkes estimate   =    -367.32997268 Ry
     estimated scf accuracy    <       0.00006774 Ry

     iteration #  2     ecut=    70.00 Ry     beta= 0.70
     CG style diagonalization
     ethr =  1.06E-07,  avg # of iterations =  5.2

     total cpu time spent up to now is      119.0 secs

     total energy              =    -367.43353687 Ry
     Harris-Foulkes estimate   =    -367.43362547 Ry
     estimated scf accuracy    <       0.00026576 Ry

     iteration #  3     ecut=    70.00 Ry     beta= 0.70
     CG style diagonalization
     ethr =  1.06E-07,  avg # of iterations =  3.8

     total cpu time spent up to now is      126.7 secs

     total energy              =    -367.43354043 Ry
     Harris-Foulkes estimate   =    -367.43355190 Ry
     estimated scf accuracy    <       0.00004791 Ry

     iteration #  4     ecut=    70.00 Ry     beta= 0.70
     CG style diagonalization
     ethr =  7.49E-08,  avg # of iterations =  3.0

     total cpu time spent up to now is      133.5 secs

     total energy              =    -367.43353402 Ry
     Harris-Foulkes estimate   =    -367.43354149 Ry
     estimated scf accuracy    <       0.00002199 Ry

     iteration #  5     ecut=    70.00 Ry     beta= 0.70
     CG style diagonalization
     ethr =  3.44E-08,  avg # of iterations =  3.3

     total cpu time spent up to now is      140.6 secs

     End of self-consistent calculation

          k = 0.0000 0.0000 0.0000 (  8435 PWs)   bands (ev):

   -33.7035 -33.6910 -17.0965 -17.0850 -15.1344 -15.1344 -14.7689 -14.7689
   -14.6745 -14.5659 -13.9148 -13.9148 -13.3840 -13.3840  -3.3216  -3.0480
    -1.7004  -1.5425  -1.5425  -1.2828  -1.2828  -0.4162   2.3474   2.3474
     2.7862   2.7862   2.9540   2.9540   3.5645   3.5645   3.7669   4.1935

          k =-0.3195-0.1845 0.0934 (  8456 PWs)   bands (ev):

   -33.7014 -33.6926 -17.1138 -17.0482 -15.1315 -15.0132 -14.9618 -14.7888
   -14.6918 -14.6787 -13.8023 -13.6226 -13.5740 -13.4308  -3.1183  -3.0524
    -1.5555  -1.4538  -1.3542  -1.3242  -1.2721  -0.6260   2.4120   2.4623
     2.5852   2.6247   2.7349   2.7835   3.2971   3.3307   4.1337   4.2160

          k = 0.6390 0.3689-0.1869 (  8460 PWs)   bands (ev):

   -33.6968 -33.6968 -17.0719 -17.0719 -15.0231 -15.0231 -15.0094 -15.0094
   -14.6559 -14.6559 -13.5999 -13.5999 -13.5839 -13.5839  -2.9672  -2.9672
    -1.5080  -1.5080  -1.2361  -1.2361  -0.9287  -0.9287   2.1513   2.1513
     2.5380   2.5380   2.8323   2.8323   3.0920   3.0920   4.3077   4.3077

          k =-0.3195 0.1845 0.1869 (  8460 PWs)   bands (ev):

   -33.7011 -33.6928 -17.1300 -17.0334 -15.1095 -15.0854 -14.8193 -14.8131
   -14.7488 -14.6947 -13.7468 -13.7098 -13.4997 -13.4669  -3.0988  -3.0830
    -1.4971  -1.4548  -1.4386  -1.2600  -1.2433  -0.6706   2.3590   2.4194
     2.5793   2.6504   2.7260   2.9129   3.1611   3.4056   4.1588   4.1780

          k = 0.6390 0.7379-0.0934 (  8463 PWs)   bands (ev):

   -33.6982 -33.6953 -17.1096 -17.0372 -15.1656 -15.0161 -14.9598 -14.8343
   -14.6945 -14.6608 -13.8183 -13.6087 -13.5630 -13.4200  -3.0041  -2.9291
    -1.4979  -1.4611  -1.3469  -1.2181  -0.9811  -0.8211   2.1074   2.2565
     2.4774   2.5292   2.6824   2.7732   3.1021   3.2450   4.2779   4.3725

          k = 0.3195 0.5534 0.0000 (  8447 PWs)   bands (ev):

   -33.6988 -33.6947 -17.1220 -17.0194 -15.1782 -15.0277 -15.0135 -14.7562
   -14.7210 -14.6270 -13.8369 -13.6296 -13.5456 -13.4106  -3.0178  -2.9104
    -1.5690  -1.3669  -1.3103  -1.2283  -1.0925  -0.7869   2.1087   2.3514
     2.4179   2.4980   2.6534   2.8157   3.1597   3.2169   4.2617   4.3934

          k = 0.6390-0.3689-0.3737 (  8508 PWs)   bands (ev):

   -33.6988 -33.6947 -17.1729 -16.9630 -15.2215 -15.2194 -14.7516 -14.7245
   -14.7015 -14.5764 -13.9547 -13.8462 -13.3982 -13.3576  -3.1371  -2.7907
    -1.6011  -1.3863  -1.2611  -1.1953  -0.9755  -0.8754   1.9093   2.2290
     2.5026   2.6837   2.7258   2.7387   3.1243   3.2455   4.1222   4.4826

          k = 0.0000 0.0000 0.2803 (  8465 PWs)   bands (ev):

   -33.7016 -33.6928 -17.0961 -17.0880 -15.0956 -15.0956 -14.8462 -14.8462
   -14.6568 -14.5801 -13.8135 -13.8135 -13.4472 -13.4472  -3.3058  -3.1230
    -1.5044  -1.5044  -1.4869  -1.3211  -1.3211  -0.5874   2.4122   2.4122
     2.7154   2.7154   3.0409   3.0409   3.4625   3.4625   3.8214   4.1167

          k = 0.9585 0.5534 0.0000 (  8453 PWs)   bands (ev):

   -33.6991 -33.6949 -17.0856 -17.0818 -15.1297 -15.0351 -14.9564 -14.7571
   -14.7331 -14.6346 -13.7957 -13.6175 -13.5949 -13.4357  -3.1571  -3.0510
    -1.4695  -1.4495  -1.3662  -1.3179  -1.1393  -0.7787   2.3556   2.4772
     2.5886   2.6165   2.7302   3.0014   3.1219   3.2529   4.1138   4.2059

          k = 0.6390 0.3689 0.0934 (  8453 PWs)   bands (ev):

   -33.6982 -33.6953 -17.1439 -16.9959 -15.1671 -15.1635 -14.8379 -14.8151
   -14.7110 -14.6001 -13.8270 -13.7553 -13.4482 -13.4227  -3.0879  -2.8433
    -1.5971  -1.3502  -1.3092  -1.2051  -0.9927  -0.8658   1.9827   2.2655
     2.4286   2.6828   2.6999   2.8978   3.0490   3.1847   4.1839   4.4278

          k = 0.9585-0.5534-0.2803 (  8463 PWs)   bands (ev):

   -33.6984 -33.6955 -17.1198 -17.0489 -15.1533 -14.9896 -14.9368 -14.8035
   -14.7163 -14.6483 -13.7845 -13.6515 -13.5490 -13.4557  -3.1525  -3.0663
    -1.5006  -1.4022  -1.3525  -1.3051  -1.0647  -0.8754   2.3309   2.4027
     2.5952   2.6423   2.8389   2.9605   3.0661   3.2892   4.1261   4.1828

          k = 0.6390-0.7379-0.1869 (  8466 PWs)   bands (ev):

   -33.6967 -33.6967 -17.0761 -17.0761 -15.0964 -15.0964 -14.8513 -14.8513
   -14.7233 -14.7233 -13.7240 -13.7240 -13.4728 -13.4728  -2.9691  -2.9691
    -1.4811  -1.4811  -1.2903  -1.2903  -0.8779  -0.8779   2.1466   2.1466
     2.5629   2.5629   2.6847   2.6847   3.1668   3.1668   4.3241   4.3241

          k = 0.0000 0.0000-0.5606 (  8482 PWs)   bands (ev):

   -33.6972 -33.6972 -17.0933 -17.0933 -14.9877 -14.9877 -14.9877 -14.9877
   -14.6166 -14.6166 -13.6139 -13.6139 -13.6139 -13.6139  -3.2407  -3.2407
    -1.4128  -1.4128  -1.4128  -1.4128  -1.0195  -1.0195   2.5650   2.5650
     2.5650   2.5650   3.2400   3.2400   3.2400   3.2400   3.9587   3.9587

     highest occupied level (ev):     4.4826

!    total energy              =    -367.43353302 Ry
     Harris-Foulkes estimate   =    -367.43353563 Ry
     estimated scf accuracy    <       0.00000330 Ry

     The total energy is the sum of the following terms:

     one-electron contribution =    -148.26954645 Ry
     hartree contribution      =     103.52171449 Ry
     xc contribution           =     -75.27552969 Ry
     ewald contribution        =    -247.41017138 Ry

     convergence has been achieved in   5 iterations

     Forces acting on atoms (cartesian axes, Ry/au):

     atom    1 type  1   force =    -0.00000000   -0.00000000    0.00000000
     atom    2 type  1   force =    -0.00000000   -0.00000000   -0.00000000
     atom    3 type  2   force =    -0.00000000    0.00000000   -0.00000000
     atom    4 type  2   force =    -0.00000000   -0.00000000   -0.00000000
     atom    5 type  3   force =     0.00038671   -0.00066980   -0.00000000
     atom    6 type  3   force =    -0.00077342   -0.00000000    0.00000000
     atom    7 type  3   force =     0.00038671    0.00066980    0.00000000
     atom    8 type  3   force =     0.00077342   -0.00000000    0.00000000
     atom    9 type  3   force =    -0.00038671   -0.00066980   -0.00000000
     atom   10 type  3   force =    -0.00038671    0.00066980    0.00000000

     Total force =     0.001894     Total SCF correction =     0.002333
     SCF correction compared to forces is large: reduce conv_thr to get better values


     Computing stress (Cartesian axis) and pressure

          total   stress  (Ry/bohr**3)                   (kbar)     P=    4.53
   0.00003136  -0.00000000  -0.00000000          4.61     -0.00     -0.00
   0.00000000   0.00003136   0.00000000          0.00      4.61      0.00
  -0.00000000   0.00000000   0.00002976         -0.00      0.00      4.38


     number of scf cycles    =   3
     number of bfgs steps    =   1

     enthalpy old            =    -367.4335349898 Ry
     enthalpy new            =    -367.4335330232 Ry

     CASE: enthalpy_new > enthalpy_old

     new trust radius        =       0.0007076978 bohr
     new conv_thr            =       0.0000100000 Ry

     new unit-cell volume =    855.04525 a.u.^3 (   126.70463 Ang^3 )
     density =      2.62344 g/cm^3

CELL_PARAMETERS (alat= 12.18160000)
   0.391254129  -0.225890677   0.892005652
   0.000000000   0.451781353   0.892005652
  -0.391254129  -0.225890677   0.892005652

ATOMIC_POSITIONS (crystal)
Ca       0.500000000   0.500000000   0.500000000
Ca      -0.000000000   0.000000000  -0.000000000
C        0.250000000   0.250000000   0.250000000
C        0.750000000   0.750000000   0.750000000
O        0.507064819   0.992935181   0.250000000
O        0.992935181   0.250000000   0.507064819
O        0.250000000   0.507064819   0.992935181
O        0.007064819   0.750000000   0.492935181
O        0.750000000   0.492935181   0.007064819
O        0.492935181   0.007064819   0.750000000



     Writing output data file CCO_k.save/
     NEW-OLD atomic charge density approx. for the potential

     Check: negative core charge=   -0.000003
     extrapolated charge   64.02138, renormalised to   64.00000

     total cpu time spent up to now is      141.4 secs

     Self-consistent Calculation

     iteration #  1     ecut=    70.00 Ry     beta= 0.70
     CG style diagonalization
     ethr =  1.00E-06,  avg # of iterations =  2.0

     Threshold (ethr) on eigenvalues was too large:
     Diagonalizing with lowered threshold

     CG style diagonalization
     ethr =  5.41E-08,  avg # of iterations =  2.5

     total cpu time spent up to now is      149.6 secs

     total energy              =    -367.43349883 Ry
     Harris-Foulkes estimate   =    -367.39522612 Ry
     estimated scf accuracy    <       0.00003849 Ry

     iteration #  2     ecut=    70.00 Ry     beta= 0.70
     CG style diagonalization
     ethr =  6.01E-08,  avg # of iterations =  4.8

     total cpu time spent up to now is      159.3 secs

     total energy              =    -367.43353053 Ry
     Harris-Foulkes estimate   =    -367.43356236 Ry
     estimated scf accuracy    <       0.00007895 Ry

     iteration #  3     ecut=    70.00 Ry     beta= 0.70
     CG style diagonalization
     ethr =  6.01E-08,  avg # of iterations =  3.8

     total cpu time spent up to now is      167.1 secs

     End of self-consistent calculation

          k = 0.0000 0.0000 0.0000 (  8435 PWs)   bands (ev):

   -33.7081 -33.6956 -17.1000 -17.0884 -15.1382 -15.1382 -14.7733 -14.7733
   -14.6790 -14.5705 -13.9185 -13.9185 -13.3886 -13.3886  -3.3252  -3.0519
    -1.7032  -1.5459  -1.5459  -1.2865  -1.2865  -0.4201   2.3439   2.3439
     2.7825   2.7825   2.9498   2.9498   3.5601   3.5601   3.7632   4.1894

          k =-0.3195-0.1845 0.0934 (  8456 PWs)   bands (ev):

   -33.7060 -33.6972 -17.1172 -17.0517 -15.1352 -15.0171 -14.9658 -14.7930
   -14.6963 -14.6831 -13.8063 -13.6269 -13.5783 -13.4354  -3.1220  -3.0561
    -1.5587  -1.4572  -1.3577  -1.3278  -1.2759  -0.6297   2.4083   2.4586
     2.5813   2.6210   2.7310   2.7798   3.2930   3.3266   4.1297   4.2120

          k = 0.6390 0.3689-0.1868 (  8460 PWs)   bands (ev):

   -33.7014 -33.7014 -17.0753 -17.0753 -15.0270 -15.0270 -15.0133 -15.0133
   -14.6605 -14.6605 -13.6042 -13.6042 -13.5883 -13.5883  -2.9710  -2.9710
    -1.5114  -1.5114  -1.2398  -1.2398  -0.9322  -0.9322   2.1476   2.1476
     2.5341   2.5341   2.8284   2.8284   3.0881   3.0881   4.3037   4.3037

          k =-0.3195 0.1845 0.1868 (  8460 PWs)   bands (ev):

   -33.7058 -33.6975 -17.1334 -17.0369 -15.1133 -15.0892 -14.8235 -14.8173
   -14.7532 -14.6991 -13.7509 -13.7139 -13.5042 -13.4714  -3.1025  -3.0868
    -1.5005  -1.4580  -1.4421  -1.2636  -1.2470  -0.6742   2.3553   2.4157
     2.5756   2.6465   2.7220   2.9091   3.1571   3.4013   4.1548   4.1740

          k = 0.6390 0.7378-0.0934 (  8463 PWs)   bands (ev):

   -33.7028 -33.6999 -17.1130 -17.0407 -15.1693 -15.0200 -14.9638 -14.8385
   -14.6990 -14.6653 -13.8223 -13.6130 -13.5673 -13.4245  -3.0078  -2.9330
    -1.5013  -1.4645  -1.3504  -1.2219  -0.9847  -0.8247   2.1038   2.2528
     2.4737   2.5254   2.6787   2.7695   3.0981   3.2409   4.2739   4.3684

          k = 0.3195 0.5534 0.0000 (  8447 PWs)   bands (ev):

   -33.7035 -33.6993 -17.1253 -17.0229 -15.1819 -15.0316 -15.0174 -14.7605
   -14.7254 -14.6316 -13.8409 -13.6339 -13.5500 -13.4152  -3.0215  -2.9143
    -1.5723  -1.3705  -1.3140  -1.2320  -1.0959  -0.7906   2.1051   2.3476
     2.4141   2.4943   2.6498   2.8119   3.1556   3.2128   4.2578   4.3893

          k = 0.6390-0.3689-0.3737 (  8508 PWs)   bands (ev):

   -33.7034 -33.6993 -17.1761 -16.9666 -15.2251 -15.2230 -14.7560 -14.7290
   -14.7059 -14.5810 -13.9584 -13.8500 -13.4028 -13.3622  -3.1406  -2.7948
    -1.6045  -1.3898  -1.2646  -1.1991  -0.9792  -0.8789   1.9059   2.2254
     2.4988   2.6801   2.7219   2.7346   3.1202   3.2414   4.1184   4.4784

          k = 0.0000 0.0000 0.2803 (  8465 PWs)   bands (ev):

   -33.7063 -33.6974 -17.0995 -17.0914 -15.0995 -15.0995 -14.8505 -14.8505
   -14.6613 -14.5846 -13.8174 -13.8174 -13.4517 -13.4517  -3.3094  -3.1267
    -1.5078  -1.5078  -1.4900  -1.3248  -1.3248  -0.5912   2.4087   2.4087
     2.7116   2.7116   3.0368   3.0368   3.4582   3.4582   3.8177   4.1127

          k = 0.9585 0.5534 0.0000 (  8453 PWs)   bands (ev):

   -33.7037 -33.6995 -17.0890 -17.0852 -15.1335 -15.0389 -14.9604 -14.7615
   -14.7375 -14.6391 -13.7997 -13.6218 -13.5992 -13.4403  -3.1608  -3.0548
    -1.4730  -1.4529  -1.3698  -1.3216  -1.1428  -0.7823   2.3519   2.4734
     2.5848   2.6127   2.7265   2.9975   3.1180   3.2488   4.1099   4.2019

          k = 0.6390 0.3689 0.0934 (  8453 PWs)   bands (ev):

   -33.7028 -33.6999 -17.1473 -16.9994 -15.1708 -15.1672 -14.8421 -14.8193
   -14.7155 -14.6047 -13.8310 -13.7593 -13.4527 -13.4272  -3.0915  -2.8472
    -1.6004  -1.3538  -1.3129  -1.2088  -0.9963  -0.8694   1.9792   2.2618
     2.4249   2.6788   2.6961   2.8940   3.0450   3.1807   4.1800   4.4236

          k = 0.9585-0.5534-0.2803 (  8463 PWs)   bands (ev):

   -33.7031 -33.7002 -17.1232 -17.0524 -15.1570 -14.9935 -14.9409 -14.8078
   -14.7207 -14.6528 -13.7884 -13.6557 -13.5534 -13.4602  -3.1561  -3.0700
    -1.5040  -1.4057  -1.3560  -1.3088  -1.0682  -0.8790   2.3272   2.3990
     2.5913   2.6385   2.8351   2.9566   3.0622   3.2851   4.1222   4.1788

          k = 0.6390-0.7378-0.1868 (  8466 PWs)   bands (ev):

   -33.7014 -33.7014 -17.0795 -17.0795 -15.1002 -15.1002 -14.8555 -14.8555
   -14.7278 -14.7278 -13.7282 -13.7282 -13.4773 -13.4773  -2.9728  -2.9728
    -1.4845  -1.4845  -1.2939  -1.2939  -0.8816  -0.8816   2.1430   2.1430
     2.5591   2.5591   2.6811   2.6811   3.1627   3.1627   4.3201   4.3201

          k = 0.0000 0.0000-0.5605 (  8482 PWs)   bands (ev):

   -33.7018 -33.7018 -17.0967 -17.0967 -14.9916 -14.9916 -14.9916 -14.9916
   -14.6211 -14.6211 -13.6182 -13.6182 -13.6182 -13.6182  -3.2443  -3.2443
    -1.4164  -1.4164  -1.4164  -1.4164  -1.0229  -1.0229   2.5613   2.5613
     2.5613   2.5613   3.2358   3.2358   3.2358   3.2358   3.9549   3.9549

     highest occupied level (ev):     4.4784

!    total energy              =    -367.43353419 Ry
     Harris-Foulkes estimate   =    -367.43353815 Ry
     estimated scf accuracy    <       0.00000494 Ry

     The total energy is the sum of the following terms:

     one-electron contribution =    -148.33290705 Ry
     hartree contribution      =     103.54646684 Ry
     xc contribution           =     -75.27508836 Ry
     ewald contribution        =    -247.37200563 Ry

     convergence has been achieved in   3 iterations

     Forces acting on atoms (cartesian axes, Ry/au):

     atom    1 type  1   force =     0.00000000    0.00000000    0.00000000
     atom    2 type  1   force =     0.00000000    0.00000000    0.00000000
     atom    3 type  2   force =     0.00000000    0.00000000    0.00000000
     atom    4 type  2   force =     0.00000000   -0.00000000   -0.00000000
     atom    5 type  3   force =     0.00047056   -0.00081503   -0.00000000
     atom    6 type  3   force =    -0.00094112    0.00000000   -0.00000000
     atom    7 type  3   force =     0.00047056    0.00081503    0.00000000
     atom    8 type  3   force =     0.00094112   -0.00000000    0.00000000
     atom    9 type  3   force =    -0.00047056   -0.00081503   -0.00000000
     atom   10 type  3   force =    -0.00047056    0.00081503    0.00000000

     Total force =     0.002305     Total SCF correction =     0.002542
     SCF correction compared to forces is large: reduce conv_thr to get better values


     Computing stress (Cartesian axis) and pressure

          total   stress  (Ry/bohr**3)                   (kbar)     P=    4.69
   0.00003211   0.00000000   0.00000000          4.72      0.00      0.00
  -0.00000000   0.00003211   0.00000000         -0.00      4.72      0.00
  -0.00000000   0.00000000   0.00003150         -0.00      0.00      4.63


     number of scf cycles    =   4
     number of bfgs steps    =   1

     enthalpy old            =    -367.4335349898 Ry
     enthalpy new            =    -367.4335341914 Ry

     CASE: enthalpy_new > enthalpy_old

     new trust radius        =       0.0003074362 bohr
     new conv_thr            =       0.0000100000 Ry

     new unit-cell volume =    855.16761 a.u.^3 (   126.72276 Ang^3 )
     density =      2.62307 g/cm^3

CELL_PARAMETERS (alat= 12.18160000)
   0.391268733  -0.225899109   0.892066703
   0.000000000   0.451798217   0.892066703
  -0.391268733  -0.225899109   0.892066703

ATOMIC_POSITIONS (crystal)
Ca       0.500000000   0.500000000   0.500000000
Ca      -0.000000000   0.000000000  -0.000000000
C        0.250000000   0.250000000   0.250000000
C        0.750000000   0.750000000   0.750000000
O        0.507057207   0.992942793   0.250000000
O        0.992942793   0.250000000   0.507057207
O        0.250000000   0.507057207   0.992942793
O        0.007057207   0.750000000   0.492942793
O        0.750000000   0.492942793   0.007057207
O        0.492942793   0.007057207   0.750000000



     Writing output data file CCO_k.save/
     NEW-OLD atomic charge density approx. for the potential

     Check: negative core charge=   -0.000003
     extrapolated charge   64.00916, renormalised to   64.00000

     total cpu time spent up to now is      167.9 secs

     Self-consistent Calculation

     iteration #  1     ecut=    70.00 Ry     beta= 0.70
     CG style diagonalization
     ethr =  1.00E-06,  avg # of iterations =  2.0

     Threshold (ethr) on eigenvalues was too large:
     Diagonalizing with lowered threshold

     CG style diagonalization
     ethr =  3.26E-08,  avg # of iterations =  2.7

     total cpu time spent up to now is      176.6 secs

     total energy              =    -367.43352248 Ry
     Harris-Foulkes estimate   =    -367.41712763 Ry
     estimated scf accuracy    <       0.00002092 Ry

     iteration #  2     ecut=    70.00 Ry     beta= 0.70
     CG style diagonalization
     ethr =  3.27E-08,  avg # of iterations =  4.5

     total cpu time spent up to now is      185.3 secs

     total energy              =    -367.43353345 Ry
     Harris-Foulkes estimate   =    -367.43354630 Ry
     estimated scf accuracy    <       0.00002892 Ry

     iteration #  3     ecut=    70.00 Ry     beta= 0.70
     CG style diagonalization
     ethr =  3.27E-08,  avg # of iterations =  3.7

     total cpu time spent up to now is      192.9 secs

     End of self-consistent calculation

          k = 0.0000 0.0000 0.0000 (  8435 PWs)   bands (ev):

   -33.7086 -33.6962 -17.0980 -17.0863 -15.1381 -15.1381 -14.7739 -14.7739
   -14.6798 -14.5711 -13.9163 -13.9163 -13.3872 -13.3872  -3.3239  -3.0506
    -1.7020  -1.5443  -1.5443  -1.2850  -1.2850  -0.4190   2.3455   2.3455
     2.7841   2.7841   2.9515   2.9515   3.5618   3.5618   3.7649   4.1911

          k =-0.3195-0.1844 0.0934 (  8456 PWs)   bands (ev):

   -33.7065 -33.6978 -17.1151 -17.0496 -15.1351 -15.0172 -14.9658 -14.7934
   -14.6969 -14.6837 -13.8044 -13.6253 -13.5768 -13.4340  -3.1206  -3.0547
    -1.5573  -1.4556  -1.3561  -1.3262  -1.2743  -0.6285   2.4100   2.4602
     2.5829   2.6226   2.7327   2.7814   3.2947   3.3282   4.1315   4.2138

          k = 0.6389 0.3689-0.1868 (  8460 PWs)   bands (ev):

   -33.7019 -33.7019 -17.0732 -17.0732 -15.0270 -15.0270 -15.0132 -15.0132
   -14.6611 -14.6611 -13.6027 -13.6027 -13.5867 -13.5867  -2.9696  -2.9696
    -1.5098  -1.5098  -1.2382  -1.2382  -0.9309  -0.9309   2.1491   2.1491
     2.5357   2.5357   2.8300   2.8300   3.0897   3.0897   4.3055   4.3055

          k =-0.3195 0.1844 0.1868 (  8460 PWs)   bands (ev):

   -33.7063 -33.6980 -17.1313 -17.0348 -15.1132 -15.0891 -14.8237 -14.8175
   -14.7539 -14.6998 -13.7492 -13.7121 -13.5027 -13.4700  -3.1011  -3.0854
    -1.4990  -1.4567  -1.4405  -1.2621  -1.2454  -0.6730   2.3569   2.4173
     2.5772   2.6482   2.7236   2.9107   3.1587   3.4030   4.1566   4.1758

          k = 0.6389 0.7378-0.0934 (  8463 PWs)   bands (ev):

   -33.7034 -33.7005 -17.1109 -17.0386 -15.1691 -15.0199 -14.9638 -14.8389
   -14.6997 -14.6659 -13.8203 -13.6115 -13.5658 -13.4232  -3.0064  -2.9316
    -1.4997  -1.4629  -1.3489  -1.2203  -0.9833  -0.8235   2.1054   2.2543
     2.4752   2.5270   2.6803   2.7710   3.0998   3.2425   4.2758   4.3703

          k = 0.3195 0.5533 0.0000 (  8447 PWs)   bands (ev):

   -33.7040 -33.6999 -17.1233 -17.0208 -15.1817 -15.0316 -15.0174 -14.7608
   -14.7261 -14.6322 -13.8389 -13.6324 -13.5485 -13.4138  -3.0201  -2.9129
    -1.5708  -1.3689  -1.3123  -1.2304  -1.0946  -0.7893   2.1066   2.3492
     2.4157   2.4959   2.6514   2.8135   3.1572   3.2144   4.2596   4.3911

          k = 0.6389-0.3689-0.3737 (  8508 PWs)   bands (ev):

   -33.7040 -33.6999 -17.1741 -16.9644 -15.2248 -15.2228 -14.7567 -14.7297
   -14.7066 -14.5816 -13.9562 -13.8478 -13.4015 -13.3609  -3.1392  -2.7934
    -1.6029  -1.3882  -1.2632  -1.1975  -0.9778  -0.8777   1.9074   2.2270
     2.5004   2.6817   2.7235   2.7363   3.1219   3.2430   4.1202   4.4803

          k = 0.0000-0.0000 0.2802 (  8465 PWs)   bands (ev):

   -33.7068 -33.6980 -17.0975 -17.0893 -15.0994 -15.0994 -14.8509 -14.8509
   -14.6620 -14.5852 -13.8154 -13.8154 -13.4503 -13.4503  -3.3080  -3.1254
    -1.5062  -1.5062  -1.4888  -1.3232  -1.3232  -0.5900   2.4103   2.4103
     2.7132   2.7132   3.0385   3.0385   3.4599   3.4599   3.8193   4.1144

          k = 0.9584 0.5533 0.0000 (  8453 PWs)   bands (ev):

   -33.7042 -33.7001 -17.0870 -17.0831 -15.1333 -15.0389 -14.9605 -14.7618
   -14.7382 -14.6397 -13.7977 -13.6201 -13.5977 -13.4389  -3.1594  -3.0534
    -1.4713  -1.4514  -1.3682  -1.3200  -1.1414  -0.7811   2.3535   2.4750
     2.5864   2.6143   2.7281   2.9991   3.1196   3.2504   4.1116   4.2037

          k = 0.6389 0.3689 0.0934 (  8453 PWs)   bands (ev):

   -33.7034 -33.7005 -17.1452 -16.9973 -15.1706 -15.1670 -14.8425 -14.8196
   -14.7162 -14.6053 -13.8291 -13.7574 -13.4514 -13.4259  -3.0900  -2.8459
    -1.5989  -1.3522  -1.3113  -1.2073  -0.9950  -0.8681   1.9807   2.2634
     2.4265   2.6804   2.6976   2.8956   3.0466   3.1823   4.1818   4.4255

          k = 0.9584-0.5533-0.2802 (  8463 PWs)   bands (ev):

   -33.7036 -33.7007 -17.1211 -17.0503 -15.1569 -14.9935 -14.9409 -14.8083
   -14.7214 -14.6535 -13.7864 -13.6541 -13.5519 -13.4588  -3.1547  -3.0687
    -1.5024  -1.4041  -1.3545  -1.3072  -1.0669  -0.8778   2.3288   2.4006
     2.5929   2.6401   2.8367   2.9583   3.0638   3.2867   4.1240   4.1806

          k = 0.6389-0.7378-0.1868 (  8466 PWs)   bands (ev):

   -33.7019 -33.7019 -17.0774 -17.0774 -15.1000 -15.1000 -14.8556 -14.8556
   -14.7285 -14.7285 -13.7265 -13.7265 -13.4759 -13.4759  -2.9714  -2.9714
    -1.4829  -1.4829  -1.2924  -1.2924  -0.8803  -0.8803   2.1445   2.1445
     2.5607   2.5607   2.6826   2.6826   3.1644   3.1644   4.3219   4.3219

          k =-0.0000 0.0000-0.5605 (  8482 PWs)   bands (ev):

   -33.7024 -33.7024 -17.0946 -17.0946 -14.9917 -14.9917 -14.9917 -14.9917
   -14.6218 -14.6218 -13.6165 -13.6165 -13.6165 -13.6165  -3.2430  -3.2430
    -1.4148  -1.4148  -1.4148  -1.4148  -1.0217  -1.0217   2.5629   2.5629
     2.5629   2.5629   3.2375   3.2375   3.2375   3.2375   3.9566   3.9566

     highest occupied level (ev):     4.4803

!    total energy              =    -367.43353674 Ry
     Harris-Foulkes estimate   =    -367.43353720 Ry
     estimated scf accuracy    <       0.00000058 Ry

     The total energy is the sum of the following terms:

     one-electron contribution =    -148.34933228 Ry
     hartree contribution      =     103.54299622 Ry
     xc contribution           =     -75.27153987 Ry
     ewald contribution        =    -247.35566081 Ry

     convergence has been achieved in   3 iterations

     Forces acting on atoms (cartesian axes, Ry/au):

     atom    1 type  1   force =    -0.00000000   -0.00000000   -0.00000000
     atom    2 type  1   force =     0.00000000    0.00000000    0.00000000
     atom    3 type  2   force =    -0.00000000   -0.00000000   -0.00000000
     atom    4 type  2   force =    -0.00000000   -0.00000000   -0.00000000
     atom    5 type  3   force =     0.00037555   -0.00065048   -0.00000000
     atom    6 type  3   force =    -0.00075111    0.00000000   -0.00000000
     atom    7 type  3   force =     0.00037555    0.00065048    0.00000000
     atom    8 type  3   force =     0.00075111   -0.00000000    0.00000000
     atom    9 type  3   force =    -0.00037555   -0.00065048   -0.00000000
     atom   10 type  3   force =    -0.00037555    0.00065048    0.00000000

     Total force =     0.001840     Total SCF correction =     0.001169
     SCF correction compared to forces is large: reduce conv_thr to get better values


     Computing stress (Cartesian axis) and pressure

          total   stress  (Ry/bohr**3)                   (kbar)     P=    2.14
   0.00001598  -0.00000000   0.00000000          2.35     -0.00      0.00
   0.00000000   0.00001598   0.00000000          0.00      2.35      0.00
   0.00000000   0.00000000   0.00001178          0.00      0.00      1.73


     number of scf cycles    =   5
     number of bfgs steps    =   1

     enthalpy old            =    -367.4335349898 Ry
     enthalpy new            =    -367.4335367439 Ry

     CASE: enthalpy_new < enthalpy_old

     new trust radius        =       0.0008553622 bohr
     new conv_thr            =       0.0000001000 Ry

     new unit-cell volume =    855.23080 a.u.^3 (   126.73213 Ang^3 )
     density =      2.62287 g/cm^3

CELL_PARAMETERS (alat= 12.18160000)
   0.391306832  -0.225921105   0.891958898
   0.000000000   0.451842210   0.891958898
  -0.391306832  -0.225921105   0.891958898

ATOMIC_POSITIONS (crystal)
Ca       0.500000000   0.500000000   0.500000000
Ca      -0.000000000   0.000000000  -0.000000000
C        0.250000000   0.250000000   0.250000000
C        0.750000000   0.750000000   0.750000000
O        0.507146937   0.992853063   0.250000000
O        0.992853063   0.250000000   0.507146937
O        0.250000000   0.507146937   0.992853063
O        0.007146937   0.750000000   0.492853063
O        0.750000000   0.492853063   0.007146937
O        0.492853063   0.007146937   0.750000000



     Writing output data file CCO_k.save/
     NEW-OLD atomic charge density approx. for the potential

     Check: negative core charge=   -0.000003
     extrapolated charge   64.00473, renormalised to   64.00000

     total cpu time spent up to now is      193.6 secs

     Self-consistent Calculation

     iteration #  1     ecut=    70.00 Ry     beta= 0.70
     CG style diagonalization
     ethr =  1.00E-06,  avg # of iterations =  2.7

     Threshold (ethr) on eigenvalues was too large:
     Diagonalizing with lowered threshold

     CG style diagonalization
     ethr =  1.71E-08,  avg # of iterations =  3.5

     total cpu time spent up to now is      204.8 secs

     total energy              =    -367.43352973 Ry
     Harris-Foulkes estimate   =    -367.42506941 Ry
     estimated scf accuracy    <       0.00001093 Ry

     iteration #  2     ecut=    70.00 Ry     beta= 0.70
     CG style diagonalization
     ethr =  1.71E-08,  avg # of iterations =  4.2

     total cpu time spent up to now is      213.1 secs

     total energy              =    -367.43353465 Ry
     Harris-Foulkes estimate   =    -367.43353990 Ry
     estimated scf accuracy    <       0.00001108 Ry

     iteration #  3     ecut=    70.00 Ry     beta= 0.70
     CG style diagonalization
     ethr =  1.71E-08,  avg # of iterations =  3.6

     total cpu time spent up to now is      220.1 secs

     total energy              =    -367.43353628 Ry
     Harris-Foulkes estimate   =    -367.43353634 Ry
     estimated scf accuracy    <       0.00000013 Ry

     iteration #  4     ecut=    70.00 Ry     beta= 0.70
     CG style diagonalization
     ethr =  2.00E-10,  avg # of iterations =  4.1

     total cpu time spent up to now is      228.7 secs

     End of self-consistent calculation

          k = 0.0000 0.0000 0.0000 (  8435 PWs)   bands (ev):

   -33.7076 -33.6951 -17.0898 -17.0776 -15.1369 -15.1369 -14.7731 -14.7731
   -14.6791 -14.5694 -13.9114 -13.9114 -13.3824 -13.3824  -3.3247  -3.0521
    -1.6973  -1.5421  -1.5421  -1.2828  -1.2828  -0.4125   2.3460   2.3460
     2.7850   2.7850   2.9524   2.9524   3.5630   3.5630   3.7629   4.1896

          k =-0.3194-0.1844 0.0934 (  8456 PWs)   bands (ev):

   -33.7055 -33.6967 -17.1067 -17.0412 -15.1339 -15.0160 -14.9645 -14.7924
   -14.6959 -14.6824 -13.7997 -13.6209 -13.5720 -13.4293  -3.1217  -3.0563
    -1.5536  -1.4534  -1.3532  -1.3235  -1.2719  -0.6225   2.4106   2.4610
     2.5837   2.6233   2.7334   2.7823   3.2956   3.3291   4.1300   4.2122

          k = 0.6389 0.3689-0.1869 (  8460 PWs)   bands (ev):

   -33.7009 -33.7009 -17.0648 -17.0648 -15.0258 -15.0258 -15.0120 -15.0120
   -14.6597 -14.6597 -13.5983 -13.5983 -13.5822 -13.5822  -2.9711  -2.9711
    -1.5072  -1.5072  -1.2356  -1.2356  -0.9259  -0.9259   2.1500   2.1500
     2.5365   2.5365   2.8308   2.8308   3.0905   3.0905   4.3039   4.3039

          k =-0.3194 0.1844 0.1869 (  8460 PWs)   bands (ev):

   -33.7053 -33.6970 -17.1230 -17.0263 -15.1120 -15.0878 -14.8223 -14.8159
   -14.7530 -14.6991 -13.7446 -13.7075 -13.4981 -13.4653  -3.1026  -3.0864
    -1.4964  -1.4527  -1.4382  -1.2592  -1.2431  -0.6671   2.3576   2.4179
     2.5780   2.6490   2.7243   2.9116   3.1596   3.4040   4.1551   4.1742

          k = 0.6389 0.7377-0.0934 (  8463 PWs)   bands (ev):

   -33.7024 -33.6994 -17.1026 -17.0300 -15.1679 -15.0185 -14.9625 -14.8378
   -14.6987 -14.6647 -13.8157 -13.6070 -13.5613 -13.4187  -3.0080  -2.9330
    -1.4973  -1.4603  -1.3457  -1.2178  -0.9789  -0.8182   2.1061   2.2549
     2.4761   2.5279   2.6809   2.7718   3.1006   3.2434   4.2742   4.3688

          k = 0.3194 0.5533 0.0000 (  8447 PWs)   bands (ev):

   -33.7030 -33.6988 -17.1150 -17.0121 -15.1804 -15.0304 -15.0162 -14.7595
   -14.7253 -14.6307 -13.8342 -13.6279 -13.5439 -13.4094  -3.0218  -2.9143
    -1.5681  -1.3662  -1.3099  -1.2280  -1.0898  -0.7839   2.1073   2.3498
     2.4166   2.4968   2.6519   2.8144   3.1581   3.2152   4.2580   4.3897

          k = 0.6389-0.3689-0.3737 (  8508 PWs)   bands (ev):

   -33.7029 -33.6988 -17.1661 -16.9554 -15.2236 -15.2216 -14.7559 -14.7289
   -14.7059 -14.5798 -13.9514 -13.8429 -13.3970 -13.3564  -3.1408  -2.7948
    -1.6008  -1.3854  -1.2594  -1.1951  -0.9737  -0.8724   1.9081   2.2273
     2.5014   2.6823   2.7241   2.7373   3.1227   3.2440   4.1185   4.4788

          k = 0.0000-0.0000 0.2803 (  8465 PWs)   bands (ev):

   -33.7058 -33.6970 -17.0892 -17.0806 -15.0982 -15.0982 -14.8499 -14.8499
   -14.6611 -14.5837 -13.8107 -13.8107 -13.4456 -13.4456  -3.3089  -3.1267
    -1.5040  -1.5040  -1.4840  -1.3210  -1.3210  -0.5839   2.4108   2.4108
     2.7141   2.7141   3.0394   3.0394   3.4610   3.4610   3.8174   4.1128

          k = 0.9583 0.5533 0.0000 (  8453 PWs)   bands (ev):

   -33.7032 -33.6990 -17.0786 -17.0745 -15.1320 -15.0376 -14.9594 -14.7606
   -14.7374 -14.6384 -13.7929 -13.6155 -13.5933 -13.4343  -3.1605  -3.0548
    -1.4692  -1.4482  -1.3659  -1.3175  -1.1372  -0.7756   2.3541   2.4756
     2.5873   2.6151   2.7289   3.0000   3.1204   3.2513   4.1101   4.2021

          k = 0.6389 0.3689 0.0934 (  8453 PWs)   bands (ev):

   -33.7023 -33.6994 -17.1371 -16.9885 -15.1694 -15.1658 -14.8415 -14.8186
   -14.7152 -14.6036 -13.8246 -13.7527 -13.4469 -13.4214  -3.0917  -2.8473
    -1.5965  -1.3493  -1.3088  -1.2043  -0.9904  -0.8631   1.9815   2.2640
     2.4273   2.6813   2.6983   2.8964   3.0475   3.1831   4.1802   4.4240

          k = 0.9583-0.5533-0.2803 (  8463 PWs)   bands (ev):

   -33.7026 -33.6997 -17.1128 -17.0418 -15.1556 -14.9922 -14.9395 -14.8073
   -14.7203 -14.6523 -13.7816 -13.6496 -13.5472 -13.4543  -3.1560  -3.0698
    -1.5002  -1.4018  -1.3516  -1.3046  -1.0623  -0.8725   2.3295   2.4012
     2.5938   2.6409   2.8374   2.9591   3.0647   3.2877   4.1224   4.1790

          k = 0.6389-0.7377-0.1869 (  8466 PWs)   bands (ev):

   -33.7009 -33.7009 -17.0690 -17.0690 -15.0987 -15.0987 -14.8540 -14.8540
   -14.7276 -14.7276 -13.7220 -13.7220 -13.4714 -13.4714  -2.9729  -2.9729
    -1.4804  -1.4804  -1.2895  -1.2895  -0.8755  -0.8755   2.1452   2.1452
     2.5617   2.5617   2.6832   2.6832   3.1652   3.1652   4.3204   4.3204

          k =-0.0000 0.0000-0.5606 (  8482 PWs)   bands (ev):

   -33.7014 -33.7014 -17.0862 -17.0862 -14.9906 -14.9906 -14.9906 -14.9906
   -14.6206 -14.6206 -13.6119 -13.6119 -13.6119 -13.6119  -3.2440  -3.2440
    -1.4126  -1.4126  -1.4126  -1.4126  -1.0165  -1.0165   2.5636   2.5636
     2.5636   2.5636   3.2385   3.2385   3.2385   3.2385   3.9548   3.9548

     highest occupied level (ev):     4.4788

!    total energy              =    -367.43353633 Ry
     Harris-Foulkes estimate   =    -367.43353635 Ry
     estimated scf accuracy    <       0.00000003 Ry

     The total energy is the sum of the following terms:

     one-electron contribution =    -148.27223846 Ry
     hartree contribution      =     103.50098240 Ry
     xc contribution           =     -75.26613415 Ry
     ewald contribution        =    -247.39614612 Ry

     convergence has been achieved in   4 iterations

     Forces acting on atoms (cartesian axes, Ry/au):

     atom    1 type  1   force =    -0.00000000   -0.00000000    0.00000000
     atom    2 type  1   force =     0.00000000    0.00000000    0.00000000
     atom    3 type  2   force =     0.00000000    0.00000000    0.00000000
     atom    4 type  2   force =     0.00000000   -0.00000000   -0.00000000
     atom    5 type  3   force =    -0.00044039    0.00076277    0.00000000
     atom    6 type  3   force =     0.00088077    0.00000000   -0.00000000
     atom    7 type  3   force =    -0.00044039   -0.00076277   -0.00000000
     atom    8 type  3   force =    -0.00088077   -0.00000000    0.00000000
     atom    9 type  3   force =     0.00044039    0.00076277    0.00000000
     atom   10 type  3   force =     0.00044039   -0.00076277   -0.00000000

     Total force =     0.002157     Total SCF correction =     0.000236
     SCF correction compared to forces is large: reduce conv_thr to get better values


     Computing stress (Cartesian axis) and pressure

          total   stress  (Ry/bohr**3)                   (kbar)     P=    0.32
  -0.00000049  -0.00000000  -0.00000000         -0.07     -0.00     -0.00
  -0.00000000  -0.00000049  -0.00000000         -0.00     -0.07     -0.00
   0.00000000  -0.00000000   0.00000746          0.00     -0.00      1.10


     number of scf cycles    =   6
     number of bfgs steps    =   2

     enthalpy old            =    -367.4335367439 Ry
     enthalpy new            =    -367.4335363263 Ry

     CASE: enthalpy_new > enthalpy_old

     new trust radius        =       0.0003964709 bohr
     new conv_thr            =       0.0000001000 Ry

     new unit-cell volume =    855.19690 a.u.^3 (   126.72710 Ang^3 )
     density =      2.62298 g/cm^3

CELL_PARAMETERS (alat= 12.18160000)
   0.391286391  -0.225909303   0.892016739
   0.000000000   0.451818606   0.892016739
  -0.391286391  -0.225909303   0.892016739

ATOMIC_POSITIONS (crystal)
Ca       0.500000000   0.500000000   0.500000000
Ca      -0.000000000   0.000000000  -0.000000000
C        0.250000000   0.250000000   0.250000000
C        0.750000000   0.750000000   0.750000000
O        0.507098794   0.992901206   0.250000000
O        0.992901206   0.250000000   0.507098794
O        0.250000000   0.507098794   0.992901206
O        0.007098794   0.750000000   0.492901206
O        0.750000000   0.492901206   0.007098794
O        0.492901206   0.007098794   0.750000000



     Writing output data file CCO_k.save/
[...]
     some processors have no G-vectors for symmetrization
     Message from routine sym_rho_init:
     some processors have no G-vectors for symmetrization
     Message from routine sym_rho_init:
     some processors have no G-vectors for symmetrization
     Message from routine sym_rho_init:
     some processors have no G-vectors for symmetrization
     Message from routine sym_rho_init:
     some processors have no G-vectors for symmetrization
     Message from routine sym_rho_init:
     some processors have no G-vectors for symmetrization
     Message from routine sym_rho_init:
     some processors have no G-vectors for symmetrization
     Message from routine sym_rho_init:
     some processors have no G-vectors for symmetrization
     Message from routine sym_rho_init:
     some processors have no G-vectors for symmetrization
     Message from routine sym_rho_init:
     some processors have no G-vectors for symmetrization
     Message from routine sym_rho_init:
     some processors have no G-vectors for symmetrization
     Message from routine sym_rho_init:
     some processors have no G-vectors for symmetrization
     Message from routine sym_rho_init:
     some processors have no G-vectors for symmetrization
     Message from routine sym_rho_init:
     some processors have no G-vectors for symmetrization
     Message from routine sym_rho_init:
     some processors have no G-vectors for symmetrization
     Message from routine sym_rho_init:
     some processors have no G-vectors for symmetrization
     Message from routine sym_rho_init:
     some processors have no G-vectors for symmetrization
     Message from routine sym_rho_init:
     some processors have no G-vectors for symmetrization
     Message from routine sym_rho_init:
     some processors have no G-vectors for symmetrization
     Message from routine sym_rho_init:
     some processors have no G-vectors for symmetrization
     Message from routine sym_rho_init:
     some processors have no G-vectors for symmetrization
     Message from routine sym_rho_init:
     some processors have no G-vectors for symmetrization
     Message from routine sym_rho_init:
     some processors have no G-vectors for symmetrization
     Message from routine sym_rho_init:
     some processors have no G-vectors for symmetrization
     Message from routine sym_rho_init:
     some processors have no G-vectors for symmetrization
     Message from routine sym_rho_init:
     some processors have no G-vectors for symmetrization
     Message from routine sym_rho_init:
     some processors have no G-vectors for symmetrization
     Message from routine sym_rho_init:
     some processors have no G-vectors for symmetrization
     Message from routine sym_rho_init:
     some processors have no G-vectors for symmetrization
     Message from routine sym_rho_init:
     some processors have no G-vectors for symmetrization
     Message from routine sym_rho_init:
     some processors have no G-vectors for symmetrization
     Message from routine sym_rho_init:
     some processors have no G-vectors for symmetrization
     Message from routine sym_rho_init:
     some processors have no G-vectors for symmetrization
     Message from routine sym_rho_init:
     some processors have no G-vectors for symmetrization
     Message from routine sym_rho_init:
     some processors have no G-vectors for symmetrization
     Message from routine sym_rho_init:
     some processors have no G-vectors for symmetrization
     Message from routine sym_rho_init:
     some processors have no G-vectors for symmetrization
     Message from routine sym_rho_init:
     some processors have no G-vectors for symmetrization
     Message from routine sym_rho_init:
     some processors have no G-vectors for symmetrization
     Message from routine sym_rho_init:
     some processors have no G-vectors for symmetrization
     Message from routine sym_rho_init:
     some processors have no G-vectors for symmetrization
     Message from routine sym_rho_init:
     some processors have no G-vectors for symmetrization
     Message from routine sym_rho_init:
     some processors have no G-vectors for symmetrization
     Message from routine sym_rho_init:
     some processors have no G-vectors for symmetrization
     Message from routine sym_rho_init:
     some processors have no G-vectors for symmetrization
     Message from routine sym_rho_init:
     some processors have no G-vectors for symmetrization
     Message from routine sym_rho_init:
     some processors have no G-vectors for symmetrization
     Message from routine sym_rho_init:
     some processors have no G-vectors for symmetrization
     Message from routine sym_rho_init:
     some processors have no G-vectors for symmetrization
     Message from routine sym_rho_init:
     some processors have no G-vectors for symmetrization
     Message from routine sym_rho_init:
     some processors have no G-vectors for symmetrization
     Message from routine sym_rho_init:
     some processors have no G-vectors for symmetrization
     Message from routine sym_rho_init:
     some processors have no G-vectors for symmetrization
     Message from routine sym_rho_init:
     some processors have no G-vectors for symmetrization
     Message from routine sym_rho_init:
     some processors have no G-vectors for symmetrization
     Message from routine sym_rho_init:
     some processors have no G-vectors for symmetrization
     Message from routine sym_rho_init:
     some processors have no G-vectors for symmetrization
     Message from routine sym_rho_init:
     some processors have no G-vectors for symmetrization
     Message from routine sym_rho_init:
     some processors have no G-vectors for symmetrization
     Message from routine sym_rho_init:
     some processors have no G-vectors for symmetrization
     Message from routine sym_rho_init:
     some processors have no G-vectors for symmetrization
     Message from routine sym_rho_init:
     some processors have no G-vectors for symmetrization
     Message from routine sym_rho_init:
     some processors have no G-vectors for symmetrization
     Message from routine sym_rho_init:
     some processors have no G-vectors for symmetrization
     Message from routine sym_rho_init:
     some processors have no G-vectors for symmetrization
     Message from routine sym_rho_init:
     some processors have no G-vectors for symmetrization
     Message from routine sym_rho_init:
     some processors have no G-vectors for symmetrization
     Message from routine sym_rho_init:
     some processors have no G-vectors for symmetrization
     Message from routine sym_rho_init:
     some processors have no G-vectors for symmetrization
     Message from routine sym_rho_init:
     some processors have no G-vectors for symmetrization
     Message from routine sym_rho_init:
     some processors have no G-vectors for symmetrization
     Message from routine sym_rho_init:
     some processors have no G-vectors for symmetrization
     Message from routine sym_rho_init:
     some processors have no G-vectors for symmetrization
     Message from routine sym_rho_init:
     some processors have no G-vectors for symmetrization
     Message from routine sym_rho_init:
     some processors have no G-vectors for symmetrization

     Check: negative core charge=   -0.000003

     Initial potential from superposition of free atoms

     starting charge   63.98899, renormalised to   64.00000
     Starting wfcs are   52 randomized atomic wfcs

     total cpu time spent up to now is      264.5 secs

     Self-consistent Calculation

     iteration #  1     ecut=    70.00 Ry     beta= 0.70
     CG style diagonalization
     c_bands:  4 eigenvalues not converged
     c_bands:  4 eigenvalues not converged
     c_bands:  5 eigenvalues not converged
     c_bands:  5 eigenvalues not converged
     c_bands:  1 eigenvalues not converged
     c_bands:  5 eigenvalues not converged
     ethr =  1.00E-06,  avg # of iterations = 13.5

     total cpu time spent up to now is      288.1 secs

     total energy              =    -366.73074476 Ry
     Harris-Foulkes estimate   =    -367.90715402 Ry
     estimated scf accuracy    <       1.68892895 Ry

     iteration #  2     ecut=    70.00 Ry     beta= 0.70
     CG style diagonalization
     ethr =  2.64E-03,  avg # of iterations =  4.3

     total cpu time spent up to now is      296.6 secs

     total energy              =    -367.11875701 Ry
     Harris-Foulkes estimate   =    -367.87987915 Ry
     estimated scf accuracy    <       1.55483252 Ry

     iteration #  3     ecut=    70.00 Ry     beta= 0.70
     CG style diagonalization
     ethr =  2.43E-03,  avg # of iterations =  3.8

     total cpu time spent up to now is      304.6 secs

     total energy              =    -367.42128466 Ry
     Harris-Foulkes estimate   =    -367.42408377 Ry
     estimated scf accuracy    <       0.01270788 Ry

     iteration #  4     ecut=    70.00 Ry     beta= 0.70
     CG style diagonalization
     ethr =  1.99E-05,  avg # of iterations =  4.3

     total cpu time spent up to now is      313.6 secs

     total energy              =    -367.43313105 Ry
     Harris-Foulkes estimate   =    -367.43416176 Ry
     estimated scf accuracy    <       0.00278633 Ry

     iteration #  5     ecut=    70.00 Ry     beta= 0.70
     CG style diagonalization
     ethr =  4.35E-06,  avg # of iterations =  3.6

     total cpu time spent up to now is      321.3 secs

     total energy              =    -367.43350079 Ry
     Harris-Foulkes estimate   =    -367.43353202 Ry
     estimated scf accuracy    <       0.00014519 Ry

     iteration #  6     ecut=    70.00 Ry     beta= 0.70
     CG style diagonalization
     ethr =  2.27E-07,  avg # of iterations =  3.9

     total cpu time spent up to now is      329.6 secs

     total energy              =    -367.43353342 Ry
     Harris-Foulkes estimate   =    -367.43353707 Ry
     estimated scf accuracy    <       0.00000780 Ry

     iteration #  7     ecut=    70.00 Ry     beta= 0.70
     CG style diagonalization
     ethr =  1.22E-08,  avg # of iterations =  4.4

     total cpu time spent up to now is      338.5 secs

     total energy              =    -367.43353711 Ry
     Harris-Foulkes estimate   =    -367.43353904 Ry
     estimated scf accuracy    <       0.00000426 Ry

     iteration #  8     ecut=    70.00 Ry     beta= 0.70
     CG style diagonalization
     ethr =  6.66E-09,  avg # of iterations =  3.6

     total cpu time spent up to now is      346.2 secs

     End of self-consistent calculation

          k = 0.0000 0.0000 0.0000 (  8435 PWs)   bands (ev):

   -33.7076 -33.6952 -17.0922 -17.0801 -15.1368 -15.1368 -14.7732 -14.7732
   -14.6791 -14.5698 -13.9121 -13.9121 -13.3833 -13.3833  -3.3230  -3.0501
    -1.6984  -1.5419  -1.5419  -1.2825  -1.2825  -0.4142   2.3470   2.3470
     2.7860   2.7860   2.9534   2.9534   3.5639   3.5639   3.7652   4.1918

          k =-0.3195-0.1844 0.0934 (  8456 PWs)   bands (ev):

   -33.7056 -33.6968 -17.1092 -17.0437 -15.1339 -15.0160 -14.9645 -14.7925
   -14.6960 -14.6826 -13.8004 -13.6216 -13.5729 -13.4301  -3.1199  -3.0542
    -1.5541  -1.4532  -1.3533  -1.3236  -1.2718  -0.6240   2.4116   2.4620
     2.5847   2.6243   2.7344   2.7832   3.2965   3.3301   4.1322   4.2145

          k = 0.6389 0.3689-0.1868 (  8460 PWs)   bands (ev):

   -33.7009 -33.7009 -17.0673 -17.0673 -15.0258 -15.0258 -15.0120 -15.0120
   -14.6600 -14.6600 -13.5990 -13.5990 -13.5829 -13.5829  -2.9690  -2.9690
    -1.5072  -1.5072  -1.2355  -1.2355  -0.9270  -0.9270   2.1508   2.1508
     2.5375   2.5375   2.8318   2.8318   3.0915   3.0915   4.3062   4.3062

          k =-0.3195 0.1844 0.1868 (  8458 PWs)   bands (ev):

   -33.7053 -33.6970 -17.1254 -17.0288 -15.1119 -15.0878 -14.8225 -14.8161
   -14.7531 -14.6991 -13.7453 -13.7082 -13.4989 -13.4661  -3.1006  -3.0846
    -1.4964  -1.4533  -1.4380  -1.2593  -1.2429  -0.6686   2.3586   2.4190
     2.5789   2.6500   2.7254   2.9125   3.1606   3.4049   4.1573   4.1765

          k = 0.6389 0.7378-0.0934 (  8463 PWs)   bands (ev):

   -33.7024 -33.6995 -17.1050 -17.0325 -15.1679 -15.0185 -14.9626 -14.8379
   -14.6988 -14.6649 -13.8164 -13.6077 -13.5621 -13.4194  -3.0059  -2.9310
    -1.4972  -1.4603  -1.3460  -1.2177  -0.9797  -0.8194   2.1070   2.2560
     2.4770   2.5288   2.6819   2.7727   3.1015   3.2444   4.2765   4.3711

          k = 0.3195 0.5533 0.0000 (  8449 PWs)   bands (ev):

   -33.7030 -33.6989 -17.1174 -17.0147 -15.1804 -15.0304 -15.0162 -14.7597
   -14.7254 -14.6310 -13.8349 -13.6286 -13.5446 -13.4101  -3.0196  -2.9123
    -1.5682  -1.3662  -1.3098  -1.2278  -1.0908  -0.7852   2.1083   2.3508
     2.4175   2.4977   2.6529   2.8153   3.1591   3.2162   4.2603   4.3919

          k = 0.6389-0.3689-0.3737 (  8504 PWs)   bands (ev):

   -33.7030 -33.6989 -17.1684 -16.9581 -15.2235 -15.2215 -14.7560 -14.7289
   -14.7059 -14.5802 -13.9520 -13.8435 -13.3978 -13.3572  -3.1387  -2.7928
    -1.6006  -1.3854  -1.2599  -1.1950  -0.9743  -0.8736   1.9090   2.2284
     2.5022   2.6833   2.7251   2.7382   3.1236   3.2449   4.1208   4.4811

          k = 0.0000-0.0000 0.2803 (  8465 PWs)   bands (ev):

   -33.7058 -33.6970 -17.0917 -17.0832 -15.0982 -15.0982 -14.8499 -14.8499
   -14.6612 -14.5840 -13.8114 -13.8114 -13.4464 -13.4464  -3.3072  -3.1248
    -1.5038  -1.5038  -1.4851  -1.3208  -1.3208  -0.5854   2.4119   2.4119
     2.7150   2.7150   3.0404   3.0404   3.4619   3.4619   3.8197   4.1150

          k = 0.9584 0.5533 0.0000 (  8452 PWs)   bands (ev):

   -33.7032 -33.6991 -17.0811 -17.0771 -15.1320 -15.0377 -14.9594 -14.7607
   -14.7375 -14.6386 -13.7936 -13.6162 -13.5940 -13.4351  -3.1587  -3.0528
    -1.4689  -1.4484  -1.3657  -1.3174  -1.1380  -0.7769   2.3552   2.4767
     2.5882   2.6161   2.7298   3.0009   3.1214   3.2523   4.1123   4.2043

          k = 0.6389 0.3689 0.0934 (  8453 PWs)   bands (ev):

   -33.7024 -33.6995 -17.1395 -16.9911 -15.1694 -15.1657 -14.8415 -14.8187
   -14.7153 -14.6040 -13.8252 -13.7534 -13.4476 -13.4222  -3.0896  -2.8453
    -1.5964  -1.3494  -1.3087  -1.2044  -0.9913  -0.8642   1.9823   2.2650
     2.4283   2.6823   2.6993   2.8973   3.0484   3.1841   4.1825   4.4263

          k = 0.9584-0.5533-0.2803 (  8463 PWs)   bands (ev):

   -33.7026 -33.6997 -17.1152 -17.0443 -15.1556 -14.9922 -14.9396 -14.8074
   -14.7205 -14.6525 -13.7823 -13.6503 -13.5480 -13.4551  -3.1541  -3.0680
    -1.5000  -1.4016  -1.3517  -1.3045  -1.0632  -0.8737   2.3305   2.4022
     2.5947   2.6419   2.8384   2.9600   3.0656   3.2886   4.1246   4.1812

          k = 0.6389-0.7378-0.1868 (  8466 PWs)   bands (ev):

   -33.7009 -33.7009 -17.0715 -17.0715 -15.0987 -15.0987 -14.8542 -14.8542
   -14.7277 -14.7277 -13.7226 -13.7226 -13.4722 -13.4722  -2.9709  -2.9709
    -1.4803  -1.4803  -1.2896  -1.2896  -0.8764  -0.8764   2.1461   2.1461
     2.5625   2.5625   2.6842   2.6842   3.1662   3.1662   4.3227   4.3227

          k =-0.0000 0.0000-0.5605 (  8482 PWs)   bands (ev):

   -33.7014 -33.7014 -17.0887 -17.0887 -14.9906 -14.9906 -14.9906 -14.9906
   -14.6208 -14.6208 -13.6126 -13.6126 -13.6126 -13.6126  -3.2423  -3.2423
    -1.4124  -1.4124  -1.4124  -1.4124  -1.0177  -1.0177   2.5646   2.5646
     2.5646   2.5646   3.2395   3.2395   3.2395   3.2395   3.9571   3.9571

     highest occupied level (ev):     4.4811

!    total energy              =    -367.43353776 Ry
     Harris-Foulkes estimate   =    -367.43353783 Ry
     estimated scf accuracy    <       0.00000009 Ry

     The total energy is the sum of the following terms:

     one-electron contribution =    -148.31000452 Ry
     hartree contribution      =     103.51887164 Ry
     xc contribution           =     -75.26797051 Ry
     ewald contribution        =    -247.37443437 Ry

     convergence has been achieved in   8 iterations

     Forces acting on atoms (cartesian axes, Ry/au):

     atom    1 type  1   force =     0.00000000    0.00000000    0.00000000
     atom    2 type  1   force =    -0.00000000   -0.00000000   -0.00000000
     atom    3 type  2   force =    -0.00000000    0.00000000   -0.00000000
     atom    4 type  2   force =     0.00000000   -0.00000000   -0.00000000
     atom    5 type  3   force =    -0.00008463    0.00014658    0.00000000
     atom    6 type  3   force =     0.00016926   -0.00000000   -0.00000000
     atom    7 type  3   force =    -0.00008463   -0.00014658   -0.00000000
     atom    8 type  3   force =    -0.00016926    0.00000000    0.00000000
     atom    9 type  3   force =     0.00008463    0.00014658    0.00000000
     atom   10 type  3   force =     0.00008463   -0.00014658   -0.00000000

     Total force =     0.000415     Total SCF correction =     0.001338
     SCF correction compared to forces is large: reduce conv_thr to get better values


     Computing stress (Cartesian axis) and pressure

          total   stress  (Ry/bohr**3)                   (kbar)     P=    0.45
   0.00000299  -0.00000000  -0.00000000          0.44     -0.00     -0.00
  -0.00000000   0.00000299   0.00000000         -0.00      0.44      0.00
   0.00000000   0.00000000   0.00000322          0.00      0.00      0.47


     Writing output data file CCO_k.save/
 
     init_run     :      8.43s CPU      9.48s WALL (       2 calls)
     electrons    :    301.50s CPU    330.16s WALL (       8 calls)
     update_pot   :      0.46s CPU      0.50s WALL (       6 calls)
     forces       :      1.57s CPU      1.68s WALL (       8 calls)
     stress       :      2.45s CPU      2.60s WALL (       8 calls)

     Called by init_run:
     wfcinit      :      6.82s CPU      7.75s WALL (       2 calls)
     potinit      :      0.19s CPU      0.21s WALL (       2 calls)
     hinit0       :      0.93s CPU      1.01s WALL (       2 calls)

     Called by electrons:
     c_bands      :    278.32s CPU    305.55s WALL (      43 calls)
     sum_band     :     21.37s CPU     22.15s WALL (      43 calls)
     v_of_rho     :      1.18s CPU      1.23s WALL (      47 calls)
     newd         :      0.47s CPU      0.49s WALL (      47 calls)
     mix_rho      :      0.16s CPU      0.17s WALL (      43 calls)

     Called by c_bands:
     init_us_2    :      0.23s CPU      0.26s WALL (    1352 calls)
     ccgdiagg     :    200.43s CPU    215.79s WALL (     565 calls)
     wfcrot       :     84.27s CPU     96.18s WALL (     435 calls)

     Called by sum_band:
     sum_band:bec :      0.15s CPU      0.16s WALL (     559 calls)
     addusdens    :      0.14s CPU      0.14s WALL (      43 calls)

     Called by *cgdiagg:
     h_psi        :    180.33s CPU    190.06s WALL (   56194 calls)
     s_psi        :      4.94s CPU      5.61s WALL (  111953 calls)
     cdiaghg      :     40.95s CPU     51.10s WALL (     435 calls)

     Called by h_psi:
     h_psi:pot    :    178.98s CPU    188.50s WALL (   56194 calls)
     h_psi:calbec :     20.34s CPU     22.05s WALL (   56194 calls)
     vloc_psi     :    152.97s CPU    160.30s WALL (   56194 calls)
     add_vuspsi   :      3.84s CPU      4.28s WALL (   56194 calls)
     hs_1psi      :    153.66s CPU    162.88s WALL (   55759 calls)
     s_1psi       :     13.51s CPU     15.02s WALL (   55759 calls)

     General routines
     calbec       :     29.86s CPU     32.96s WALL (  113032 calls)
     fft          :      1.87s CPU      1.93s WALL (     727 calls)
     ffts         :      0.08s CPU      0.08s WALL (      43 calls)
     fftw         :    166.57s CPU    174.18s WALL (  158286 calls)
 
     Parallel routines
     fft_scatt_xy :      5.74s CPU      5.93s WALL (  159056 calls)
     fft_scatt_yz :    137.77s CPU    144.61s WALL (  159056 calls)
 
     PWSCF        :   5m23.27s CPU   5m58.51s WALL

 
   This run was terminated on:   5:14:42   4May2022            

=------------------------------------------------------------------------------=
   JOB DONE.
=------------------------------------------------------------------------------=
