
     Program PWSCF v.6.4.1 starts on  2May2022 at 20:13:21 

     This program is part of the open-source Quantum ESPRESSO suite
     for quantum simulation of materials; please cite
         "P. Giannozzi et al., J. Phys.:Condens. Matter 21 395502 (2009);
         "P. Giannozzi et al., J. Phys.:Condens. Matter 29 465901 (2017);
          URL http://www.quantum-espresso.org", 
     in publications or presentations arising from this work. More details at
     http://www.quantum-espresso.org/quote

     Parallel version (MPI & OpenMP), running on     300 processor cores
     Number of MPI processes:               300
     Threads/MPI process:                     1

     MPI processes distributed on     5 nodes
     R & G space division:  proc/nbgrp/npool/nimage =     300
     Waiting for input...
     Reading input from standard input

     Current dimensions of program PWSCF are:
     Max number of different atomic species (ntypx) = 10
     Max number of k-points (npk) =  40000
     Max angular momentum in pseudopotentials (lmaxx) =  3

     Subspace diagonalization in iterative solution of the eigenvalue problem:
     one sub-group per band group will be used
     scalapack distributed-memory algorithm (size of sub-group: 12* 12 procs)

 
     Parallelization info
     --------------------
     sticks:   dense  smooth     PW     G-vecs:    dense   smooth      PW
     Min           5       5      1                  131      131      18
     Max           6       6      2                  141      141      26
     Sum        1703    1703    513                40837    40837    6777
 


     bravais-lattice index     =            5
     lattice parameter (alat)  =      12.1620  a.u.
     unit-cell volume          =     854.7720 (a.u.)^3
     number of atoms/cell      =           10
     number of atomic types    =            3
     number of electrons       =        64.00
     number of Kohn-Sham states=           32
     kinetic-energy cutoff     =      50.0000  Ry
     charge density cutoff     =     200.0000  Ry
     convergence threshold     =      1.0E-05
     mixing beta               =       0.7000
     number of iterations used =            8  plain     mixing
     Exchange-correlation      = SLA  PW   PBE  PBE ( 1  4  3  4 0 0)
     nstep                     =           50


     celldm(1)=  12.162000  celldm(2)=   0.000000  celldm(3)=   0.000000
     celldm(4)=   0.692300  celldm(5)=   0.000000  celldm(6)=   0.000000

     crystal axes: (cart. coord. in units of alat)
               a(1) = (   0.392237  -0.226458   0.891553 )  
               a(2) = (   0.000000   0.452916   0.891553 )  
               a(3) = (  -0.392237  -0.226458   0.891553 )  

     reciprocal axes: (cart. coord. in units 2 pi/alat)
               b(1) = (  1.274739 -0.735971  0.373879 )  
               b(2) = (  0.000000  1.471942  0.373879 )  
               b(3) = ( -1.274739 -0.735971  0.373879 )  


     PseudoPot. # 1 for Ca read from file:
     ./Ca_PBE.UPF
     MD5 check sum: 403a4c14b9e4d4dfdc3024c9a3812218
     Pseudo is Ultrasoft + core correction, Zval = 10.0
     Generated by new atomic code, or converted to UPF format
     Using radial grid of  845 points,  6 beta functions with: 
                l(1) =   0
                l(2) =   0
                l(3) =   1
                l(4) =   1
                l(5) =   2
                l(6) =   2
     Q(r) pseudized with  8 coefficients,  rinner =    1.500   1.500   1.500
                                                       1.500   1.500

     PseudoPot. # 2 for C  read from file:
     ./C_PBE.UPF
     MD5 check sum: d1aef80898a10debaa0f26306b886e00
     Pseudo is Ultrasoft + core correction, Zval =  4.0
     Generated by new atomic code, or converted to UPF format
     Using radial grid of  721 points,  4 beta functions with: 
                l(1) =   0
                l(2) =   0
                l(3) =   1
                l(4) =   1
     Q(r) pseudized with  8 coefficients,  rinner =    1.100   1.100   1.100


     PseudoPot. # 3 for O  read from file:
     ./O_PBE.UPF
     MD5 check sum: 734c27235a0248c51dbae37a1fbe46ec
     Pseudo is Ultrasoft + core correction, Zval =  6.0
     Generated by new atomic code, or converted to UPF format
     Using radial grid of  737 points,  5 beta functions with: 
                l(1) =   0
                l(2) =   0
                l(3) =   1
                l(4) =   1
                l(5) =   2
     Q(r) pseudized with  8 coefficients,  rinner =    0.900   0.900   0.900
                                                       0.900   0.900

     atomic species   valence    mass     pseudopotential
        Ca            10.00    40.07800     Ca( 1.00)
        C              4.00    12.01070     C ( 1.00)
        O              6.00    16.00000     O ( 1.00)

     12 Sym. Ops., with inversion, found ( 6 have fractional translation)



   Cartesian axes

     site n.     atom                  positions (alat units)
         1           Ca  tau(   1) = (   0.0000000  -0.0000000   1.3373294  )
         2           Ca  tau(   2) = (   0.0000000   0.0000000   0.0000000  )
         3           C   tau(   3) = (   0.0000000  -0.0000000   0.6686647  )
         4           C   tau(   4) = (   0.0000000  -0.0000000   2.0059941  )
         5           O   tau(   5) = (   0.1007658   0.2783849   1.5602177  )
         6           O   tau(   6) = (   0.1907055  -0.2264582   1.5602177  )
         7           O   tau(   7) = (  -0.2914713  -0.0519267   1.5602177  )
         8           O   tau(   8) = (  -0.1907055   0.2264582   1.1144412  )
         9           O   tau(   9) = (   0.2914713   0.0519267   1.1144412  )
        10           O   tau(  10) = (  -0.1007658  -0.2783849   1.1144412  )

     number of k points=   146

     Number of k-points >= 100: set verbosity='high' to print them.

     Dense  grid:    40837 G-vectors     FFT dimensions: (  60,  60,  60)

     Estimated max dynamical RAM per process >      15.24 MB

     Estimated total dynamical RAM >       4.47 GB
     Message from routine sym_rho_init:
     some processors have no G-vectors for symmetrization
     Message from routine sym_rho_init:
     some processors have no G-vectors for symmetrization
     Message from routine sym_rho_init:
     some processors have no G-vectors for symmetrization
     Message from routine sym_rho_init:
     some processors have no G-vectors for symmetrization
     Message from routine sym_rho_init:
     some processors have no G-vectors for symmetrization
     Message from routine sym_rho_init:
     some processors have no G-vectors for symmetrization
     Message from routine sym_rho_init:
     some processors have no G-vectors for symmetrization
     Message from routine sym_rho_init:
     some processors have no G-vectors for symmetrization
     Message from routine sym_rho_init:
     some processors have no G-vectors for symmetrization
     Message from routine sym_rho_init:
     some processors have no G-vectors for symmetrization
     Message from routine sym_rho_init:
     some processors have no G-vectors for symmetrization
     Message from routine sym_rho_init:
     some processors have no G-vectors for symmetrization
     Message from routine sym_rho_init:
     some processors have no G-vectors for symmetrization
     Message from routine sym_rho_init:
     some processors have no G-vectors for symmetrization
     Message from routine sym_rho_init:
     some processors have no G-vectors for symmetrization
     Message from routine sym_rho_init:
     some processors have no G-vectors for symmetrization
     Message from routine sym_rho_init:
     some processors have no G-vectors for symmetrization
     Message from routine sym_rho_init:
     some processors have no G-vectors for symmetrization
     Message from routine sym_rho_init:
     some processors have no G-vectors for symmetrization
     Message from routine sym_rho_init:
     some processors have no G-vectors for symmetrization
     Message from routine sym_rho_init:
     some processors have no G-vectors for symmetrization
     Message from routine sym_rho_init:
     some processors have no G-vectors for symmetrization
     Message from routine sym_rho_init:
     some processors have no G-vectors for symmetrization
     Message from routine sym_rho_init:
     some processors have no G-vectors for symmetrization
     Message from routine sym_rho_init:
     some processors have no G-vectors for symmetrization
     Message from routine sym_rho_init:
     some processors have no G-vectors for symmetrization
     Message from routine sym_rho_init:
     some processors have no G-vectors for symmetrization
     Message from routine sym_rho_init:
     some processors have no G-vectors for symmetrization
     Message from routine sym_rho_init:
     some processors have no G-vectors for symmetrization
     Message from routine sym_rho_init:
     some processors have no G-vectors for symmetrization
     Message from routine sym_rho_init:
     some processors have no G-vectors for symmetrization
     Message from routine sym_rho_init:
     some processors have no G-vectors for symmetrization
     Message from routine sym_rho_init:
     some processors have no G-vectors for symmetrization
     Message from routine sym_rho_init:
     some processors have no G-vectors for symmetrization
     Message from routine sym_rho_init:
     some processors have no G-vectors for symmetrization
     Message from routine sym_rho_init:
     some processors have no G-vectors for symmetrization
     Message from routine sym_rho_init:
     some processors have no G-vectors for symmetrization
     Message from routine sym_rho_init:
     some processors have no G-vectors for symmetrization
     Message from routine sym_rho_init:
     some processors have no G-vectors for symmetrization
     Message from routine sym_rho_init:
     some processors have no G-vectors for symmetrization
     Message from routine sym_rho_init:
     some processors have no G-vectors for symmetrization
     Message from routine sym_rho_init:
     some processors have no G-vectors for symmetrization
     Message from routine sym_rho_init:
     some processors have no G-vectors for symmetrization
     Message from routine sym_rho_init:
     some processors have no G-vectors for symmetrization
     Message from routine sym_rho_init:
     some processors have no G-vectors for symmetrization
     Message from routine sym_rho_init:
     some processors have no G-vectors for symmetrization
     Message from routine sym_rho_init:
     some processors have no G-vectors for symmetrization
     Message from routine sym_rho_init:
     some processors have no G-vectors for symmetrization
     Message from routine sym_rho_init:
     some processors have no G-vectors for symmetrization
     Message from routine sym_rho_init:
     some processors have no G-vectors for symmetrization
     Message from routine sym_rho_init:
     some processors have no G-vectors for symmetrization
     Message from routine sym_rho_init:
     some processors have no G-vectors for symmetrization
     Message from routine sym_rho_init:
     some processors have no G-vectors for symmetrization
     Message from routine sym_rho_init:
     some processors have no G-vectors for symmetrization
     Message from routine sym_rho_init:
     some processors have no G-vectors for symmetrization
     Message from routine sym_rho_init:
     some processors have no G-vectors for symmetrization
     Message from routine sym_rho_init:
     some processors have no G-vectors for symmetrization
     Message from routine sym_rho_init:
     some processors have no G-vectors for symmetrization
     Message from routine sym_rho_init:
     some processors have no G-vectors for symmetrization
     Message from routine sym_rho_init:
     some processors have no G-vectors for symmetrization
     Message from routine sym_rho_init:
     some processors have no G-vectors for symmetrization
     Message from routine sym_rho_init:
     some processors have no G-vectors for symmetrization
     Message from routine sym_rho_init:
     some processors have no G-vectors for symmetrization
     Message from routine sym_rho_init:
     some processors have no G-vectors for symmetrization
     Message from routine sym_rho_init:
     some processors have no G-vectors for symmetrization
     Message from routine sym_rho_init:
     some processors have no G-vectors for symmetrization
     Message from routine sym_rho_init:
     some processors have no G-vectors for symmetrization
     Message from routine sym_rho_init:
     some processors have no G-vectors for symmetrization
     Message from routine sym_rho_init:
     some processors have no G-vectors for symmetrization
     Message from routine sym_rho_init:
     some processors have no G-vectors for symmetrization
     Message from routine sym_rho_init:
     some processors have no G-vectors for symmetrization
     Message from routine sym_rho_init:
     some processors have no G-vectors for symmetrization
     Message from routine sym_rho_init:
     some processors have no G-vectors for symmetrization
     Message from routine sym_rho_init:
     some processors have no G-vectors for symmetrization
     Message from routine sym_rho_init:
     some processors have no G-vectors for symmetrization
     Message from routine sym_rho_init:
     some processors have no G-vectors for symmetrization
     Message from routine sym_rho_init:
     some processors have no G-vectors for symmetrization
     Message from routine sym_rho_init:
     some processors have no G-vectors for symmetrization
     Message from routine sym_rho_init:
     some processors have no G-vectors for symmetrization
     Message from routine sym_rho_init:
     some processors have no G-vectors for symmetrization
     Message from routine sym_rho_init:
     some processors have no G-vectors for symmetrization
     Message from routine sym_rho_init:
     some processors have no G-vectors for symmetrization
     Message from routine sym_rho_init:
     some processors have no G-vectors for symmetrization
     Message from routine sym_rho_init:
     some processors have no G-vectors for symmetrization
     Message from routine sym_rho_init:
     some processors have no G-vectors for symmetrization
     Message from routine sym_rho_init:
     some processors have no G-vectors for symmetrization
     Message from routine sym_rho_init:
     some processors have no G-vectors for symmetrization
     Message from routine sym_rho_init:
     some processors have no G-vectors for symmetrization
     Message from routine sym_rho_init:
     some processors have no G-vectors for symmetrization
     Message from routine sym_rho_init:
     some processors have no G-vectors for symmetrization
     Message from routine sym_rho_init:
     some processors have no G-vectors for symmetrization
     Message from routine sym_rho_init:
     some processors have no G-vectors for symmetrization
     Message from routine sym_rho_init:
     some processors have no G-vectors for symmetrization
     Message from routine sym_rho_init:
     some processors have no G-vectors for symmetrization
     Message from routine sym_rho_init:
     some processors have no G-vectors for symmetrization
     Message from routine sym_rho_init:
     some processors have no G-vectors for symmetrization
     Message from routine sym_rho_init:
     some processors have no G-vectors for symmetrization
     Message from routine sym_rho_init:
     some processors have no G-vectors for symmetrization
     Message from routine sym_rho_init:
     some processors have no G-vectors for symmetrization
     Message from routine sym_rho_init:
     some processors have no G-vectors for symmetrization
     Message from routine sym_rho_init:
     some processors have no G-vectors for symmetrization
     Message from routine sym_rho_init:
     some processors have no G-vectors for symmetrization
     Message from routine sym_rho_init:
     some processors have no G-vectors for symmetrization
     Message from routine sym_rho_init:
     some processors have no G-vectors for symmetrization
     Message from routine sym_rho_init:
     some processors have no G-vectors for symmetrization
     Message from routine sym_rho_init:
     some processors have no G-vectors for symmetrization
     Message from routine sym_rho_init:
     some processors have no G-vectors for symmetrization
     Message from routine sym_rho_init:
     some processors have no G-vectors for symmetrization
     Message from routine sym_rho_init:
     some processors have no G-vectors for symmetrization
     Message from routine sym_rho_init:
     some processors have no G-vectors for symmetrization
     Message from routine sym_rho_init:
     some processors have no G-vectors for symmetrization
     Message from routine sym_rho_init:
     some processors have no G-vectors for symmetrization
     Message from routine sym_rho_init:
     some processors have no G-vectors for symmetrization
     Message from routine sym_rho_init:
     some processors have no G-vectors for symmetrization
     Message from routine sym_rho_init:
     some processors have no G-vectors for symmetrization
     Message from routine sym_rho_init:
     some processors have no G-vectors for symmetrization
     Message from routine sym_rho_init:
     some processors have no G-vectors for symmetrization
     Message from routine sym_rho_init:
     some processors have no G-vectors for symmetrization
     Message from routine sym_rho_init:
     some processors have no G-vectors for symmetrization
     Message from routine sym_rho_init:
     some processors have no G-vectors for symmetrization
     Message from routine sym_rho_init:
     some processors have no G-vectors for symmetrization
     Message from routine sym_rho_init:
     some processors have no G-vectors for symmetrization
     Message from routine sym_rho_init:
     some processors have no G-vectors for symmetrization
     Message from routine sym_rho_init:
     some processors have no G-vectors for symmetrization
     Message from routine sym_rho_init:
     some processors have no G-vectors for symmetrization
     Message from routine sym_rho_init:
     some processors have no G-vectors for symmetrization
     Message from routine sym_rho_init:
     some processors have no G-vectors for symmetrization
     Message from routine sym_rho_init:
     some processors have no G-vectors for symmetrization
     Message from routine sym_rho_init:
     some processors have no G-vectors for symmetrization
     Message from routine sym_rho_init:
     some processors have no G-vectors for symmetrization
     Message from routine sym_rho_init:
     some processors have no G-vectors for symmetrization
     Message from routine sym_rho_init:
     some processors have no G-vectors for symmetrization
     Message from routine sym_rho_init:
     some processors have no G-vectors for symmetrization
     Message from routine sym_rho_init:
     some processors have no G-vectors for symmetrization
     Message from routine sym_rho_init:
     some processors have no G-vectors for symmetrization
     Message from routine sym_rho_init:
     some processors have no G-vectors for symmetrization
     Message from routine sym_rho_init:
     some processors have no G-vectors for symmetrization
     Message from routine sym_rho_init:
     some processors have no G-vectors for symmetrization
     Message from routine sym_rho_init:
     some processors have no G-vectors for symmetrization
     Message from routine sym_rho_init:
     some processors have no G-vectors for symmetrization
     Message from routine sym_rho_init:
     some processors have no G-vectors for symmetrization
     Message from routine sym_rho_init:
     some processors have no G-vectors for symmetrization
     Message from routine sym_rho_init:
     some processors have no G-vectors for symmetrization
     Message from routine sym_rho_init:
     some processors have no G-vectors for symmetrization
     Message from routine sym_rho_init:
     some processors have no G-vectors for symmetrization
     Message from routine sym_rho_init:
     some processors have no G-vectors for symmetrization
     Message from routine sym_rho_init:
     some processors have no G-vectors for symmetrization
     Message from routine sym_rho_init:
     some processors have no G-vectors for symmetrization
     Message from routine sym_rho_init:
     some processors have no G-vectors for symmetrization
     Message from routine sym_rho_init:
     some processors have no G-vectors for symmetrization
     Message from routine sym_rho_init:
     some processors have no G-vectors for symmetrization
     Message from routine sym_rho_init:
     some processors have no G-vectors for symmetrization
     Message from routine sym_rho_init:
     some processors have no G-vectors for symmetrization
     Message from routine sym_rho_init:
     some processors have no G-vectors for symmetrization
     Message from routine sym_rho_init:
     some processors have no G-vectors for symmetrization
     Message from routine sym_rho_init:
     some processors have no G-vectors for symmetrization
     Message from routine sym_rho_init:
     some processors have no G-vectors for symmetrization
     Message from routine sym_rho_init:
     some processors have no G-vectors for symmetrization
     Message from routine sym_rho_init:
     some processors have no G-vectors for symmetrization
     Message from routine sym_rho_init:
     some processors have no G-vectors for symmetrization
     Message from routine sym_rho_init:
     some processors have no G-vectors for symmetrization
     Message from routine sym_rho_init:
     some processors have no G-vectors for symmetrization
     Message from routine sym_rho_init:
     some processors have no G-vectors for symmetrization
     Message from routine sym_rho_init:
     some processors have no G-vectors for symmetrization
     Message from routine sym_rho_init:
     some processors have no G-vectors for symmetrization
     Message from routine sym_rho_init:
     some processors have no G-vectors for symmetrization
     Message from routine sym_rho_init:
     some processors have no G-vectors for symmetrization
     Message from routine sym_rho_init:
     some processors have no G-vectors for symmetrization
     Message from routine sym_rho_init:
     some processors have no G-vectors for symmetrization
     Message from routine sym_rho_init:
     some processors have no G-vectors for symmetrization
     Message from routine sym_rho_init:
     some processors have no G-vectors for symmetrization
     Message from routine sym_rho_init:
     some processors have no G-vectors for symmetrization
     Message from routine sym_rho_init:
     some processors have no G-vectors for symmetrization
     Message from routine sym_rho_init:
     some processors have no G-vectors for symmetrization
     Message from routine sym_rho_init:
     some processors have no G-vectors for symmetrization
     Message from routine sym_rho_init:
     some processors have no G-vectors for symmetrization
     Message from routine sym_rho_init:
     some processors have no G-vectors for symmetrization
     Message from routine sym_rho_init:
     some processors have no G-vectors for symmetrization
     Message from routine sym_rho_init:
     some processors have no G-vectors for symmetrization
     Message from routine sym_rho_init:
     some processors have no G-vectors for symmetrization
     Message from routine sym_rho_init:
     some processors have no G-vectors for symmetrization
     Message from routine sym_rho_init:
     some processors have no G-vectors for symmetrization
     Message from routine sym_rho_init:
     some processors have no G-vectors for symmetrization
     Message from routine sym_rho_init:
     some processors have no G-vectors for symmetrization
     Message from routine sym_rho_init:
     some processors have no G-vectors for symmetrization
     Message from routine sym_rho_init:
     some processors have no G-vectors for symmetrization
     Message from routine sym_rho_init:
     some processors have no G-vectors for symmetrization
     Message from routine sym_rho_init:
     some processors have no G-vectors for symmetrization
     Message from routine sym_rho_init:
     some processors have no G-vectors for symmetrization
     Message from routine sym_rho_init:
     some processors have no G-vectors for symmetrization
     Message from routine sym_rho_init:
     some processors have no G-vectors for symmetrization
     Message from routine sym_rho_init:
     some processors have no G-vectors for symmetrization

     Check: negative core charge=   -0.000003

     Initial potential from superposition of free atoms

     starting charge   63.98899, renormalised to   64.00000
     Starting wfcs are   52 randomized atomic wfcs

     total cpu time spent up to now is       30.1 secs

     Self-consistent Calculation

     iteration #  1     ecut=    50.00 Ry     beta= 0.70
     CG style diagonalization
     ethr =  1.00E-02,  avg # of iterations =  2.7

     total cpu time spent up to now is       72.8 secs

     total energy              =    -366.66948684 Ry
     Harris-Foulkes estimate   =    -367.89238194 Ry
     estimated scf accuracy    <       1.75335749 Ry

     iteration #  2     ecut=    50.00 Ry     beta= 0.70
     CG style diagonalization
     ethr =  2.74E-03,  avg # of iterations =  4.4

     total cpu time spent up to now is      147.9 secs

     total energy              =    -367.10087094 Ry
     Harris-Foulkes estimate   =    -367.91426327 Ry
     estimated scf accuracy    <       1.67298052 Ry

     iteration #  3     ecut=    50.00 Ry     beta= 0.70
     CG style diagonalization
     ethr =  2.61E-03,  avg # of iterations =  3.8

     total cpu time spent up to now is      213.7 secs

     total energy              =    -367.41860411 Ry
     Harris-Foulkes estimate   =    -367.42058771 Ry
     estimated scf accuracy    <       0.01096566 Ry

     iteration #  4     ecut=    50.00 Ry     beta= 0.70
     CG style diagonalization
     ethr =  1.71E-05,  avg # of iterations =  4.4

     total cpu time spent up to now is      289.3 secs

     total energy              =    -367.42989657 Ry
     Harris-Foulkes estimate   =    -367.43091537 Ry
     estimated scf accuracy    <       0.00273995 Ry

     iteration #  5     ecut=    50.00 Ry     beta= 0.70
     CG style diagonalization
     ethr =  4.28E-06,  avg # of iterations =  3.6

     total cpu time spent up to now is      351.7 secs

     total energy              =    -367.43031368 Ry
     Harris-Foulkes estimate   =    -367.43034521 Ry
     estimated scf accuracy    <       0.00014618 Ry

     iteration #  6     ecut=    50.00 Ry     beta= 0.70
     CG style diagonalization
     ethr =  2.28E-07,  avg # of iterations =  4.1

     total cpu time spent up to now is      423.1 secs

     total energy              =    -367.43035225 Ry
     Harris-Foulkes estimate   =    -367.43036562 Ry
     estimated scf accuracy    <       0.00002289 Ry

     iteration #  7     ecut=    50.00 Ry     beta= 0.70
     CG style diagonalization
     ethr =  3.58E-08,  avg # of iterations =  4.1

     total cpu time spent up to now is      493.3 secs

     End of self-consistent calculation

     Number of k-points >= 100: set verbosity='high' to print the bands.

     highest occupied level (ev):     4.4801

!    total energy              =    -367.43036071 Ry
     Harris-Foulkes estimate   =    -367.43036364 Ry
     estimated scf accuracy    <       0.00000461 Ry

     The total energy is the sum of the following terms:

     one-electron contribution =    -148.11947196 Ry
     hartree contribution      =     103.42514885 Ry
     xc contribution           =     -75.26267473 Ry
     ewald contribution        =    -247.47336287 Ry

     convergence has been achieved in   7 iterations

     Forces acting on atoms (cartesian axes, Ry/au):

     atom    1 type  1   force =     0.00000000    0.00000000   -0.00000000
     atom    2 type  1   force =     0.00000000    0.00000000    0.00000000
     atom    3 type  2   force =    -0.00000000   -0.00000000    0.00000000
     atom    4 type  2   force =    -0.00000000   -0.00000000   -0.00000000
     atom    5 type  3   force =     0.00003532   -0.00006117   -0.00000000
     atom    6 type  3   force =    -0.00007063   -0.00000000    0.00000000
     atom    7 type  3   force =     0.00003532    0.00006117    0.00000000
     atom    8 type  3   force =     0.00007063    0.00000000   -0.00000000
     atom    9 type  3   force =    -0.00003532   -0.00006117   -0.00000000
     atom   10 type  3   force =    -0.00003532    0.00006117    0.00000000

     Total force =     0.000173     Total SCF correction =     0.000181
     SCF correction compared to forces is large: reduce conv_thr to get better values


     Computing stress (Cartesian axis) and pressure

          total   stress  (Ry/bohr**3)                   (kbar)     P=   -4.84
  -0.00003416   0.00000000   0.00000000         -5.03      0.00      0.00
  -0.00000000  -0.00003416  -0.00000000         -0.00     -5.03     -0.00
   0.00000000  -0.00000000  -0.00003040          0.00     -0.00     -4.47


     BFGS Geometry Optimization

     number of scf cycles    =   1
     number of bfgs steps    =   0

     enthalpy new            =    -367.4303607144 Ry

     new trust radius        =       0.0049934941 bohr
     new conv_thr            =       0.0000100000 Ry

     new unit-cell volume =    852.66422 a.u.^3 (   126.35180 Ang^3 )
     density =      2.63077 g/cm^3

CELL_PARAMETERS (alat= 12.16200000)
   0.391902209  -0.226264846   0.890875461
   0.000000000   0.452529692   0.890875461
  -0.391902209  -0.226264846   0.890875461

ATOMIC_POSITIONS (crystal)
Ca       0.500000000   0.500000000   0.500000000
Ca       0.000000000   0.000000000   0.000000000
C        0.250000000   0.250000000   0.250000000
C        0.750000000   0.750000000   0.750000000
O        0.506907648   0.993092352   0.250000000
O        0.993092352   0.250000000   0.506907648
O        0.250000000   0.506907648   0.993092352
O        0.006907648   0.750000000   0.493092352
O        0.750000000   0.493092352   0.006907648
O        0.493092352   0.006907648   0.750000000



     Writing output data file CCO_k.save/
     NEW-OLD atomic charge density approx. for the potential

     Check: negative core charge=   -0.000003
     extrapolated charge   63.84182, renormalised to   64.00000

     total cpu time spent up to now is      496.8 secs

     Self-consistent Calculation

     iteration #  1     ecut=    50.00 Ry     beta= 0.70
     CG style diagonalization
     c_bands:  1 eigenvalues not converged
     c_bands:  1 eigenvalues not converged
     ethr =  1.00E-06,  avg # of iterations =  3.5

     total cpu time spent up to now is      552.9 secs

     total energy              =    -367.42881124 Ry
     Harris-Foulkes estimate   =    -367.71305713 Ry
     estimated scf accuracy    <       0.00115948 Ry

     iteration #  2     ecut=    50.00 Ry     beta= 0.70
     CG style diagonalization
     ethr =  1.81E-06,  avg # of iterations =  4.9

     total cpu time spent up to now is      636.4 secs

     total energy              =    -367.43023596 Ry
     Harris-Foulkes estimate   =    -367.43147978 Ry
     estimated scf accuracy    <       0.00340184 Ry

     iteration #  3     ecut=    50.00 Ry     beta= 0.70
     CG style diagonalization
     ethr =  1.81E-06,  avg # of iterations =  3.8

     total cpu time spent up to now is      702.2 secs

     total energy              =    -367.43039389 Ry
     Harris-Foulkes estimate   =    -367.43049252 Ry
     estimated scf accuracy    <       0.00039096 Ry

     iteration #  4     ecut=    50.00 Ry     beta= 0.70
     CG style diagonalization
     ethr =  6.11E-07,  avg # of iterations =  3.0

     total cpu time spent up to now is      755.9 secs

     total energy              =    -367.43036000 Ry
     Harris-Foulkes estimate   =    -367.43040623 Ry
     estimated scf accuracy    <       0.00016993 Ry

     iteration #  5     ecut=    50.00 Ry     beta= 0.70
     CG style diagonalization
     ethr =  2.66E-07,  avg # of iterations =  3.1

     total cpu time spent up to now is      810.6 secs

     total energy              =    -367.43035313 Ry
     Harris-Foulkes estimate   =    -367.43036917 Ry
     estimated scf accuracy    <       0.00004837 Ry

     iteration #  6     ecut=    50.00 Ry     beta= 0.70
     CG style diagonalization
     ethr =  7.56E-08,  avg # of iterations =  3.4

     total cpu time spent up to now is      870.2 secs

     End of self-consistent calculation

     Number of k-points >= 100: set verbosity='high' to print the bands.

     highest occupied level (ev):     4.5077

!    total energy              =    -367.43035309 Ry
     Harris-Foulkes estimate   =    -367.43035800 Ry
     estimated scf accuracy    <       0.00000619 Ry

     The total energy is the sum of the following terms:

     one-electron contribution =    -147.80404103 Ry
     hartree contribution      =     103.32501429 Ry
     xc contribution           =     -75.27564401 Ry
     ewald contribution        =    -247.67568234 Ry

     convergence has been achieved in   6 iterations

     Forces acting on atoms (cartesian axes, Ry/au):

     atom    1 type  1   force =     0.00000000    0.00000000    0.00000000
     atom    2 type  1   force =     0.00000000    0.00000000    0.00000000
     atom    3 type  2   force =     0.00000000    0.00000000    0.00000000
     atom    4 type  2   force =    -0.00000000    0.00000000   -0.00000000
     atom    5 type  3   force =     0.00086946   -0.00150595   -0.00000000
     atom    6 type  3   force =    -0.00173892   -0.00000000    0.00000000
     atom    7 type  3   force =     0.00086946    0.00150595    0.00000000
     atom    8 type  3   force =     0.00173892   -0.00000000    0.00000000
     atom    9 type  3   force =    -0.00086946   -0.00150595   -0.00000000
     atom   10 type  3   force =    -0.00086946    0.00150595    0.00000000

     Total force =     0.004259     Total SCF correction =     0.001715
     SCF correction compared to forces is large: reduce conv_thr to get better values


     Computing stress (Cartesian axis) and pressure

          total   stress  (Ry/bohr**3)                   (kbar)     P=   -2.03
  -0.00000838  -0.00000000  -0.00000000         -1.23     -0.00     -0.00
   0.00000000  -0.00000838  -0.00000000          0.00     -1.23     -0.00
  -0.00000000  -0.00000000  -0.00002470         -0.00     -0.00     -3.63


     number of scf cycles    =   2
     number of bfgs steps    =   1

     enthalpy old            =    -367.4303607144 Ry
     enthalpy new            =    -367.4303530894 Ry

     CASE: enthalpy_new > enthalpy_old

     new trust radius        =       0.0022495082 bohr
     new conv_thr            =       0.0000100000 Ry

     new unit-cell volume =    853.82166 a.u.^3 (   126.52331 Ang^3 )
     density =      2.62720 g/cm^3

CELL_PARAMETERS (alat= 12.16200000)
   0.392086219  -0.226371084   0.891247634
   0.000000000   0.452742168   0.891247634
  -0.392086219  -0.226371084   0.891247634

ATOMIC_POSITIONS (crystal)
Ca       0.500000000   0.500000000   0.500000000
Ca       0.000000000   0.000000000   0.000000000
C        0.250000000   0.250000000   0.250000000
C        0.750000000   0.750000000   0.750000000
O        0.506903581   0.993096419   0.250000000
O        0.993096419   0.250000000   0.506903581
O        0.250000000   0.506903581   0.993096419
O        0.006903581   0.750000000   0.493096419
O        0.750000000   0.493096419   0.006903581
O        0.493096419   0.006903581   0.750000000



     Writing output data file CCO_k.save/
     NEW-OLD atomic charge density approx. for the potential

     Check: negative core charge=   -0.000003
     extrapolated charge   64.08674, renormalised to   64.00000

     total cpu time spent up to now is      873.7 secs

     Self-consistent Calculation

     iteration #  1     ecut=    50.00 Ry     beta= 0.70
     CG style diagonalization
     ethr =  1.00E-06,  avg # of iterations =  2.5

     total cpu time spent up to now is      913.5 secs

     total energy              =    -367.43002248 Ry
     Harris-Foulkes estimate   =    -367.27525019 Ry
     estimated scf accuracy    <       0.00019103 Ry

     iteration #  2     ecut=    50.00 Ry     beta= 0.70
     CG style diagonalization
     ethr =  2.98E-07,  avg # of iterations =  5.2

     total cpu time spent up to now is     1001.5 secs

     total energy              =    -367.43036697 Ry
     Harris-Foulkes estimate   =    -367.43061733 Ry
     estimated scf accuracy    <       0.00075032 Ry

     iteration #  3     ecut=    50.00 Ry     beta= 0.70
     CG style diagonalization
     ethr =  2.98E-07,  avg # of iterations =  3.8

     total cpu time spent up to now is     1066.8 secs

     total energy              =    -367.43037969 Ry
     Harris-Foulkes estimate   =    -367.43041150 Ry
     estimated scf accuracy    <       0.00012931 Ry

     iteration #  4     ecut=    50.00 Ry     beta= 0.70
     CG style diagonalization
     ethr =  2.02E-07,  avg # of iterations =  3.0

     total cpu time spent up to now is     1120.6 secs

     total energy              =    -367.43036420 Ry
     Harris-Foulkes estimate   =    -367.43038283 Ry
     estimated scf accuracy    <       0.00005623 Ry

     iteration #  5     ecut=    50.00 Ry     beta= 0.70
     CG style diagonalization
     ethr =  8.79E-08,  avg # of iterations =  3.3

     total cpu time spent up to now is     1179.5 secs

     End of self-consistent calculation

     Number of k-points >= 100: set verbosity='high' to print the bands.

     highest occupied level (ev):     4.4829

!    total energy              =    -367.43036216 Ry
     Harris-Foulkes estimate   =    -367.43036870 Ry
     estimated scf accuracy    <       0.00000826 Ry

     The total energy is the sum of the following terms:

     one-electron contribution =    -148.01263880 Ry
     hartree contribution      =     103.42627042 Ry
     xc contribution           =     -75.27949421 Ry
     ewald contribution        =    -247.56449956 Ry

     convergence has been achieved in   5 iterations

     Forces acting on atoms (cartesian axes, Ry/au):

     atom    1 type  1   force =    -0.00000000   -0.00000000   -0.00000000
     atom    2 type  1   force =     0.00000000    0.00000000    0.00000000
     atom    3 type  2   force =    -0.00000000    0.00000000   -0.00000000
     atom    4 type  2   force =     0.00000000    0.00000000    0.00000000
     atom    5 type  3   force =     0.00063023   -0.00109159   -0.00000000
     atom    6 type  3   force =    -0.00126046    0.00000000   -0.00000000
     atom    7 type  3   force =     0.00063023    0.00109159    0.00000000
     atom    8 type  3   force =     0.00126046   -0.00000000    0.00000000
     atom    9 type  3   force =    -0.00063023   -0.00109159   -0.00000000
     atom   10 type  3   force =    -0.00063023    0.00109159    0.00000000

     Total force =     0.003087     Total SCF correction =     0.003117
     SCF correction compared to forces is large: reduce conv_thr to get better values


     Computing stress (Cartesian axis) and pressure

          total   stress  (Ry/bohr**3)                   (kbar)     P=    5.28
   0.00003335  -0.00000000   0.00000000          4.91     -0.00      0.00
   0.00000000   0.00003335   0.00000000          0.00      4.91      0.00
  -0.00000000   0.00000000   0.00004108         -0.00      0.00      6.04


     number of scf cycles    =   3
     number of bfgs steps    =   1

     enthalpy old            =    -367.4303607144 Ry
     enthalpy new            =    -367.4303621624 Ry

     CASE: enthalpy_new < enthalpy_old

     new trust radius        =       0.0014409735 bohr
     new conv_thr            =       0.0000001000 Ry

     new unit-cell volume =    854.24170 a.u.^3 (   126.58556 Ang^3 )
     density =      2.62591 g/cm^3

CELL_PARAMETERS (alat= 12.16200000)
   0.392134310  -0.226398850   0.891467391
   0.000000000   0.452797699   0.891467391
  -0.392134310  -0.226398850   0.891467391

ATOMIC_POSITIONS (crystal)
Ca       0.500000000   0.500000000   0.500000000
Ca       0.000000000   0.000000000   0.000000000
C        0.250000000   0.250000000   0.250000000
C        0.750000000   0.750000000   0.750000000
O        0.506969687   0.993030313   0.250000000
O        0.993030313   0.250000000   0.506969687
O        0.250000000   0.506969687   0.993030313
O        0.006969687   0.750000000   0.493030313
O        0.750000000   0.493030313   0.006969687
O        0.493030313   0.006969687   0.750000000



     Writing output data file CCO_k.save/
     NEW-OLD atomic charge density approx. for the potential

     Check: negative core charge=   -0.000003
     extrapolated charge   64.03146, renormalised to   64.00000

     total cpu time spent up to now is     1183.0 secs

     Self-consistent Calculation

     iteration #  1     ecut=    50.00 Ry     beta= 0.70
     CG style diagonalization
     ethr =  1.00E-06,  avg # of iterations =  2.7

     total cpu time spent up to now is     1225.6 secs

     total energy              =    -367.43024571 Ry
     Harris-Foulkes estimate   =    -367.37410715 Ry
     estimated scf accuracy    <       0.00012811 Ry

     iteration #  2     ecut=    50.00 Ry     beta= 0.70
     CG style diagonalization
     ethr =  2.00E-07,  avg # of iterations =  4.7

     total cpu time spent up to now is     1306.1 secs

     total energy              =    -367.43034765 Ry
     Harris-Foulkes estimate   =    -367.43044374 Ry
     estimated scf accuracy    <       0.00023240 Ry

     iteration #  3     ecut=    50.00 Ry     beta= 0.70
     CG style diagonalization
     ethr =  2.00E-07,  avg # of iterations =  3.7

     total cpu time spent up to now is     1371.1 secs

     total energy              =    -367.43036800 Ry
     Harris-Foulkes estimate   =    -367.43037145 Ry
     estimated scf accuracy    <       0.00001283 Ry

     iteration #  4     ecut=    50.00 Ry     beta= 0.70
     CG style diagonalization
     ethr =  2.01E-08,  avg # of iterations =  3.2

     total cpu time spent up to now is     1428.4 secs

     total energy              =    -367.43036744 Ry
     Harris-Foulkes estimate   =    -367.43036878 Ry
     estimated scf accuracy    <       0.00000625 Ry

     iteration #  5     ecut=    50.00 Ry     beta= 0.70
     CG style diagonalization
     ethr =  9.76E-09,  avg # of iterations =  3.0

     total cpu time spent up to now is     1482.3 secs

     total energy              =    -367.43036640 Ry
     Harris-Foulkes estimate   =    -367.43036768 Ry
     estimated scf accuracy    <       0.00000261 Ry

     iteration #  6     ecut=    50.00 Ry     beta= 0.70
     CG style diagonalization
     ethr =  4.07E-09,  avg # of iterations =  3.6

     total cpu time spent up to now is     1545.1 secs

     End of self-consistent calculation

     Number of k-points >= 100: set verbosity='high' to print the bands.

     highest occupied level (ev):     4.4828

!    total energy              =    -367.43036694 Ry
     Harris-Foulkes estimate   =    -367.43036696 Ry
     estimated scf accuracy    <       0.00000003 Ry

     The total energy is the sum of the following terms:

     one-electron contribution =    -148.01698202 Ry
     hartree contribution      =     103.39967789 Ry
     xc contribution           =     -75.26819491 Ry
     ewald contribution        =    -247.54486790 Ry

     convergence has been achieved in   6 iterations

     Forces acting on atoms (cartesian axes, Ry/au):

     atom    1 type  1   force =     0.00000000   -0.00000000   -0.00000000
     atom    2 type  1   force =     0.00000000   -0.00000000   -0.00000000
     atom    3 type  2   force =     0.00000000    0.00000000    0.00000000
     atom    4 type  2   force =     0.00000000    0.00000000   -0.00000000
     atom    5 type  3   force =    -0.00009102    0.00015766    0.00000000
     atom    6 type  3   force =     0.00018205    0.00000000   -0.00000000
     atom    7 type  3   force =    -0.00009102   -0.00015766   -0.00000000
     atom    8 type  3   force =    -0.00018205   -0.00000000    0.00000000
     atom    9 type  3   force =     0.00009102    0.00015766    0.00000000
     atom   10 type  3   force =     0.00009102   -0.00015766   -0.00000000

     Total force =     0.000446     Total SCF correction =     0.000534
     SCF correction compared to forces is large: reduce conv_thr to get better values


     Computing stress (Cartesian axis) and pressure

          total   stress  (Ry/bohr**3)                   (kbar)     P=   -1.08
  -0.00001061  -0.00000000   0.00000000         -1.56     -0.00      0.00
  -0.00000000  -0.00001061  -0.00000000         -0.00     -1.56     -0.00
   0.00000000  -0.00000000  -0.00000077          0.00     -0.00     -0.11


     number of scf cycles    =   4
     number of bfgs steps    =   2

     enthalpy old            =    -367.4303621624 Ry
     enthalpy new            =    -367.4303669386 Ry

     CASE: enthalpy_new < enthalpy_old

     new trust radius        =       0.0007730905 bohr
     new conv_thr            =       0.0000001000 Ry

     new unit-cell volume =    854.17663 a.u.^3 (   126.57592 Ang^3 )
     density =      2.62611 g/cm^3

CELL_PARAMETERS (alat= 12.16200000)
   0.392093447  -0.226375257   0.891585291
   0.000000000   0.452750515   0.891585291
  -0.392093447  -0.226375257   0.891585291

ATOMIC_POSITIONS (crystal)
Ca       0.500000000   0.500000000   0.500000000
Ca       0.000000000  -0.000000000   0.000000000
C        0.250000000   0.250000000   0.250000000
C        0.750000000   0.750000000   0.750000000
O        0.506969948   0.993030052   0.250000000
O        0.993030052   0.250000000   0.506969948
O        0.250000000   0.506969948   0.993030052
O        0.006969948   0.750000000   0.493030052
O        0.750000000   0.493030052   0.006969948
O        0.493030052   0.006969948   0.750000000



     Writing output data file CCO_k.save/
     NEW-OLD atomic charge density approx. for the potential

     Check: negative core charge=   -0.000003
     extrapolated charge   63.99513, renormalised to   64.00000

     total cpu time spent up to now is     1548.5 secs

     Self-consistent Calculation

     iteration #  1     ecut=    50.00 Ry     beta= 0.70
     CG style diagonalization
     ethr =  1.00E-06,  avg # of iterations =  2.0

     Threshold (ethr) on eigenvalues was too large:
     Diagonalizing with lowered threshold

     CG style diagonalization
     ethr =  1.75E-09,  avg # of iterations =  4.0

     total cpu time spent up to now is     1644.8 secs

     total energy              =    -367.43036654 Ry
     Harris-Foulkes estimate   =    -367.43908848 Ry
     estimated scf accuracy    <       0.00000194 Ry

     iteration #  2     ecut=    50.00 Ry     beta= 0.70
     CG style diagonalization
     ethr =  3.03E-09,  avg # of iterations =  4.8

     total cpu time spent up to now is     1727.5 secs

     total energy              =    -367.43036829 Ry
     Harris-Foulkes estimate   =    -367.43036989 Ry
     estimated scf accuracy    <       0.00000397 Ry

     iteration #  3     ecut=    50.00 Ry     beta= 0.70
     CG style diagonalization
     ethr =  3.03E-09,  avg # of iterations =  3.7

     total cpu time spent up to now is     1793.0 secs

     total energy              =    -367.43036856 Ry
     Harris-Foulkes estimate   =    -367.43036866 Ry
     estimated scf accuracy    <       0.00000030 Ry

     iteration #  4     ecut=    50.00 Ry     beta= 0.70
     CG style diagonalization
     ethr =  4.72E-10,  avg # of iterations =  3.2

     total cpu time spent up to now is     1850.6 secs

     End of self-consistent calculation

     Number of k-points >= 100: set verbosity='high' to print the bands.

     highest occupied level (ev):     4.4844

!    total energy              =    -367.43036851 Ry
     Harris-Foulkes estimate   =    -367.43036858 Ry
     estimated scf accuracy    <       0.00000009 Ry

     The total energy is the sum of the following terms:

     one-electron contribution =    -148.02657059 Ry
     hartree contribution      =     103.40551361 Ry
     xc contribution           =     -75.26915652 Ry
     ewald contribution        =    -247.54015501 Ry

     convergence has been achieved in   4 iterations

     Forces acting on atoms (cartesian axes, Ry/au):

     atom    1 type  1   force =     0.00000000    0.00000000    0.00000000
     atom    2 type  1   force =     0.00000000    0.00000000    0.00000000
     atom    3 type  2   force =     0.00000000   -0.00000000    0.00000000
     atom    4 type  2   force =     0.00000000    0.00000000    0.00000000
     atom    5 type  3   force =     0.00001323   -0.00002292   -0.00000000
     atom    6 type  3   force =    -0.00002646   -0.00000000    0.00000000
     atom    7 type  3   force =     0.00001323    0.00002292    0.00000000
     atom    8 type  3   force =     0.00002646    0.00000000   -0.00000000
     atom    9 type  3   force =    -0.00001323   -0.00002292   -0.00000000
     atom   10 type  3   force =    -0.00001323    0.00002292    0.00000000

     Total force =     0.000065     Total SCF correction =     0.000307
     SCF correction compared to forces is large: reduce conv_thr to get better values


     Computing stress (Cartesian axis) and pressure

          total   stress  (Ry/bohr**3)                   (kbar)     P=   -1.06
  -0.00000947  -0.00000000  -0.00000000         -1.39     -0.00     -0.00
   0.00000000  -0.00000947  -0.00000000          0.00     -1.39     -0.00
  -0.00000000  -0.00000000  -0.00000277         -0.00     -0.00     -0.41


     number of scf cycles    =   5
     number of bfgs steps    =   3

     enthalpy old            =    -367.4303669386 Ry
     enthalpy new            =    -367.4303685080 Ry

     CASE: enthalpy_new < enthalpy_old

     new trust radius        =       0.0011594383 bohr
     new conv_thr            =       0.0000001000 Ry

     new unit-cell volume =    854.00806 a.u.^3 (   126.55094 Ang^3 )
     density =      2.62663 g/cm^3

CELL_PARAMETERS (alat= 12.16200000)
   0.392015880  -0.226330474   0.891762142
   0.000000000   0.452660947   0.891762142
  -0.392015880  -0.226330474   0.891762142

ATOMIC_POSITIONS (crystal)
Ca       0.500000000   0.500000000   0.500000000
Ca       0.000000000   0.000000000  -0.000000000
C        0.250000000   0.250000000   0.250000000
C        0.750000000   0.750000000   0.750000000
O        0.506996246   0.993003754   0.250000000
O        0.993003754   0.250000000   0.506996246
O        0.250000000   0.506996246   0.993003754
O        0.006996246   0.750000000   0.493003754
O        0.750000000   0.493003754   0.006996246
O        0.493003754   0.006996246   0.750000000



     Writing output data file CCO_k.save/
     NEW-OLD atomic charge density approx. for the potential

     Check: negative core charge=   -0.000003
     extrapolated charge   63.98737, renormalised to   64.00000

     total cpu time spent up to now is     1854.0 secs

     Self-consistent Calculation

     iteration #  1     ecut=    50.00 Ry     beta= 0.70
     CG style diagonalization
     ethr =  1.00E-06,  avg # of iterations =  2.0

     Threshold (ethr) on eigenvalues was too large:
     Diagonalizing with lowered threshold

     CG style diagonalization
     c_bands:  1 eigenvalues not converged
     ethr =  7.57E-09,  avg # of iterations =  3.6

     total cpu time spent up to now is     1944.2 secs

     total energy              =    -367.43035965 Ry
     Harris-Foulkes estimate   =    -367.45296275 Ry
     estimated scf accuracy    <       0.00000881 Ry

     iteration #  2     ecut=    50.00 Ry     beta= 0.70
     CG style diagonalization
     ethr =  1.38E-08,  avg # of iterations =  5.0

     total cpu time spent up to now is     2028.2 secs

     total energy              =    -367.43036931 Ry
     Harris-Foulkes estimate   =    -367.43037866 Ry
     estimated scf accuracy    <       0.00002538 Ry

     iteration #  3     ecut=    50.00 Ry     beta= 0.70
     CG style diagonalization
     ethr =  1.38E-08,  avg # of iterations =  3.8

     total cpu time spent up to now is     2094.0 secs

     total energy              =    -367.43037076 Ry
     Harris-Foulkes estimate   =    -367.43037137 Ry
     estimated scf accuracy    <       0.00000258 Ry

     iteration #  4     ecut=    50.00 Ry     beta= 0.70
     CG style diagonalization
     ethr =  4.03E-09,  avg # of iterations =  3.0

     total cpu time spent up to now is     2147.8 secs

     total energy              =    -367.43037045 Ry
     Harris-Foulkes estimate   =    -367.43037084 Ry
     estimated scf accuracy    <       0.00000122 Ry

     iteration #  5     ecut=    50.00 Ry     beta= 0.70
     CG style diagonalization
     ethr =  1.90E-09,  avg # of iterations =  3.3

     total cpu time spent up to now is     2206.7 secs

     total energy              =    -367.43037047 Ry
     Harris-Foulkes estimate   =    -367.43037055 Ry
     estimated scf accuracy    <       0.00000018 Ry

     iteration #  6     ecut=    50.00 Ry     beta= 0.70
     CG style diagonalization
     ethr =  2.84E-10,  avg # of iterations =  3.6

     total cpu time spent up to now is     2269.3 secs

     End of self-consistent calculation

     Number of k-points >= 100: set verbosity='high' to print the bands.

     highest occupied level (ev):     4.4862

!    total energy              =    -367.43037050 Ry
     Harris-Foulkes estimate   =    -367.43037050 Ry
     estimated scf accuracy    <          1.8E-09 Ry

     The total energy is the sum of the following terms:

     one-electron contribution =    -148.01812614 Ry
     hartree contribution      =     103.40753500 Ry
     xc contribution           =     -75.27129629 Ry
     ewald contribution        =    -247.54848307 Ry

     convergence has been achieved in   6 iterations

     Forces acting on atoms (cartesian axes, Ry/au):

     atom    1 type  1   force =    -0.00000000   -0.00000000   -0.00000000
     atom    2 type  1   force =     0.00000000    0.00000000    0.00000000
     atom    3 type  2   force =     0.00000000    0.00000000    0.00000000
     atom    4 type  2   force =     0.00000000    0.00000000    0.00000000
     atom    5 type  3   force =     0.00014639   -0.00025355   -0.00000000
     atom    6 type  3   force =    -0.00029278   -0.00000000    0.00000000
     atom    7 type  3   force =     0.00014639    0.00025355    0.00000000
     atom    8 type  3   force =     0.00029278    0.00000000   -0.00000000
     atom    9 type  3   force =    -0.00014639   -0.00025355   -0.00000000
     atom   10 type  3   force =    -0.00014639    0.00025355    0.00000000

     Total force =     0.000717     Total SCF correction =     0.000019


     Computing stress (Cartesian axis) and pressure

          total   stress  (Ry/bohr**3)                   (kbar)     P=   -0.22
  -0.00000272  -0.00000000   0.00000000         -0.40     -0.00      0.00
   0.00000000  -0.00000272  -0.00000000          0.00     -0.40     -0.00
   0.00000000  -0.00000000   0.00000095          0.00     -0.00      0.14


     bfgs converged in   6 scf cycles and   4 bfgs steps
     (criteria: energy <  1.0E-04 Ry, force <  1.0E-03Ry/Bohr, cell <  5.0E-01kbar)

     End of BFGS Geometry Optimization

     Final enthalpy =    -367.4303704994 Ry
Begin final coordinates
     new unit-cell volume =    854.00806 a.u.^3 (   126.55094 Ang^3 )
     density =      2.62663 g/cm^3

CELL_PARAMETERS (alat= 12.16200000)
   0.392015880  -0.226330474   0.891762142
   0.000000000   0.452660947   0.891762142
  -0.392015880  -0.226330474   0.891762142

ATOMIC_POSITIONS (crystal)
Ca       0.500000000   0.500000000   0.500000000
Ca       0.000000000   0.000000000  -0.000000000
C        0.250000000   0.250000000   0.250000000
C        0.750000000   0.750000000   0.750000000
O        0.506996246   0.993003754   0.250000000
O        0.993003754   0.250000000   0.506996246
O        0.250000000   0.506996246   0.993003754
O        0.006996246   0.750000000   0.493003754
O        0.750000000   0.493003754   0.006996246
O        0.493003754   0.006996246   0.750000000
End final coordinates



     Writing output data file CCO_k.save/

     A final scf calculation at the relaxed structure.
     The G-vectors are recalculated for the final unit cell
     Results may differ from those at the preceding step.
 
     Parallelization info
     --------------------
     sticks:   dense  smooth     PW     G-vecs:    dense   smooth      PW
     Min           5       5      1                  131      131      18
     Max           6       6      2                  141      141      26
     Sum        1703    1703    513                40837    40837    6771
 


     bravais-lattice index     =            5
     lattice parameter (alat)  =      12.1620  a.u.
     unit-cell volume          =     854.0081 (a.u.)^3
     number of atoms/cell      =           10
     number of atomic types    =            3
     number of electrons       =        64.00
     number of Kohn-Sham states=           32
     kinetic-energy cutoff     =      50.0000  Ry
     charge density cutoff     =     200.0000  Ry
     convergence threshold     =      1.0E-07
     mixing beta               =       0.7000
     number of iterations used =            8  plain     mixing
     Exchange-correlation      = SLA  PW   PBE  PBE ( 1  4  3  4 0 0)

     celldm(1)=  12.162000  celldm(2)=   0.000000  celldm(3)=   0.000000
     celldm(4)=   0.692300  celldm(5)=   0.000000  celldm(6)=   0.000000

     crystal axes: (cart. coord. in units of alat)
               a(1) = (   0.392016  -0.226330   0.891762 )  
               a(2) = (   0.000000   0.452661   0.891762 )  
               a(3) = (  -0.392016  -0.226330   0.891762 )  

     reciprocal axes: (cart. coord. in units 2 pi/alat)
               b(1) = (  1.275459 -0.736386  0.373792 )  
               b(2) = (  0.000000  1.472773  0.373792 )  
               b(3) = ( -1.275459 -0.736386  0.373792 )  


     PseudoPot. # 1 for Ca read from file:
     ./Ca_PBE.UPF
     MD5 check sum: 403a4c14b9e4d4dfdc3024c9a3812218
     Pseudo is Ultrasoft + core correction, Zval = 10.0
     Generated by new atomic code, or converted to UPF format
     Using radial grid of  845 points,  6 beta functions with: 
                l(1) =   0
                l(2) =   0
                l(3) =   1
                l(4) =   1
                l(5) =   2
                l(6) =   2
     Q(r) pseudized with  8 coefficients,  rinner =    1.500   1.500   1.500
                                                       1.500   1.500

     PseudoPot. # 2 for C  read from file:
     ./C_PBE.UPF
     MD5 check sum: d1aef80898a10debaa0f26306b886e00
     Pseudo is Ultrasoft + core correction, Zval =  4.0
     Generated by new atomic code, or converted to UPF format
     Using radial grid of  721 points,  4 beta functions with: 
                l(1) =   0
                l(2) =   0
                l(3) =   1
                l(4) =   1
     Q(r) pseudized with  8 coefficients,  rinner =    1.100   1.100   1.100


     PseudoPot. # 3 for O  read from file:
     ./O_PBE.UPF
     MD5 check sum: 734c27235a0248c51dbae37a1fbe46ec
     Pseudo is Ultrasoft + core correction, Zval =  6.0
     Generated by new atomic code, or converted to UPF format
     Using radial grid of  737 points,  5 beta functions with: 
                l(1) =   0
                l(2) =   0
                l(3) =   1
                l(4) =   1
                l(5) =   2
     Q(r) pseudized with  8 coefficients,  rinner =    0.900   0.900   0.900
                                                       0.900   0.900

     atomic species   valence    mass     pseudopotential
        Ca            10.00    40.07800     Ca( 1.00)
        C              4.00    12.01070     C ( 1.00)
        O              6.00    16.00000     O ( 1.00)

     12 Sym. Ops., with inversion, found ( 6 have fractional translation)



   Cartesian axes

     site n.     atom                  positions (alat units)
         1           Ca  tau(   1) = (  -0.0000000  -0.0000000   1.3376432  )
         2           Ca  tau(   2) = (   0.0000000   0.0000000   0.0000000  )
         3           C   tau(   3) = (  -0.0000000  -0.0000000   0.6688216  )
         4           C   tau(   4) = (  -0.0000000  -0.0000000   2.0064648  )
         5           O   tau(   5) = (   0.1007466   0.2781627   1.5605837  )
         6           O   tau(   6) = (   0.1905227  -0.2263305   1.5605837  )
         7           O   tau(   7) = (  -0.2912693  -0.0518322   1.5605837  )
         8           O   tau(   8) = (  -0.1905227   0.2263305   1.1147027  )
         9           O   tau(   9) = (   0.2912693   0.0518322   1.1147027  )
        10           O   tau(  10) = (  -0.1007466  -0.2781627   1.1147027  )

     number of k points=   146

     Number of k-points >= 100: set verbosity='high' to print them.

     Dense  grid:    40837 G-vectors     FFT dimensions: (  60,  60,  60)

     Estimated max dynamical RAM per process >      15.17 MB

     Estimated total dynamical RAM >       4.45 GB
     Message from routine sym_rho_init:
     some processors have no G-vectors for symmetrization
     Message from routine sym_rho_init:
     some processors have no G-vectors for symmetrization
     Message from routine sym_rho_init:
     some processors have no G-vectors for symmetrization
     Message from routine sym_rho_init:
     some processors have no G-vectors for symmetrization
     Message from routine sym_rho_init:
     some processors have no G-vectors for symmetrization
     Message from routine sym_rho_init:
     some processors have no G-vectors for symmetrization
     Message from routine sym_rho_init:
     some processors have no G-vectors for symmetrization
     Message from routine sym_rho_init:
     some processors have no G-vectors for symmetrization
     Message from routine sym_rho_init:
     some processors have no G-vectors for symmetrization
     Message from routine sym_rho_init:
     some processors have no G-vectors for symmetrization
     Message from routine sym_rho_init:
     some processors have no G-vectors for symmetrization
     Message from routine sym_rho_init:
     some processors have no G-vectors for symmetrization
     Message from routine sym_rho_init:
     some processors have no G-vectors for symmetrization
     Message from routine sym_rho_init:
     some processors have no G-vectors for symmetrization
     Message from routine sym_rho_init:
     some processors have no G-vectors for symmetrization
     Message from routine sym_rho_init:
     some processors have no G-vectors for symmetrization
     Message from routine sym_rho_init:
     some processors have no G-vectors for symmetrization
     Message from routine sym_rho_init:
     some processors have no G-vectors for symmetrization
     Message from routine sym_rho_init:
     some processors have no G-vectors for symmetrization
     Message from routine sym_rho_init:
     some processors have no G-vectors for symmetrization
     Message from routine sym_rho_init:
     some processors have no G-vectors for symmetrization
     Message from routine sym_rho_init:
     some processors have no G-vectors for symmetrization
     Message from routine sym_rho_init:
     some processors have no G-vectors for symmetrization
     Message from routine sym_rho_init:
     some processors have no G-vectors for symmetrization
     Message from routine sym_rho_init:
     some processors have no G-vectors for symmetrization
     Message from routine sym_rho_init:
     some processors have no G-vectors for symmetrization
     Message from routine sym_rho_init:
     some processors have no G-vectors for symmetrization
     Message from routine sym_rho_init:
     some processors have no G-vectors for symmetrization
     Message from routine sym_rho_init:
     some processors have no G-vectors for symmetrization
     Message from routine sym_rho_init:
     some processors have no G-vectors for symmetrization
     Message from routine sym_rho_init:
     some processors have no G-vectors for symmetrization
     Message from routine sym_rho_init:
     some processors have no G-vectors for symmetrization
     Message from routine sym_rho_init:
     some processors have no G-vectors for symmetrization
     Message from routine sym_rho_init:
     some processors have no G-vectors for symmetrization
     Message from routine sym_rho_init:
     some processors have no G-vectors for symmetrization
     Message from routine sym_rho_init:
     some processors have no G-vectors for symmetrization
     Message from routine sym_rho_init:
     some processors have no G-vectors for symmetrization
     Message from routine sym_rho_init:
     some processors have no G-vectors for symmetrization
     Message from routine sym_rho_init:
     some processors have no G-vectors for symmetrization
     Message from routine sym_rho_init:
     some processors have no G-vectors for symmetrization
     Message from routine sym_rho_init:
     some processors have no G-vectors for symmetrization
     Message from routine sym_rho_init:
     some processors have no G-vectors for symmetrization
     Message from routine sym_rho_init:
     some processors have no G-vectors for symmetrization
     Message from routine sym_rho_init:
     some processors have no G-vectors for symmetrization
     Message from routine sym_rho_init:
     some processors have no G-vectors for symmetrization
     Message from routine sym_rho_init:
     some processors have no G-vectors for symmetrization
     Message from routine sym_rho_init:
     some processors have no G-vectors for symmetrization
     Message from routine sym_rho_init:
     some processors have no G-vectors for symmetrization
     Message from routine sym_rho_init:
     some processors have no G-vectors for symmetrization
     Message from routine sym_rho_init:
     some processors have no G-vectors for symmetrization
     Message from routine sym_rho_init:
     some processors have no G-vectors for symmetrization
     Message from routine sym_rho_init:
     some processors have no G-vectors for symmetrization
     Message from routine sym_rho_init:
     some processors have no G-vectors for symmetrization
     Message from routine sym_rho_init:
     some processors have no G-vectors for symmetrization
     Message from routine sym_rho_init:
     some processors have no G-vectors for symmetrization
     Message from routine sym_rho_init:
     some processors have no G-vectors for symmetrization
     Message from routine sym_rho_init:
     some processors have no G-vectors for symmetrization
     Message from routine sym_rho_init:
     some processors have no G-vectors for symmetrization
     Message from routine sym_rho_init:
     some processors have no G-vectors for symmetrization
     Message from routine sym_rho_init:
     some processors have no G-vectors for symmetrization
     Message from routine sym_rho_init:
     some processors have no G-vectors for symmetrization
     Message from routine sym_rho_init:
     some processors have no G-vectors for symmetrization
     Message from routine sym_rho_init:
     some processors have no G-vectors for symmetrization
     Message from routine sym_rho_init:
     some processors have no G-vectors for symmetrization
     Message from routine sym_rho_init:
     some processors have no G-vectors for symmetrization
     Message from routine sym_rho_init:
     some processors have no G-vectors for symmetrization
     Message from routine sym_rho_init:
     some processors have no G-vectors for symmetrization
     Message from routine sym_rho_init:
     some processors have no G-vectors for symmetrization
     Message from routine sym_rho_init:
     some processors have no G-vectors for symmetrization
     Message from routine sym_rho_init:
     some processors have no G-vectors for symmetrization
     Message from routine sym_rho_init:
     some processors have no G-vectors for symmetrization
     Message from routine sym_rho_init:
     some processors have no G-vectors for symmetrization
     Message from routine sym_rho_init:
     some processors have no G-vectors for symmetrization
     Message from routine sym_rho_init:
     some processors have no G-vectors for symmetrization
     Message from routine sym_rho_init:
     some processors have no G-vectors for symmetrization
     Message from routine sym_rho_init:
     some processors have no G-vectors for symmetrization
     Message from routine sym_rho_init:
     some processors have no G-vectors for symmetrization
     Message from routine sym_rho_init:
     some processors have no G-vectors for symmetrization
     Message from routine sym_rho_init:
     some processors have no G-vectors for symmetrization
     Message from routine sym_rho_init:
     some processors have no G-vectors for symmetrization
     Message from routine sym_rho_init:
     some processors have no G-vectors for symmetrization
     Message from routine sym_rho_init:
     some processors have no G-vectors for symmetrization
     Message from routine sym_rho_init:
     some processors have no G-vectors for symmetrization
     Message from routine sym_rho_init:
     some processors have no G-vectors for symmetrization
     Message from routine sym_rho_init:
     some processors have no G-vectors for symmetrization
     Message from routine sym_rho_init:
     some processors have no G-vectors for symmetrization
     Message from routine sym_rho_init:
     some processors have no G-vectors for symmetrization
     Message from routine sym_rho_init:
     some processors have no G-vectors for symmetrization
     Message from routine sym_rho_init:
     some processors have no G-vectors for symmetrization
     Message from routine sym_rho_init:
     some processors have no G-vectors for symmetrization
     Message from routine sym_rho_init:
     some processors have no G-vectors for symmetrization
     Message from routine sym_rho_init:
     some processors have no G-vectors for symmetrization
     Message from routine sym_rho_init:
     some processors have no G-vectors for symmetrization
     Message from routine sym_rho_init:
     some processors have no G-vectors for symmetrization
     Message from routine sym_rho_init:
     some processors have no G-vectors for symmetrization
     Message from routine sym_rho_init:
     some processors have no G-vectors for symmetrization
     Message from routine sym_rho_init:
     some processors have no G-vectors for symmetrization
     Message from routine sym_rho_init:
     some processors have no G-vectors for symmetrization
     Message from routine sym_rho_init:
     some processors have no G-vectors for symmetrization
     Message from routine sym_rho_init:
     some processors have no G-vectors for symmetrization
     Message from routine sym_rho_init:
     some processors have no G-vectors for symmetrization
     Message from routine sym_rho_init:
     some processors have no G-vectors for symmetrization
     Message from routine sym_rho_init:
     some processors have no G-vectors for symmetrization
     Message from routine sym_rho_init:
     some processors have no G-vectors for symmetrization
     Message from routine sym_rho_init:
     some processors have no G-vectors for symmetrization
     Message from routine sym_rho_init:
     some processors have no G-vectors for symmetrization
     Message from routine sym_rho_init:
     some processors have no G-vectors for symmetrization
     Message from routine sym_rho_init:
     some processors have no G-vectors for symmetrization
     Message from routine sym_rho_init:
     some processors have no G-vectors for symmetrization
     Message from routine sym_rho_init:
     some processors have no G-vectors for symmetrization
     Message from routine sym_rho_init:
     some processors have no G-vectors for symmetrization
     Message from routine sym_rho_init:
     some processors have no G-vectors for symmetrization
     Message from routine sym_rho_init:
     some processors have no G-vectors for symmetrization
     Message from routine sym_rho_init:
     some processors have no G-vectors for symmetrization
     Message from routine sym_rho_init:
     some processors have no G-vectors for symmetrization
     Message from routine sym_rho_init:
     some processors have no G-vectors for symmetrization
     Message from routine sym_rho_init:
     some processors have no G-vectors for symmetrization
     Message from routine sym_rho_init:
     some processors have no G-vectors for symmetrization
     Message from routine sym_rho_init:
     some processors have no G-vectors for symmetrization
     Message from routine sym_rho_init:
     some processors have no G-vectors for symmetrization
     Message from routine sym_rho_init:
     some processors have no G-vectors for symmetrization
     Message from routine sym_rho_init:
     some processors have no G-vectors for symmetrization
     Message from routine sym_rho_init:
     some processors have no G-vectors for symmetrization
     Message from routine sym_rho_init:
     some processors have no G-vectors for symmetrization
     Message from routine sym_rho_init:
     some processors have no G-vectors for symmetrization
     Message from routine sym_rho_init:
     some processors have no G-vectors for symmetrization
     Message from routine sym_rho_init:
     some processors have no G-vectors for symmetrization
     Message from routine sym_rho_init:
     some processors have no G-vectors for symmetrization
     Message from routine sym_rho_init:
     some processors have no G-vectors for symmetrization
     Message from routine sym_rho_init:
     some processors have no G-vectors for symmetrization
     Message from routine sym_rho_init:
     some processors have no G-vectors for symmetrization
     Message from routine sym_rho_init:
     some processors have no G-vectors for symmetrization
     Message from routine sym_rho_init:
     some processors have no G-vectors for symmetrization
     Message from routine sym_rho_init:
     some processors have no G-vectors for symmetrization
     Message from routine sym_rho_init:
     some processors have no G-vectors for symmetrization
     Message from routine sym_rho_init:
     some processors have no G-vectors for symmetrization
     Message from routine sym_rho_init:
     some processors have no G-vectors for symmetrization
     Message from routine sym_rho_init:
     some processors have no G-vectors for symmetrization
     Message from routine sym_rho_init:
     some processors have no G-vectors for symmetrization
     Message from routine sym_rho_init:
     some processors have no G-vectors for symmetrization
     Message from routine sym_rho_init:
     some processors have no G-vectors for symmetrization
     Message from routine sym_rho_init:
     some processors have no G-vectors for symmetrization
     Message from routine sym_rho_init:
     some processors have no G-vectors for symmetrization
     Message from routine sym_rho_init:
     some processors have no G-vectors for symmetrization
     Message from routine sym_rho_init:
     some processors have no G-vectors for symmetrization
     Message from routine sym_rho_init:
     some processors have no G-vectors for symmetrization
     Message from routine sym_rho_init:
     some processors have no G-vectors for symmetrization
     Message from routine sym_rho_init:
     some processors have no G-vectors for symmetrization
     Message from routine sym_rho_init:
     some processors have no G-vectors for symmetrization
     Message from routine sym_rho_init:
     some processors have no G-vectors for symmetrization
     Message from routine sym_rho_init:
     some processors have no G-vectors for symmetrization
     Message from routine sym_rho_init:
     some processors have no G-vectors for symmetrization
     Message from routine sym_rho_init:
     some processors have no G-vectors for symmetrization
     Message from routine sym_rho_init:
     some processors have no G-vectors for symmetrization
     Message from routine sym_rho_init:
     some processors have no G-vectors for symmetrization
     Message from routine sym_rho_init:
     some processors have no G-vectors for symmetrization
     Message from routine sym_rho_init:
     some processors have no G-vectors for symmetrization
     Message from routine sym_rho_init:
     some processors have no G-vectors for symmetrization
     Message from routine sym_rho_init:
     some processors have no G-vectors for symmetrization
     Message from routine sym_rho_init:
     some processors have no G-vectors for symmetrization
     Message from routine sym_rho_init:
     some processors have no G-vectors for symmetrization
     Message from routine sym_rho_init:
     some processors have no G-vectors for symmetrization
     Message from routine sym_rho_init:
     some processors have no G-vectors for symmetrization
     Message from routine sym_rho_init:
     some processors have no G-vectors for symmetrization
     Message from routine sym_rho_init:
     some processors have no G-vectors for symmetrization
     Message from routine sym_rho_init:
     some processors have no G-vectors for symmetrization
     Message from routine sym_rho_init:
     some processors have no G-vectors for symmetrization
     Message from routine sym_rho_init:
     some processors have no G-vectors for symmetrization
     Message from routine sym_rho_init:
     some processors have no G-vectors for symmetrization
     Message from routine sym_rho_init:
     some processors have no G-vectors for symmetrization
     Message from routine sym_rho_init:
     some processors have no G-vectors for symmetrization
     Message from routine sym_rho_init:
     some processors have no G-vectors for symmetrization
     Message from routine sym_rho_init:
     some processors have no G-vectors for symmetrization
     Message from routine sym_rho_init:
     some processors have no G-vectors for symmetrization
     Message from routine sym_rho_init:
     some processors have no G-vectors for symmetrization
     Message from routine sym_rho_init:
     some processors have no G-vectors for symmetrization
     Message from routine sym_rho_init:
     some processors have no G-vectors for symmetrization
     Message from routine sym_rho_init:
     some processors have no G-vectors for symmetrization
     Message from routine sym_rho_init:
     some processors have no G-vectors for symmetrization
     Message from routine sym_rho_init:
     some processors have no G-vectors for symmetrization
     Message from routine sym_rho_init:
     some processors have no G-vectors for symmetrization
     Message from routine sym_rho_init:
     some processors have no G-vectors for symmetrization
     Message from routine sym_rho_init:
     some processors have no G-vectors for symmetrization
     Message from routine sym_rho_init:
     some processors have no G-vectors for symmetrization
     Message from routine sym_rho_init:
     some processors have no G-vectors for symmetrization
     Message from routine sym_rho_init:
     some processors have no G-vectors for symmetrization
     Message from routine sym_rho_init:
     some processors have no G-vectors for symmetrization
     Message from routine sym_rho_init:
     some processors have no G-vectors for symmetrization
     Message from routine sym_rho_init:
     some processors have no G-vectors for symmetrization
     Message from routine sym_rho_init:
     some processors have no G-vectors for symmetrization
     Message from routine sym_rho_init:
     some processors have no G-vectors for symmetrization
     Message from routine sym_rho_init:
     some processors have no G-vectors for symmetrization
     Message from routine sym_rho_init:
     some processors have no G-vectors for symmetrization
     Message from routine sym_rho_init:
     some processors have no G-vectors for symmetrization
     Message from routine sym_rho_init:
     some processors have no G-vectors for symmetrization
     Message from routine sym_rho_init:
     some processors have no G-vectors for symmetrization
     Message from routine sym_rho_init:
     some processors have no G-vectors for symmetrization
     Message from routine sym_rho_init:
     some processors have no G-vectors for symmetrization

     Check: negative core charge=   -0.000003

     Initial potential from superposition of free atoms

     starting charge   63.98899, renormalised to   64.00000
     Starting wfcs are   52 randomized atomic wfcs

     total cpu time spent up to now is     2301.5 secs

     Self-consistent Calculation

     iteration #  1     ecut=    50.00 Ry     beta= 0.70
     CG style diagonalization
     c_bands:  5 eigenvalues not converged
     c_bands:  5 eigenvalues not converged
     c_bands:  3 eigenvalues not converged
     c_bands:  4 eigenvalues not converged
     c_bands:  2 eigenvalues not converged
     c_bands:  5 eigenvalues not converged
     c_bands:  3 eigenvalues not converged
     c_bands:  4 eigenvalues not converged
     c_bands:  4 eigenvalues not converged
     c_bands:  5 eigenvalues not converged
     c_bands:  5 eigenvalues not converged
     c_bands:  5 eigenvalues not converged
     c_bands:  4 eigenvalues not converged
     c_bands:  2 eigenvalues not converged
     c_bands:  5 eigenvalues not converged
     c_bands:  4 eigenvalues not converged
     c_bands:  4 eigenvalues not converged
     c_bands:  3 eigenvalues not converged
     c_bands:  3 eigenvalues not converged
     c_bands:  5 eigenvalues not converged
     c_bands:  4 eigenvalues not converged
     c_bands:  3 eigenvalues not converged
     c_bands:  4 eigenvalues not converged
     c_bands:  4 eigenvalues not converged
     c_bands:  3 eigenvalues not converged
     c_bands:  3 eigenvalues not converged
     c_bands:  5 eigenvalues not converged
     c_bands:  3 eigenvalues not converged
     c_bands:  5 eigenvalues not converged
     c_bands:  4 eigenvalues not converged
     c_bands:  4 eigenvalues not converged
     c_bands:  4 eigenvalues not converged
     c_bands:  5 eigenvalues not converged
     c_bands:  4 eigenvalues not converged
     c_bands:  4 eigenvalues not converged
     c_bands:  5 eigenvalues not converged
     c_bands:  3 eigenvalues not converged
     c_bands:  5 eigenvalues not converged
     c_bands:  5 eigenvalues not converged
     c_bands:  4 eigenvalues not converged
     c_bands:  3 eigenvalues not converged
     c_bands:  3 eigenvalues not converged
     c_bands:  4 eigenvalues not converged
     c_bands:  4 eigenvalues not converged
     c_bands:  4 eigenvalues not converged
     c_bands:  5 eigenvalues not converged
     c_bands:  5 eigenvalues not converged
     c_bands:  4 eigenvalues not converged
     c_bands:  4 eigenvalues not converged
     c_bands:  5 eigenvalues not converged
     c_bands:  2 eigenvalues not converged
     c_bands:  4 eigenvalues not converged
     c_bands:  5 eigenvalues not converged
     c_bands:  5 eigenvalues not converged
     c_bands:  5 eigenvalues not converged
     c_bands:  4 eigenvalues not converged
     c_bands:  5 eigenvalues not converged
     c_bands:  5 eigenvalues not converged
     c_bands:  5 eigenvalues not converged
     c_bands:  3 eigenvalues not converged
     c_bands:  5 eigenvalues not converged
     c_bands:  5 eigenvalues not converged
     c_bands:  5 eigenvalues not converged
     c_bands:  3 eigenvalues not converged
     c_bands:  4 eigenvalues not converged
     c_bands:  4 eigenvalues not converged
     c_bands:  5 eigenvalues not converged
     c_bands:  5 eigenvalues not converged
     c_bands:  5 eigenvalues not converged
     c_bands:  3 eigenvalues not converged
     c_bands:  4 eigenvalues not converged
     c_bands:  1 eigenvalues not converged
     c_bands:  3 eigenvalues not converged
     c_bands:  4 eigenvalues not converged
     c_bands:  4 eigenvalues not converged
     c_bands:  5 eigenvalues not converged
     c_bands:  5 eigenvalues not converged
     c_bands:  5 eigenvalues not converged
     c_bands:  4 eigenvalues not converged
     c_bands:  3 eigenvalues not converged
     c_bands:  3 eigenvalues not converged
     c_bands:  3 eigenvalues not converged
     c_bands:  3 eigenvalues not converged
     c_bands:  5 eigenvalues not converged
     c_bands:  5 eigenvalues not converged
     c_bands:  3 eigenvalues not converged
     c_bands:  3 eigenvalues not converged
     c_bands:  3 eigenvalues not converged
     c_bands:  3 eigenvalues not converged
     c_bands:  4 eigenvalues not converged
     c_bands:  4 eigenvalues not converged
     c_bands:  4 eigenvalues not converged
     c_bands:  2 eigenvalues not converged
     c_bands:  3 eigenvalues not converged
     ethr =  1.00E-06,  avg # of iterations = 13.4

     total cpu time spent up to now is     2507.3 secs

     total energy              =    -366.72844279 Ry
     Harris-Foulkes estimate   =    -367.90358581 Ry
     estimated scf accuracy    <       1.68754642 Ry

     iteration #  2     ecut=    50.00 Ry     beta= 0.70
     CG style diagonalization
     ethr =  2.64E-03,  avg # of iterations =  4.3

     total cpu time spent up to now is     2581.3 secs

     total energy              =    -367.11663420 Ry
     Harris-Foulkes estimate   =    -367.87671840 Ry
     estimated scf accuracy    <       1.55191527 Ry

     iteration #  3     ecut=    50.00 Ry     beta= 0.70
     CG style diagonalization
     ethr =  2.42E-03,  avg # of iterations =  3.8

     total cpu time spent up to now is     2647.1 secs

     total energy              =    -367.41881748 Ry
     Harris-Foulkes estimate   =    -367.42141130 Ry
     estimated scf accuracy    <       0.01240996 Ry

     iteration #  4     ecut=    50.00 Ry     beta= 0.70
     CG style diagonalization
     ethr =  1.94E-05,  avg # of iterations =  4.3

     total cpu time spent up to now is     2720.9 secs

     total energy              =    -367.42992648 Ry
     Harris-Foulkes estimate   =    -367.43089125 Ry
     estimated scf accuracy    <       0.00258808 Ry

     iteration #  5     ecut=    50.00 Ry     beta= 0.70
     CG style diagonalization
     ethr =  4.04E-06,  avg # of iterations =  3.5

     total cpu time spent up to now is     2783.3 secs

     total energy              =    -367.43032233 Ry
     Harris-Foulkes estimate   =    -367.43033867 Ry
     estimated scf accuracy    <       0.00011402 Ry

     iteration #  6     ecut=    50.00 Ry     beta= 0.70
     CG style diagonalization
     ethr =  1.78E-07,  avg # of iterations =  4.1

     total cpu time spent up to now is     2854.1 secs

     total energy              =    -367.43035326 Ry
     Harris-Foulkes estimate   =    -367.43035710 Ry
     estimated scf accuracy    <       0.00000802 Ry

     iteration #  7     ecut=    50.00 Ry     beta= 0.70
     CG style diagonalization
     ethr =  1.25E-08,  avg # of iterations =  4.3

     total cpu time spent up to now is     2928.7 secs

     total energy              =    -367.43035708 Ry
     Harris-Foulkes estimate   =    -367.43035858 Ry
     estimated scf accuracy    <       0.00000375 Ry

     iteration #  8     ecut=    50.00 Ry     beta= 0.70
     CG style diagonalization
     ethr =  5.85E-09,  avg # of iterations =  3.6

     total cpu time spent up to now is     2991.6 secs

     total energy              =    -367.43035752 Ry
     Harris-Foulkes estimate   =    -367.43035763 Ry
     estimated scf accuracy    <       0.00000020 Ry

     iteration #  9     ecut=    50.00 Ry     beta= 0.70
     CG style diagonalization
     ethr =  3.05E-10,  avg # of iterations =  4.0

     total cpu time spent up to now is     3060.4 secs

     End of self-consistent calculation

     Number of k-points >= 100: set verbosity='high' to print the bands.

     highest occupied level (ev):     4.4862

!    total energy              =    -367.43035758 Ry
     Harris-Foulkes estimate   =    -367.43035758 Ry
     estimated scf accuracy    <          8.8E-09 Ry

     The total energy is the sum of the following terms:

     one-electron contribution =    -148.01821280 Ry
     hartree contribution      =     103.40766665 Ry
     xc contribution           =     -75.27132836 Ry
     ewald contribution        =    -247.54848307 Ry

     convergence has been achieved in   9 iterations

     Forces acting on atoms (cartesian axes, Ry/au):

     atom    1 type  1   force =    -0.00000000    0.00000000    0.00000000
     atom    2 type  1   force =    -0.00000000   -0.00000000   -0.00000000
     atom    3 type  2   force =     0.00000000    0.00000000   -0.00000000
     atom    4 type  2   force =    -0.00000000   -0.00000000   -0.00000000
     atom    5 type  3   force =     0.00014698   -0.00025458   -0.00000000
     atom    6 type  3   force =    -0.00029397    0.00000000    0.00000000
     atom    7 type  3   force =     0.00014698    0.00025458    0.00000000
     atom    8 type  3   force =     0.00029397   -0.00000000   -0.00000000
     atom    9 type  3   force =    -0.00014698   -0.00025458   -0.00000000
     atom   10 type  3   force =    -0.00014698    0.00025458    0.00000000

     Total force =     0.000720     Total SCF correction =     0.000128
     SCF correction compared to forces is large: reduce conv_thr to get better values


     Computing stress (Cartesian axis) and pressure

          total   stress  (Ry/bohr**3)                   (kbar)     P=   -0.23
  -0.00000277   0.00000000   0.00000000         -0.41      0.00      0.00
   0.00000000  -0.00000277  -0.00000000          0.00     -0.41     -0.00
  -0.00000000  -0.00000000   0.00000082         -0.00     -0.00      0.12


     Writing output data file CCO_k.save/
 
     init_run     :     48.82s CPU     58.05s WALL (       2 calls)
     electrons    :   2693.73s CPU   2981.33s WALL (       7 calls)
     update_pot   :      0.24s CPU      0.27s WALL (       5 calls)
     forces       :      8.45s CPU      8.74s WALL (       7 calls)
     stress       :     12.47s CPU     12.59s WALL (       7 calls)

     Called by init_run:
     wfcinit      :     48.10s CPU     57.21s WALL (       2 calls)
     potinit      :      0.06s CPU      0.07s WALL (       2 calls)
     hinit0       :      0.48s CPU      0.56s WALL (       2 calls)

     Called by electrons:
     c_bands      :   2518.61s CPU   2798.20s WALL (      45 calls)
     sum_band     :    173.75s CPU    181.25s WALL (      45 calls)
     v_of_rho     :      0.86s CPU      0.89s WALL (      50 calls)
     newd         :      0.23s CPU      0.24s WALL (      50 calls)
     mix_rho      :      0.10s CPU      0.11s WALL (      45 calls)

     Called by c_bands:
     init_us_2    :      2.37s CPU      2.73s WALL (   15476 calls)
     ccgdiagg     :   1878.49s CPU   2021.28s WALL (    6622 calls)
     wfcrot       :    684.13s CPU    821.43s WALL (    5600 calls)

     Called by sum_band:
     sum_band:bec :      1.86s CPU      1.94s WALL (    6570 calls)
     addusdens    :      0.12s CPU      0.12s WALL (      45 calls)

     Called by *cgdiagg:
     h_psi        :   1623.02s CPU   1714.59s WALL (  651609 calls)
     s_psi        :     54.59s CPU     61.46s WALL ( 1297618 calls)
     cdiaghg      :    252.82s CPU    371.13s WALL (    5600 calls)

     Called by h_psi:
     h_psi:pot    :   1607.54s CPU   1697.03s WALL (  651609 calls)
     h_psi:calbec :    168.02s CPU    178.77s WALL (  651609 calls)
     vloc_psi     :   1377.33s CPU   1451.94s WALL (  651609 calls)
     add_vuspsi   :     41.26s CPU     44.92s WALL (  651609 calls)
     hs_1psi      :   1395.20s CPU   1480.40s WALL (  646009 calls)
     s_1psi       :    146.93s CPU    163.88s WALL (  646009 calls)

     General routines
     calbec       :    263.13s CPU    287.62s WALL ( 1309298 calls)
     fft          :      1.16s CPU      1.18s WALL (     732 calls)
     ffts         :      0.07s CPU      0.07s WALL (      45 calls)
     fftw         :   1480.88s CPU   1557.82s WALL ( 1872338 calls)
 
     Parallel routines
     fft_scatt_xy :     55.20s CPU     57.66s WALL ( 1873115 calls)
     fft_scatt_yz :   1184.78s CPU   1250.89s WALL ( 1873115 calls)
 
     PWSCF        :  47m 6.32s CPU  52m16.78s WALL

 
   This run was terminated on:  21: 5:38   2May2022            

=------------------------------------------------------------------------------=
   JOB DONE.
=------------------------------------------------------------------------------=
