
     Program PWSCF v.6.4.1 starts on  4May2022 at  0:24:13 

     This program is part of the open-source Quantum ESPRESSO suite
     for quantum simulation of materials; please cite
         "P. Giannozzi et al., J. Phys.:Condens. Matter 21 395502 (2009);
         "P. Giannozzi et al., J. Phys.:Condens. Matter 29 465901 (2017);
          URL http://www.quantum-espresso.org", 
     in publications or presentations arising from this work. More details at
     http://www.quantum-espresso.org/quote

     Parallel version (MPI & OpenMP), running on     300 processor cores
     Number of MPI processes:               300
     Threads/MPI process:                     1

     MPI processes distributed on     5 nodes
     R & G space division:  proc/nbgrp/npool/nimage =     300
     Waiting for input...
     Reading input from standard input

     Current dimensions of program PWSCF are:
     Max number of different atomic species (ntypx) = 10
     Max number of k-points (npk) =  40000
     Max angular momentum in pseudopotentials (lmaxx) =  3

     Subspace diagonalization in iterative solution of the eigenvalue problem:
     one sub-group per band group will be used
     scalapack distributed-memory algorithm (size of sub-group: 12* 12 procs)

 
     Parallelization info
     --------------------
     sticks:   dense  smooth     PW     G-vecs:    dense   smooth      PW
     Min           7       7      2                  218      218      32
     Max           8       8      3                  230      230      37
     Sum        2387    2387    675                67695    67695   10111
 


     bravais-lattice index     =            5
     lattice parameter (alat)  =      12.1642  a.u.
     unit-cell volume          =     854.7517 (a.u.)^3
     number of atoms/cell      =           10
     number of atomic types    =            3
     number of electrons       =        64.00
     number of Kohn-Sham states=           32
     kinetic-energy cutoff     =      70.0000  Ry
     charge density cutoff     =     280.0000  Ry
     convergence threshold     =      1.0E-05
     mixing beta               =       0.7000
     number of iterations used =            8  plain     mixing
     Exchange-correlation      = SLA  PW   PBE  PBE ( 1  4  3  4 0 0)
     nstep                     =           50


     celldm(1)=  12.164200  celldm(2)=   0.000000  celldm(3)=   0.000000
     celldm(4)=   0.692500  celldm(5)=   0.000000  celldm(6)=   0.000000

     crystal axes: (cart. coord. in units of alat)
               a(1) = (   0.392110  -0.226385   0.891628 )  
               a(2) = (   0.000000   0.452769   0.891628 )  
               a(3) = (  -0.392110  -0.226385   0.891628 )  

     reciprocal axes: (cart. coord. in units 2 pi/alat)
               b(1) = (  1.275153 -0.736210  0.373848 )  
               b(2) = (  0.000000  1.472420  0.373848 )  
               b(3) = ( -1.275153 -0.736210  0.373848 )  


     PseudoPot. # 1 for Ca read from file:
     ./Ca_PBE.UPF
     MD5 check sum: 403a4c14b9e4d4dfdc3024c9a3812218
     Pseudo is Ultrasoft + core correction, Zval = 10.0
     Generated by new atomic code, or converted to UPF format
     Using radial grid of  845 points,  6 beta functions with: 
                l(1) =   0
                l(2) =   0
                l(3) =   1
                l(4) =   1
                l(5) =   2
                l(6) =   2
     Q(r) pseudized with  8 coefficients,  rinner =    1.500   1.500   1.500
                                                       1.500   1.500

     PseudoPot. # 2 for C  read from file:
     ./C_PBE.UPF
     MD5 check sum: d1aef80898a10debaa0f26306b886e00
     Pseudo is Ultrasoft + core correction, Zval =  4.0
     Generated by new atomic code, or converted to UPF format
     Using radial grid of  721 points,  4 beta functions with: 
                l(1) =   0
                l(2) =   0
                l(3) =   1
                l(4) =   1
     Q(r) pseudized with  8 coefficients,  rinner =    1.100   1.100   1.100


     PseudoPot. # 3 for O  read from file:
     ./O_PBE.UPF
     MD5 check sum: 734c27235a0248c51dbae37a1fbe46ec
     Pseudo is Ultrasoft + core correction, Zval =  6.0
     Generated by new atomic code, or converted to UPF format
     Using radial grid of  737 points,  5 beta functions with: 
                l(1) =   0
                l(2) =   0
                l(3) =   1
                l(4) =   1
                l(5) =   2
     Q(r) pseudized with  8 coefficients,  rinner =    0.900   0.900   0.900
                                                       0.900   0.900

     atomic species   valence    mass     pseudopotential
        Ca            10.00    40.07800     Ca( 1.00)
        C              4.00    12.01070     C ( 1.00)
        O              6.00    16.00000     O ( 1.00)

     12 Sym. Ops., with inversion, found ( 6 have fractional translation)



   Cartesian axes

     site n.     atom                  positions (alat units)
         1           Ca  tau(   1) = (   0.0000000  -0.0000000   1.3374416  )
         2           Ca  tau(   2) = (   0.0000000   0.0000000   0.0000000  )
         3           C   tau(   3) = (   0.0000000  -0.0000000   0.6687208  )
         4           C   tau(   4) = (   0.0000000  -0.0000000   2.0061624  )
         5           O   tau(   5) = (   0.1007367   0.2782882   1.5603485  )
         6           O   tau(   6) = (   0.1906363  -0.2263846   1.5603485  )
         7           O   tau(   7) = (  -0.2913730  -0.0519035   1.5603485  )
         8           O   tau(   8) = (  -0.1906363   0.2263846   1.1145347  )
         9           O   tau(   9) = (   0.2913730   0.0519035   1.1145347  )
        10           O   tau(  10) = (  -0.1007367  -0.2782882   1.1145347  )

     number of k points=     6
                       cart. coord. in units 2pi/alat
        k(    1) = (   0.0000000   0.0000000   0.0000000), wk =   0.0740741
        k(    2) = (  -0.4250511  -0.2454034   0.1246160), wk =   0.4444444
        k(    3) = (  -0.4250511   0.2454034   0.2492321), wk =   0.4444444
        k(    4) = (   0.4250511   0.7362102   0.0000000), wk =   0.4444444
        k(    5) = (   0.0000000   0.0000000   0.3738481), wk =   0.1481481
        k(    6) = (   0.8501023   0.4908068   0.1246160), wk =   0.4444444

     Dense  grid:    67695 G-vectors     FFT dimensions: (  72,  72,  72)

     Estimated max dynamical RAM per process >      16.99 MB

     Estimated total dynamical RAM >       4.98 GB
     Message from routine sym_rho_init:
     some processors have no G-vectors for symmetrization
     Message from routine sym_rho_init:
     some processors have no G-vectors for symmetrization
     Message from routine sym_rho_init:
     some processors have no G-vectors for symmetrization
     Message from routine sym_rho_init:
     some processors have no G-vectors for symmetrization
     Message from routine sym_rho_init:
     some processors have no G-vectors for symmetrization
     Message from routine sym_rho_init:
     some processors have no G-vectors for symmetrization
     Message from routine sym_rho_init:
     some processors have no G-vectors for symmetrization
     Message from routine sym_rho_init:
     some processors have no G-vectors for symmetrization
     Message from routine sym_rho_init:
     some processors have no G-vectors for symmetrization
     Message from routine sym_rho_init:
     some processors have no G-vectors for symmetrization
     Message from routine sym_rho_init:
     some processors have no G-vectors for symmetrization
     Message from routine sym_rho_init:
     some processors have no G-vectors for symmetrization
     Message from routine sym_rho_init:
     some processors have no G-vectors for symmetrization
     Message from routine sym_rho_init:
     some processors have no G-vectors for symmetrization
     Message from routine sym_rho_init:
     some processors have no G-vectors for symmetrization
     Message from routine sym_rho_init:
     some processors have no G-vectors for symmetrization
     Message from routine sym_rho_init:
     some processors have no G-vectors for symmetrization
     Message from routine sym_rho_init:
     some processors have no G-vectors for symmetrization
     Message from routine sym_rho_init:
     some processors have no G-vectors for symmetrization
     Message from routine sym_rho_init:
     some processors have no G-vectors for symmetrization
     Message from routine sym_rho_init:
     some processors have no G-vectors for symmetrization
     Message from routine sym_rho_init:
     some processors have no G-vectors for symmetrization
     Message from routine sym_rho_init:
     some processors have no G-vectors for symmetrization
     Message from routine sym_rho_init:
     some processors have no G-vectors for symmetrization
     Message from routine sym_rho_init:
     some processors have no G-vectors for symmetrization
     Message from routine sym_rho_init:
     some processors have no G-vectors for symmetrization
     Message from routine sym_rho_init:
     some processors have no G-vectors for symmetrization
     Message from routine sym_rho_init:
     some processors have no G-vectors for symmetrization
     Message from routine sym_rho_init:
     some processors have no G-vectors for symmetrization
     Message from routine sym_rho_init:
     some processors have no G-vectors for symmetrization
     Message from routine sym_rho_init:
     some processors have no G-vectors for symmetrization
     Message from routine sym_rho_init:
     some processors have no G-vectors for symmetrization
     Message from routine sym_rho_init:
     some processors have no G-vectors for symmetrization
     Message from routine sym_rho_init:
     some processors have no G-vectors for symmetrization
     Message from routine sym_rho_init:
     some processors have no G-vectors for symmetrization
     Message from routine sym_rho_init:
     some processors have no G-vectors for symmetrization
     Message from routine sym_rho_init:
     some processors have no G-vectors for symmetrization
     Message from routine sym_rho_init:
     some processors have no G-vectors for symmetrization
     Message from routine sym_rho_init:
     some processors have no G-vectors for symmetrization
     Message from routine sym_rho_init:
     some processors have no G-vectors for symmetrization
     Message from routine sym_rho_init:
     some processors have no G-vectors for symmetrization
     Message from routine sym_rho_init:
     some processors have no G-vectors for symmetrization
     Message from routine sym_rho_init:
     some processors have no G-vectors for symmetrization
     Message from routine sym_rho_init:
     some processors have no G-vectors for symmetrization
     Message from routine sym_rho_init:
     some processors have no G-vectors for symmetrization
     Message from routine sym_rho_init:
     some processors have no G-vectors for symmetrization
     Message from routine sym_rho_init:
     some processors have no G-vectors for symmetrization
     Message from routine sym_rho_init:
     some processors have no G-vectors for symmetrization
     Message from routine sym_rho_init:
     some processors have no G-vectors for symmetrization
     Message from routine sym_rho_init:
     some processors have no G-vectors for symmetrization
     Message from routine sym_rho_init:
     some processors have no G-vectors for symmetrization
     Message from routine sym_rho_init:
     some processors have no G-vectors for symmetrization
     Message from routine sym_rho_init:
     some processors have no G-vectors for symmetrization
     Message from routine sym_rho_init:
     some processors have no G-vectors for symmetrization
     Message from routine sym_rho_init:
     some processors have no G-vectors for symmetrization
     Message from routine sym_rho_init:
     some processors have no G-vectors for symmetrization
     Message from routine sym_rho_init:
     some processors have no G-vectors for symmetrization
     Message from routine sym_rho_init:
     some processors have no G-vectors for symmetrization
     Message from routine sym_rho_init:
     some processors have no G-vectors for symmetrization
     Message from routine sym_rho_init:
     some processors have no G-vectors for symmetrization
     Message from routine sym_rho_init:
     some processors have no G-vectors for symmetrization
     Message from routine sym_rho_init:
     some processors have no G-vectors for symmetrization
     Message from routine sym_rho_init:
     some processors have no G-vectors for symmetrization
     Message from routine sym_rho_init:
     some processors have no G-vectors for symmetrization
     Message from routine sym_rho_init:
     some processors have no G-vectors for symmetrization
     Message from routine sym_rho_init:
     some processors have no G-vectors for symmetrization
     Message from routine sym_rho_init:
     some processors have no G-vectors for symmetrization
     Message from routine sym_rho_init:
     some processors have no G-vectors for symmetrization
     Message from routine sym_rho_init:
     some processors have no G-vectors for symmetrization
     Message from routine sym_rho_init:
     some processors have no G-vectors for symmetrization
     Message from routine sym_rho_init:
     some processors have no G-vectors for symmetrization
     Message from routine sym_rho_init:
     some processors have no G-vectors for symmetrization
     Message from routine sym_rho_init:
     some processors have no G-vectors for symmetrization
     Message from routine sym_rho_init:
     some processors have no G-vectors for symmetrization
     Message from routine sym_rho_init:
     some processors have no G-vectors for symmetrization
     Message from routine sym_rho_init:
     some processors have no G-vectors for symmetrization
     Message from routine sym_rho_init:
     some processors have no G-vectors for symmetrization
     Message from routine sym_rho_init:
     some processors have no G-vectors for symmetrization
     Message from routine sym_rho_init:
     some processors have no G-vectors for symmetrization
     Message from routine sym_rho_init:
     some processors have no G-vectors for symmetrization
     Message from routine sym_rho_init:
     some processors have no G-vectors for symmetrization
     Message from routine sym_rho_init:
     some processors have no G-vectors for symmetrization
     Message from routine sym_rho_init:
     some processors have no G-vectors for symmetrization
     Message from routine sym_rho_init:
     some processors have no G-vectors for symmetrization
     Message from routine sym_rho_init:
     some processors have no G-vectors for symmetrization
     Message from routine sym_rho_init:
     some processors have no G-vectors for symmetrization
     Message from routine sym_rho_init:
     some processors have no G-vectors for symmetrization
     Message from routine sym_rho_init:
     some processors have no G-vectors for symmetrization
     Message from routine sym_rho_init:
     some processors have no G-vectors for symmetrization
     Message from routine sym_rho_init:
     some processors have no G-vectors for symmetrization
     Message from routine sym_rho_init:
     some processors have no G-vectors for symmetrization
     Message from routine sym_rho_init:
     some processors have no G-vectors for symmetrization
     Message from routine sym_rho_init:
     some processors have no G-vectors for symmetrization
     Message from routine sym_rho_init:
     some processors have no G-vectors for symmetrization
     Message from routine sym_rho_init:
     some processors have no G-vectors for symmetrization
     Message from routine sym_rho_init:
     some processors have no G-vectors for symmetrization
     Message from routine sym_rho_init:
     some processors have no G-vectors for symmetrization
     Message from routine sym_rho_init:
     some processors have no G-vectors for symmetrization
     Message from routine sym_rho_init:
     some processors have no G-vectors for symmetrization
     Message from routine sym_rho_init:
     some processors have no G-vectors for symmetrization
     Message from routine sym_rho_init:
     some processors have no G-vectors for symmetrization
     Message from routine sym_rho_init:
     some processors have no G-vectors for symmetrization
     Message from routine sym_rho_init:
     some processors have no G-vectors for symmetrization
     Message from routine sym_rho_init:
     some processors have no G-vectors for symmetrization
     Message from routine sym_rho_init:
     some processors have no G-vectors for symmetrization
     Message from routine sym_rho_init:
     some processors have no G-vectors for symmetrization
     Message from routine sym_rho_init:
     some processors have no G-vectors for symmetrization
     Message from routine sym_rho_init:
     some processors have no G-vectors for symmetrization
     Message from routine sym_rho_init:
     some processors have no G-vectors for symmetrization
     Message from routine sym_rho_init:
     some processors have no G-vectors for symmetrization
     Message from routine sym_rho_init:
     some processors have no G-vectors for symmetrization
     Message from routine sym_rho_init:
     some processors have no G-vectors for symmetrization
     Message from routine sym_rho_init:
     some processors have no G-vectors for symmetrization
     Message from routine sym_rho_init:
     some processors have no G-vectors for symmetrization
     Message from routine sym_rho_init:
     some processors have no G-vectors for symmetrization
     Message from routine sym_rho_init:
     some processors have no G-vectors for symmetrization
     Message from routine sym_rho_init:
     some processors have no G-vectors for symmetrization
     Message from routine sym_rho_init:
     some processors have no G-vectors for symmetrization
     Message from routine sym_rho_init:
     some processors have no G-vectors for symmetrization
     Message from routine sym_rho_init:
     some processors have no G-vectors for symmetrization
     Message from routine sym_rho_init:
     some processors have no G-vectors for symmetrization
     Message from routine sym_rho_init:
     some processors have no G-vectors for symmetrization
     Message from routine sym_rho_init:
     some processors have no G-vectors for symmetrization
     Message from routine sym_rho_init:
     some processors have no G-vectors for symmetrization
     Message from routine sym_rho_init:
     some processors have no G-vectors for symmetrization
     Message from routine sym_rho_init:
     some processors have no G-vectors for symmetrization
     Message from routine sym_rho_init:
     some processors have no G-vectors for symmetrization
     Message from routine sym_rho_init:
     some processors have no G-vectors for symmetrization
     Message from routine sym_rho_init:
     some processors have no G-vectors for symmetrization
     Message from routine sym_rho_init:
     some processors have no G-vectors for symmetrization
     Message from routine sym_rho_init:
     some processors have no G-vectors for symmetrization
     Message from routine sym_rho_init:
     some processors have no G-vectors for symmetrization
     Message from routine sym_rho_init:
     some processors have no G-vectors for symmetrization
     Message from routine sym_rho_init:
     some processors have no G-vectors for symmetrization
     Message from routine sym_rho_init:
     some processors have no G-vectors for symmetrization
     Message from routine sym_rho_init:
     some processors have no G-vectors for symmetrization
     Message from routine sym_rho_init:
     some processors have no G-vectors for symmetrization
     Message from routine sym_rho_init:
     some processors have no G-vectors for symmetrization
     Message from routine sym_rho_init:
     some processors have no G-vectors for symmetrization
     Message from routine sym_rho_init:
     some processors have no G-vectors for symmetrization
     Message from routine sym_rho_init:
     some processors have no G-vectors for symmetrization
     Message from routine sym_rho_init:
     some processors have no G-vectors for symmetrization
     Message from routine sym_rho_init:
     some processors have no G-vectors for symmetrization
     Message from routine sym_rho_init:
     some processors have no G-vectors for symmetrization
     Message from routine sym_rho_init:
     some processors have no G-vectors for symmetrization
     Message from routine sym_rho_init:
     some processors have no G-vectors for symmetrization
     Message from routine sym_rho_init:
     some processors have no G-vectors for symmetrization
     Message from routine sym_rho_init:
     some processors have no G-vectors for symmetrization
     Message from routine sym_rho_init:
     some processors have no G-vectors for symmetrization
     Message from routine sym_rho_init:
     some processors have no G-vectors for symmetrization
     Message from routine sym_rho_init:
     some processors have no G-vectors for symmetrization
     Message from routine sym_rho_init:
     some processors have no G-vectors for symmetrization
     Message from routine sym_rho_init:
     some processors have no G-vectors for symmetrization
     Message from routine sym_rho_init:
     some processors have no G-vectors for symmetrization
     Message from routine sym_rho_init:
     some processors have no G-vectors for symmetrization
     Message from routine sym_rho_init:
     some processors have no G-vectors for symmetrization
     Message from routine sym_rho_init:
     some processors have no G-vectors for symmetrization
     Message from routine sym_rho_init:
     some processors have no G-vectors for symmetrization
     Message from routine sym_rho_init:
     some processors have no G-vectors for symmetrization
     Message from routine sym_rho_init:
     some processors have no G-vectors for symmetrization

     Check: negative core charge=   -0.000003

     Initial potential from superposition of free atoms

     starting charge   63.98899, renormalised to   64.00000
     Starting wfcs are   52 randomized atomic wfcs

     total cpu time spent up to now is        4.6 secs

     Self-consistent Calculation

     iteration #  1     ecut=    70.00 Ry     beta= 0.70
     CG style diagonalization
     ethr =  1.00E-02,  avg # of iterations =  2.7

     total cpu time spent up to now is        7.0 secs

     total energy              =    -366.67244835 Ry
     Harris-Foulkes estimate   =    -367.89551650 Ry
     estimated scf accuracy    <       1.75372358 Ry

     iteration #  2     ecut=    70.00 Ry     beta= 0.70
     CG style diagonalization
     ethr =  2.74E-03,  avg # of iterations =  4.3

     total cpu time spent up to now is       10.5 secs

     total energy              =    -367.10337728 Ry
     Harris-Foulkes estimate   =    -367.91449130 Ry
     estimated scf accuracy    <       1.66845017 Ry

     iteration #  3     ecut=    70.00 Ry     beta= 0.70
     CG style diagonalization
     ethr =  2.61E-03,  avg # of iterations =  3.8

     total cpu time spent up to now is       13.7 secs

     total energy              =    -367.42139756 Ry
     Harris-Foulkes estimate   =    -367.42347826 Ry
     estimated scf accuracy    <       0.01105563 Ry

     iteration #  4     ecut=    70.00 Ry     beta= 0.70
     CG style diagonalization
     ethr =  1.73E-05,  avg # of iterations =  4.4

     total cpu time spent up to now is       17.2 secs

     total energy              =    -367.43310315 Ry
     Harris-Foulkes estimate   =    -367.43414847 Ry
     estimated scf accuracy    <       0.00280615 Ry

     iteration #  5     ecut=    70.00 Ry     beta= 0.70
     CG style diagonalization
     ethr =  4.38E-06,  avg # of iterations =  3.5

     total cpu time spent up to now is       20.2 secs

     total energy              =    -367.43343521 Ry
     Harris-Foulkes estimate   =    -367.43349602 Ry
     estimated scf accuracy    <       0.00019827 Ry

     iteration #  6     ecut=    70.00 Ry     beta= 0.70
     CG style diagonalization
     ethr =  3.10E-07,  avg # of iterations =  4.0

     total cpu time spent up to now is       23.5 secs

     total energy              =    -367.43347913 Ry
     Harris-Foulkes estimate   =    -367.43349562 Ry
     estimated scf accuracy    <       0.00002691 Ry

     iteration #  7     ecut=    70.00 Ry     beta= 0.70
     CG style diagonalization
     ethr =  4.20E-08,  avg # of iterations =  4.1

     total cpu time spent up to now is       26.9 secs

     End of self-consistent calculation

          k = 0.0000 0.0000 0.0000 (  8387 PWs)   bands (ev):

   -33.6956 -33.6831 -17.0831 -17.0734 -15.1269 -15.1269 -14.7615 -14.7615
   -14.6683 -14.5603 -13.9052 -13.9052 -13.3737 -13.3737  -3.3131  -3.0400
    -1.6920  -1.5334  -1.5334  -1.2742  -1.2742  -0.4031   2.3558   2.3558
     2.7880   2.7880   2.9602   2.9602   3.5740   3.5740   3.7755   4.2024

          k =-0.4251-0.2454 0.1246 (  8463 PWs)   bands (ev):

   -33.6921 -33.6859 -17.1010 -17.0267 -15.1147 -15.0083 -14.9916 -14.8365
   -14.6704 -14.6528 -13.7320 -13.6155 -13.5559 -13.4602  -3.0229  -3.0206
    -1.5395  -1.4151  -1.2764  -1.2712  -1.2055  -0.7098   2.2861   2.3613
     2.5709   2.5942   2.7208   2.8261   3.1985   3.2320   4.2440   4.2588

          k =-0.4251 0.2454 0.2492 (  8463 PWs)   bands (ev):

   -33.6921 -33.6859 -17.1402 -16.9867 -15.1535 -15.1270 -14.7985 -14.7407
   -14.7187 -14.6901 -13.7968 -13.7378 -13.4577 -13.4176  -3.1121  -2.9386
    -1.5385  -1.3907  -1.3483  -1.2138  -1.1225  -0.7682   2.1479   2.3797
     2.4976   2.7075   2.7149   2.9621   2.9905   3.3494   4.1628   4.3288

          k = 0.4251 0.7362 0.0000 (  8457 PWs)   bands (ev):

   -33.6888 -33.6888 -17.0605 -17.0602 -15.1146 -15.0798 -14.9147 -14.8258
   -14.7161 -14.6583 -13.7320 -13.7253 -13.4518 -13.4486  -2.9246  -2.9241
    -1.5221  -1.4118  -1.3546  -1.1983  -0.8883  -0.8422   2.1332   2.1448
     2.4614   2.4791   2.6613   2.6981   3.1830   3.2266   4.3711   4.3747

          k = 0.0000 0.0000 0.3738 (  8453 PWs)   bands (ev):

   -33.6925 -33.6862 -17.0826 -17.0778 -15.0589 -15.0589 -14.8853 -14.8853
   -14.6385 -14.5846 -13.7402 -13.7402 -13.4836 -13.4836  -3.2829  -3.1572
    -1.4684  -1.4684  -1.3392  -1.3392  -1.3346  -0.6986   2.4648   2.4648
     2.6752   2.6752   3.1039   3.1039   3.4020   3.4020   3.8689   4.0756

          k = 0.8501 0.4908 0.1246 (  8452 PWs)   bands (ev):

   -33.6890 -33.6890 -17.1065 -17.0276 -15.1672 -15.0183 -14.9310 -14.7648
   -14.7198 -14.6241 -13.8075 -13.6712 -13.5170 -13.4104  -3.1208  -2.9461
    -1.5253  -1.3614  -1.3524  -1.2630  -0.9538  -0.8894   2.1901   2.3435
     2.5871   2.6648   2.6837   2.9460   3.0787   3.1851   4.1696   4.3112

     highest occupied level (ev):     4.3747

!    total energy              =    -367.43348956 Ry
     Harris-Foulkes estimate   =    -367.43349359 Ry
     estimated scf accuracy    <       0.00000627 Ry

     The total energy is the sum of the following terms:

     one-electron contribution =    -148.14879821 Ry
     hartree contribution      =     103.43943912 Ry
     xc contribution           =     -75.26427394 Ry
     ewald contribution        =    -247.45985653 Ry

     convergence has been achieved in   7 iterations

     Forces acting on atoms (cartesian axes, Ry/au):

     atom    1 type  1   force =     0.00000000    0.00000000    0.00000000
     atom    2 type  1   force =     0.00000000   -0.00000000    0.00000000
     atom    3 type  2   force =     0.00000000    0.00000000    0.00000000
     atom    4 type  2   force =     0.00000000    0.00000000    0.00000000
     atom    5 type  3   force =     0.00013291   -0.00023021   -0.00000000
     atom    6 type  3   force =    -0.00026583   -0.00000000    0.00000000
     atom    7 type  3   force =     0.00013291    0.00023021    0.00000000
     atom    8 type  3   force =     0.00026583    0.00000000   -0.00000000
     atom    9 type  3   force =    -0.00013291   -0.00023021   -0.00000000
     atom   10 type  3   force =    -0.00013291    0.00023021    0.00000000

     Total force =     0.000651     Total SCF correction =     0.000690
     SCF correction compared to forces is large: reduce conv_thr to get better values


     Computing stress (Cartesian axis) and pressure

          total   stress  (Ry/bohr**3)                   (kbar)     P=   -3.43
  -0.00002299   0.00000000   0.00000000         -3.38      0.00      0.00
  -0.00000000  -0.00002299  -0.00000000         -0.00     -3.38     -0.00
  -0.00000000  -0.00000000  -0.00002392         -0.00     -0.00     -3.52


     BFGS Geometry Optimization

     number of scf cycles    =   1
     number of bfgs steps    =   0

     enthalpy new            =    -367.4334895624 Ry

     new trust radius        =       0.0034961369 bohr
     new conv_thr            =       0.0000100000 Ry

     new unit-cell volume =    853.25913 a.u.^3 (   126.43996 Ang^3 )
     density =      2.62893 g/cm^3

CELL_PARAMETERS (alat= 12.16420000)
   0.391884354  -0.226254537   0.891094609
   0.000000000   0.452509074   0.891094609
  -0.391884354  -0.226254537   0.891094609

ATOMIC_POSITIONS (crystal)
Ca       0.500000000   0.500000000   0.500000000
Ca       0.000000000  -0.000000000  -0.000000000
C        0.250000000   0.250000000   0.250000000
C        0.750000000   0.750000000   0.750000000
O        0.506937369   0.993062631   0.250000000
O        0.993062631   0.250000000   0.506937369
O        0.250000000   0.506937369   0.993062631
O        0.006937369   0.750000000   0.493062631
O        0.750000000   0.493062631   0.006937369
O        0.493062631   0.006937369   0.750000000



     Writing output data file CCO_k.save/
     NEW-OLD atomic charge density approx. for the potential

     Check: negative core charge=   -0.000003
     extrapolated charge   63.88807, renormalised to   64.00000

     total cpu time spent up to now is       27.7 secs

     Self-consistent Calculation

     iteration #  1     ecut=    70.00 Ry     beta= 0.70
     CG style diagonalization
     ethr =  1.00E-06,  avg # of iterations =  2.9

     total cpu time spent up to now is       30.0 secs

     total energy              =    -367.43268301 Ry
     Harris-Foulkes estimate   =    -367.63362742 Ry
     estimated scf accuracy    <       0.00060482 Ry

     iteration #  2     ecut=    70.00 Ry     beta= 0.70
     CG style diagonalization
     ethr =  9.45E-07,  avg # of iterations =  5.0

     total cpu time spent up to now is       34.0 secs

     total energy              =    -367.43340971 Ry
     Harris-Foulkes estimate   =    -367.43404052 Ry
     estimated scf accuracy    <       0.00170914 Ry

     iteration #  3     ecut=    70.00 Ry     beta= 0.70
     CG style diagonalization
     ethr =  9.45E-07,  avg # of iterations =  3.8

     total cpu time spent up to now is       37.2 secs

     total energy              =    -367.43349306 Ry
     Harris-Foulkes estimate   =    -367.43354052 Ry
     estimated scf accuracy    <       0.00018782 Ry

     iteration #  4     ecut=    70.00 Ry     beta= 0.70
     CG style diagonalization
     ethr =  2.93E-07,  avg # of iterations =  3.0

     total cpu time spent up to now is       39.7 secs

     total energy              =    -367.43347626 Ry
     Harris-Foulkes estimate   =    -367.43349917 Ry
     estimated scf accuracy    <       0.00008554 Ry

     iteration #  5     ecut=    70.00 Ry     beta= 0.70
     CG style diagonalization
     ethr =  1.34E-07,  avg # of iterations =  3.1

     total cpu time spent up to now is       42.4 secs

     total energy              =    -367.43347146 Ry
     Harris-Foulkes estimate   =    -367.43348064 Ry
     estimated scf accuracy    <       0.00002548 Ry

     iteration #  6     ecut=    70.00 Ry     beta= 0.70
     CG style diagonalization
     ethr =  3.98E-08,  avg # of iterations =  3.5

     total cpu time spent up to now is       45.3 secs

     End of self-consistent calculation

          k = 0.0000 0.0000 0.0000 (  8387 PWs)   bands (ev):

   -33.6725 -33.6598 -17.0768 -17.0677 -15.1093 -15.1093 -14.7392 -14.7392
   -14.6456 -14.5382 -13.8952 -13.8952 -13.3580 -13.3580  -3.2998  -3.0249
    -1.6848  -1.5235  -1.5235  -1.2625  -1.2625  -0.3928   2.3685   2.3685
     2.8020   2.8020   2.9757   2.9757   3.5900   3.5900   3.7908   4.2190

          k =-0.4253-0.2455 0.1247 (  8463 PWs)   bands (ev):

   -33.6690 -33.6626 -17.0951 -17.0205 -15.0974 -14.9901 -14.9729 -14.8167
   -14.6482 -14.6303 -13.7191 -13.6015 -13.5411 -13.4447  -3.0085  -3.0061
    -1.5299  -1.4045  -1.2655  -1.2600  -1.1960  -0.7001   2.2998   2.3750
     2.5852   2.6085   2.7346   2.8403   3.2133   3.2471   4.2603   4.2754

          k =-0.4253 0.2455 0.2494 (  8463 PWs)   bands (ev):

   -33.6689 -33.6626 -17.1343 -16.9805 -15.1364 -15.1101 -14.7778 -14.7183
   -14.6982 -14.6678 -13.7844 -13.7257 -13.4421 -13.4018  -3.0982  -2.9237
    -1.5283  -1.3801  -1.3389  -1.2022  -1.1119  -0.7589   2.1610   2.3931
     2.5114   2.7220   2.7296   2.9764   3.0050   3.3649   4.1788   4.3455

          k = 0.4253 0.7366 0.0000 (  8457 PWs)   bands (ev):

   -33.6656 -33.6656 -17.0544 -17.0542 -15.0974 -15.0627 -14.8952 -14.8065
   -14.6936 -14.6358 -13.7188 -13.7119 -13.4362 -13.4329  -2.9100  -2.9095
    -1.5123  -1.4011  -1.3446  -1.1868  -0.8786  -0.8318   2.1466   2.1583
     2.4752   2.4930   2.6751   2.7118   3.1981   3.2417   4.3877   4.3913

          k =-0.0000 0.0000 0.3741 (  8453 PWs)   bands (ev):

   -33.6693 -33.6630 -17.0764 -17.0719 -15.0407 -15.0407 -14.8652 -14.8652
   -14.6159 -14.5623 -13.7277 -13.7277 -13.4687 -13.4687  -3.2694  -3.1430
    -1.4582  -1.4582  -1.3280  -1.3280  -1.3261  -0.6887   2.4780   2.4780
     2.6893   2.6893   3.1190   3.1190   3.4175   3.4175   3.8845   4.0918

          k = 0.8506 0.4911 0.1247 (  8452 PWs)   bands (ev):

   -33.6658 -33.6658 -17.1004 -17.0215 -15.1503 -15.0004 -14.9122 -14.7432
   -14.6973 -14.6018 -13.7964 -13.6572 -13.5021 -13.3944  -3.1070  -2.9312
    -1.5150  -1.3507  -1.3421  -1.2520  -0.9439  -0.8796   2.2034   2.3573
     2.6013   2.6793   2.6975   2.9604   3.0934   3.2000   4.1857   4.3278

     highest occupied level (ev):     4.3913

!    total energy              =    -367.43347316 Ry
     Harris-Foulkes estimate   =    -367.43347455 Ry
     estimated scf accuracy    <       0.00000176 Ry

     The total energy is the sum of the following terms:

     one-electron contribution =    -147.91119795 Ry
     hartree contribution      =     103.36956323 Ry
     xc contribution           =     -75.27538578 Ry
     ewald contribution        =    -247.61645266 Ry

     convergence has been achieved in   6 iterations

     Forces acting on atoms (cartesian axes, Ry/au):

     atom    1 type  1   force =     0.00000000    0.00000000    0.00000000
     atom    2 type  1   force =     0.00000000    0.00000000    0.00000000
     atom    3 type  2   force =     0.00000000   -0.00000000    0.00000000
     atom    4 type  2   force =    -0.00000000   -0.00000000    0.00000000
     atom    5 type  3   force =     0.00050507   -0.00087481   -0.00000000
     atom    6 type  3   force =    -0.00101015    0.00000000   -0.00000000
     atom    7 type  3   force =     0.00050507    0.00087481    0.00000000
     atom    8 type  3   force =     0.00101015   -0.00000000    0.00000000
     atom    9 type  3   force =    -0.00050507   -0.00087481   -0.00000000
     atom   10 type  3   force =    -0.00050507    0.00087481    0.00000000

     Total force =     0.002474     Total SCF correction =     0.000951
     SCF correction compared to forces is large: reduce conv_thr to get better values


     Computing stress (Cartesian axis) and pressure

          total   stress  (Ry/bohr**3)                   (kbar)     P=    0.76
   0.00000771   0.00000000   0.00000000          1.13      0.00      0.00
   0.00000000   0.00000771   0.00000000          0.00      1.13      0.00
  -0.00000000   0.00000000  -0.00000002         -0.00      0.00     -0.00


     number of scf cycles    =   2
     number of bfgs steps    =   1

     enthalpy old            =    -367.4334895624 Ry
     enthalpy new            =    -367.4334731633 Ry

     CASE: enthalpy_new > enthalpy_old

     new trust radius        =       0.0011924671 bohr
     new conv_thr            =       0.0000100000 Ry

     new unit-cell volume =    854.24227 a.u.^3 (   126.58564 Ang^3 )
     density =      2.62591 g/cm^3

CELL_PARAMETERS (alat= 12.16420000)
   0.392032803  -0.226340245   0.891445839
   0.000000000   0.452680489   0.891445839
  -0.392032803  -0.226340245   0.891445839

ATOMIC_POSITIONS (crystal)
Ca       0.500000000   0.500000000   0.500000000
Ca       0.000000000  -0.000000000  -0.000000000
C        0.250000000   0.250000000   0.250000000
C        0.750000000   0.750000000   0.750000000
O        0.506919010   0.993080990   0.250000000
O        0.993080990   0.250000000   0.506919010
O        0.250000000   0.506919010   0.993080990
O        0.006919010   0.750000000   0.493080990
O        0.750000000   0.493080990   0.006919010
O        0.493080990   0.006919010   0.750000000



     Writing output data file CCO_k.save/
     NEW-OLD atomic charge density approx. for the potential

     Check: negative core charge=   -0.000003
     extrapolated charge   64.07364, renormalised to   64.00000

     total cpu time spent up to now is       45.8 secs

     Self-consistent Calculation

     iteration #  1     ecut=    70.00 Ry     beta= 0.70
     CG style diagonalization
     ethr =  1.00E-06,  avg # of iterations =  2.4

     total cpu time spent up to now is       47.7 secs

     total energy              =    -367.43322818 Ry
     Harris-Foulkes estimate   =    -367.30171881 Ry
     estimated scf accuracy    <       0.00015640 Ry

     iteration #  2     ecut=    70.00 Ry     beta= 0.70
     CG style diagonalization
     ethr =  2.44E-07,  avg # of iterations =  5.1

     total cpu time spent up to now is       51.9 secs

     total energy              =    -367.43348369 Ry
     Harris-Foulkes estimate   =    -367.43367557 Ry
     estimated scf accuracy    <       0.00055821 Ry

     iteration #  3     ecut=    70.00 Ry     beta= 0.70
     CG style diagonalization
     ethr =  2.44E-07,  avg # of iterations =  3.8

     total cpu time spent up to now is       55.0 secs

     total energy              =    -367.43349798 Ry
     Harris-Foulkes estimate   =    -367.43351896 Ry
     estimated scf accuracy    <       0.00008658 Ry

     iteration #  4     ecut=    70.00 Ry     beta= 0.70
     CG style diagonalization
     ethr =  1.35E-07,  avg # of iterations =  3.0

     total cpu time spent up to now is       57.6 secs

     total energy              =    -367.43348892 Ry
     Harris-Foulkes estimate   =    -367.43350015 Ry
     estimated scf accuracy    <       0.00003891 Ry

     iteration #  5     ecut=    70.00 Ry     beta= 0.70
     CG style diagonalization
     ethr =  6.08E-08,  avg # of iterations =  3.0

     total cpu time spent up to now is       60.2 secs

     total energy              =    -367.43348686 Ry
     Harris-Foulkes estimate   =    -367.43349094 Ry
     estimated scf accuracy    <       0.00001030 Ry

     iteration #  6     ecut=    70.00 Ry     beta= 0.70
     CG style diagonalization
     ethr =  1.61E-08,  avg # of iterations =  3.5

     total cpu time spent up to now is       63.1 secs

     End of self-consistent calculation

          k = 0.0000 0.0000 0.0000 (  8387 PWs)   bands (ev):

   -33.6950 -33.6824 -17.0856 -17.0760 -15.1267 -15.1267 -14.7603 -14.7603
   -14.6671 -14.5592 -13.9063 -13.9063 -13.3736 -13.3736  -3.3134  -3.0398
    -1.6927  -1.5348  -1.5348  -1.2752  -1.2752  -0.4036   2.3561   2.3561
     2.7892   2.7892   2.9609   2.9609   3.5757   3.5757   3.7767   4.2040

          k =-0.4251-0.2455 0.1246 (  8463 PWs)   bands (ev):

   -33.6915 -33.6852 -17.1035 -17.0292 -15.1146 -15.0080 -14.9912 -14.8359
   -14.6692 -14.6515 -13.7326 -13.6158 -13.5561 -13.4602  -3.0229  -3.0206
    -1.5405  -1.4163  -1.2777  -1.2724  -1.2063  -0.7104   2.2868   2.3619
     2.5716   2.5948   2.7220   2.8275   3.2000   3.2336   4.2453   4.2602

          k =-0.4251 0.2455 0.2493 (  8463 PWs)   bands (ev):

   -33.6914 -33.6852 -17.1428 -16.9892 -15.1534 -15.1270 -14.7977 -14.7394
   -14.7178 -14.6890 -13.7974 -13.7386 -13.4577 -13.4175  -3.1123  -2.9385
    -1.5398  -1.3920  -1.3491  -1.2149  -1.1233  -0.7689   2.1483   2.3801
     2.4986   2.7087   2.7155   2.9635   2.9920   3.3510   4.1641   4.3302

          k = 0.4251 0.7364 0.0000 (  8457 PWs)   bands (ev):

   -33.6881 -33.6881 -17.0630 -17.0628 -15.1146 -15.0798 -14.9141 -14.8252
   -14.7149 -14.6571 -13.7325 -13.7257 -13.4518 -13.4485  -2.9247  -2.9242
    -1.5233  -1.4131  -1.3557  -1.1995  -0.8890  -0.8429   2.1338   2.1454
     2.4622   2.4799   2.6626   2.6994   3.1845   3.2281   4.3724   4.3760

          k = 0.0000 0.0000 0.3739 (  8453 PWs)   bands (ev):

   -33.6918 -33.6855 -17.0851 -17.0803 -15.0586 -15.0586 -14.8846 -14.8846
   -14.6373 -14.5834 -13.7408 -13.7408 -13.4837 -13.4837  -3.2831  -3.1572
    -1.4698  -1.4698  -1.3403  -1.3403  -1.3351  -0.6991   2.4652   2.4652
     2.6760   2.6760   3.1050   3.1050   3.4035   3.4035   3.8702   4.0771

          k = 0.8503 0.4909 0.1246 (  8452 PWs)   bands (ev):

   -33.6883 -33.6883 -17.1090 -17.0301 -15.1672 -15.0181 -14.9306 -14.7637
   -14.7186 -14.6229 -13.8084 -13.6715 -13.5171 -13.4103  -3.1210  -2.9460
    -1.5265  -1.3626  -1.3535  -1.2641  -0.9544  -0.8900   2.1906   2.3442
     2.5879   2.6656   2.6851   2.9473   3.0802   3.1865   4.1709   4.3126

     highest occupied level (ev):     4.3760

!    total energy              =    -367.43348798 Ry
     Harris-Foulkes estimate   =    -367.43348827 Ry
     estimated scf accuracy    <       0.00000038 Ry

     The total energy is the sum of the following terms:

     one-electron contribution =    -148.08414263 Ry
     hartree contribution      =     103.43718125 Ry
     xc contribution           =     -75.27326323 Ry
     ewald contribution        =    -247.51326336 Ry

     convergence has been achieved in   6 iterations

     Forces acting on atoms (cartesian axes, Ry/au):

     atom    1 type  1   force =    -0.00000000   -0.00000000   -0.00000000
     atom    2 type  1   force =     0.00000000    0.00000000    0.00000000
     atom    3 type  2   force =    -0.00000000   -0.00000000   -0.00000000
     atom    4 type  2   force =     0.00000000   -0.00000000    0.00000000
     atom    5 type  3   force =     0.00036871   -0.00063863   -0.00000000
     atom    6 type  3   force =    -0.00073743    0.00000000   -0.00000000
     atom    7 type  3   force =     0.00036871    0.00063863    0.00000000
     atom    8 type  3   force =     0.00073743   -0.00000000    0.00000000
     atom    9 type  3   force =    -0.00036871   -0.00063863   -0.00000000
     atom   10 type  3   force =    -0.00036871    0.00063863    0.00000000

     Total force =     0.001806     Total SCF correction =     0.000305
     SCF correction compared to forces is large: reduce conv_thr to get better values


     Computing stress (Cartesian axis) and pressure

          total   stress  (Ry/bohr**3)                   (kbar)     P=    2.49
   0.00001585   0.00000000  -0.00000000          2.33      0.00     -0.00
   0.00000000   0.00001585   0.00000000          0.00      2.33      0.00
   0.00000000   0.00000000   0.00001915          0.00      0.00      2.82


     number of scf cycles    =   3
     number of bfgs steps    =   1

     enthalpy old            =    -367.4334895624 Ry
     enthalpy new            =    -367.4334879769 Ry

     CASE: enthalpy_new > enthalpy_old

     new trust radius        =       0.0005268391 bohr
     new conv_thr            =       0.0000100000 Ry

     new unit-cell volume =    854.52664 a.u.^3 (   126.62778 Ang^3 )
     density =      2.62504 g/cm^3

CELL_PARAMETERS (alat= 12.16420000)
   0.392075721  -0.226365023   0.891547381
   0.000000000   0.452730046   0.891547381
  -0.392075721  -0.226365023   0.891547381

ATOMIC_POSITIONS (crystal)
Ca       0.500000000   0.500000000   0.500000000
Ca       0.000000000  -0.000000000  -0.000000000
C        0.250000000   0.250000000   0.250000000
C        0.750000000   0.750000000   0.750000000
O        0.506913703   0.993086297   0.250000000
O        0.993086297   0.250000000   0.506913703
O        0.250000000   0.506913703   0.993086297
O        0.006913703   0.750000000   0.493086297
O        0.750000000   0.493086297   0.006913703
O        0.493086297   0.006913703   0.750000000



     Writing output data file CCO_k.save/
     NEW-OLD atomic charge density approx. for the potential

     Check: negative core charge=   -0.000003
     extrapolated charge   64.02129, renormalised to   64.00000

     total cpu time spent up to now is       63.6 secs

     Self-consistent Calculation

     iteration #  1     ecut=    70.00 Ry     beta= 0.70
     CG style diagonalization
     ethr =  1.00E-06,  avg # of iterations =  2.0

     Threshold (ethr) on eigenvalues was too large:
     Diagonalizing with lowered threshold

     CG style diagonalization
     ethr =  2.74E-08,  avg # of iterations =  2.2

     total cpu time spent up to now is       67.0 secs

     total energy              =    -367.43346409 Ry
     Harris-Foulkes estimate   =    -367.39537711 Ry
     estimated scf accuracy    <       0.00002101 Ry

     iteration #  2     ecut=    70.00 Ry     beta= 0.70
     CG style diagonalization
     ethr =  3.28E-08,  avg # of iterations =  4.9

     total cpu time spent up to now is       71.0 secs

     total energy              =    -367.43348828 Ry
     Harris-Foulkes estimate   =    -367.43350964 Ry
     estimated scf accuracy    <       0.00005731 Ry

     iteration #  3     ecut=    70.00 Ry     beta= 0.70
     CG style diagonalization
     ethr =  3.28E-08,  avg # of iterations =  3.8

     total cpu time spent up to now is       74.1 secs

     End of self-consistent calculation

          k = 0.0000 0.0000 0.0000 (  8387 PWs)   bands (ev):

   -33.7009 -33.6884 -17.0906 -17.0809 -15.1319 -15.1319 -14.7658 -14.7658
   -14.6726 -14.5649 -13.9124 -13.9124 -13.3802 -13.3802  -3.3192  -3.0461
    -1.6967  -1.5402  -1.5402  -1.2810  -1.2810  -0.4087   2.3504   2.3504
     2.7830   2.7830   2.9542   2.9542   3.5688   3.5688   3.7704   4.1971

          k =-0.4251-0.2454 0.1246 (  8463 PWs)   bands (ev):

   -33.6974 -33.6912 -17.1085 -17.0342 -15.1198 -15.0132 -14.9964 -14.8413
   -14.6749 -14.6572 -13.7388 -13.6221 -13.5625 -13.4666  -3.0291  -3.0268
    -1.5455  -1.4218  -1.2833  -1.2782  -1.2113  -0.7154   2.2809   2.3559
     2.5653   2.5885   2.7160   2.8213   3.1936   3.2272   4.2384   4.2533

          k =-0.4251 0.2454 0.2493 (  8463 PWs)   bands (ev):

   -33.6974 -33.6912 -17.1476 -16.9942 -15.1586 -15.1322 -14.8032 -14.7450
   -14.7234 -14.6945 -13.8036 -13.7448 -13.4641 -13.4240  -3.1183  -2.9448
    -1.5452  -1.3975  -1.3540  -1.2207  -1.1287  -0.7737   2.1425   2.3741
     2.4926   2.7025   2.7091   2.9573   2.9858   3.3444   4.1573   4.3232

          k = 0.4251 0.7363 0.0000 (  8457 PWs)   bands (ev):

   -33.6941 -33.6941 -17.0679 -17.0677 -15.1197 -15.0850 -14.9194 -14.8307
   -14.7205 -14.6627 -13.7387 -13.7319 -13.4582 -13.4550  -2.9310  -2.9305
    -1.5285  -1.4187  -1.3609  -1.2053  -0.8940  -0.8481   2.1280   2.1395
     2.4562   2.4738   2.6566   2.6934   3.1780   3.2216   4.3654   4.3690

          k =-0.0000 0.0000 0.3739 (  8453 PWs)   bands (ev):

   -33.6978 -33.6915 -17.0901 -17.0853 -15.0638 -15.0638 -14.8900 -14.8900
   -14.6429 -14.5891 -13.7470 -13.7470 -13.4902 -13.4902  -3.2890  -3.1632
    -1.4752  -1.4752  -1.3460  -1.3460  -1.3396  -0.7040   2.4593   2.4593
     2.6698   2.6698   3.0984   3.0984   3.3968   3.3968   3.8638   4.0704

          k = 0.8502 0.4908 0.1246 (  8452 PWs)   bands (ev):

   -33.6943 -33.6943 -17.1139 -17.0351 -15.1723 -15.0233 -14.9359 -14.7692
   -14.7241 -14.6286 -13.8145 -13.6778 -13.5235 -13.4168  -3.1270  -2.9523
    -1.5319  -1.3682  -1.3588  -1.2698  -0.9595  -0.8950   2.1847   2.3381
     2.5817   2.6593   2.6792   2.9411   3.0739   3.1801   4.1641   4.3057

     highest occupied level (ev):     4.3690

!    total energy              =    -367.43348809 Ry
     Harris-Foulkes estimate   =    -367.43349282 Ry
     estimated scf accuracy    <       0.00000592 Ry

     The total energy is the sum of the following terms:

     one-electron contribution =    -148.14401452 Ry
     hartree contribution      =     103.46958148 Ry
     xc contribution           =     -75.27560989 Ry
     ewald contribution        =    -247.48344515 Ry

     convergence has been achieved in   3 iterations

     Forces acting on atoms (cartesian axes, Ry/au):

     atom    1 type  1   force =     0.00000000   -0.00000000    0.00000000
     atom    2 type  1   force =     0.00000000    0.00000000    0.00000000
     atom    3 type  2   force =     0.00000000    0.00000000    0.00000000
     atom    4 type  2   force =     0.00000000    0.00000000    0.00000000
     atom    5 type  3   force =     0.00032534   -0.00056350   -0.00000000
     atom    6 type  3   force =    -0.00065067    0.00000000    0.00000000
     atom    7 type  3   force =     0.00032534    0.00056350    0.00000000
     atom    8 type  3   force =     0.00065067   -0.00000000   -0.00000000
     atom    9 type  3   force =    -0.00032534   -0.00056350   -0.00000000
     atom   10 type  3   force =    -0.00032534    0.00056350    0.00000000

     Total force =     0.001594     Total SCF correction =     0.002568
     SCF correction compared to forces is large: reduce conv_thr to get better values


     Computing stress (Cartesian axis) and pressure

          total   stress  (Ry/bohr**3)                   (kbar)     P=    5.11
   0.00003127  -0.00000000   0.00000000          4.60     -0.00      0.00
  -0.00000000   0.00003127   0.00000000         -0.00      4.60      0.00
   0.00000000   0.00000000   0.00004163          0.00      0.00      6.12


     number of scf cycles    =   4
     number of bfgs steps    =   1

     enthalpy old            =    -367.4334895624 Ry
     enthalpy new            =    -367.4334880860 Ry

     CASE: enthalpy_new > enthalpy_old

     new trust radius        =       0.0002061145 bohr
     new conv_thr            =       0.0000100000 Ry

     new unit-cell volume =    854.66364 a.u.^3 (   126.64808 Ang^3 )
     density =      2.62461 g/cm^3

CELL_PARAMETERS (alat= 12.16420000)
   0.392096394  -0.226376959   0.891596294
   0.000000000   0.452753917   0.891596294
  -0.392096394  -0.226376959   0.891596294

ATOMIC_POSITIONS (crystal)
Ca       0.500000000   0.500000000   0.500000000
Ca       0.000000000  -0.000000000  -0.000000000
C        0.250000000   0.250000000   0.250000000
C        0.750000000   0.750000000   0.750000000
O        0.506911146   0.993088854   0.250000000
O        0.993088854   0.250000000   0.506911146
O        0.250000000   0.506911146   0.993088854
O        0.006911146   0.750000000   0.493088854
O        0.750000000   0.493088854   0.006911146
O        0.493088854   0.006911146   0.750000000



     Writing output data file CCO_k.save/
     NEW-OLD atomic charge density approx. for the potential

     Check: negative core charge=   -0.000003
     extrapolated charge   64.01026, renormalised to   64.00000

     total cpu time spent up to now is       74.6 secs

     Self-consistent Calculation

     iteration #  1     ecut=    70.00 Ry     beta= 0.70
     CG style diagonalization
     ethr =  1.00E-06,  avg # of iterations =  2.0

     Threshold (ethr) on eigenvalues was too large:
     Diagonalizing with lowered threshold

     CG style diagonalization
     ethr =  4.17E-08,  avg # of iterations =  2.6

     total cpu time spent up to now is       78.3 secs

     total energy              =    -367.43347345 Ry
     Harris-Foulkes estimate   =    -367.41513439 Ry
     estimated scf accuracy    <       0.00002626 Ry

     iteration #  2     ecut=    70.00 Ry     beta= 0.70
     CG style diagonalization
     ethr =  4.10E-08,  avg # of iterations =  4.5

     total cpu time spent up to now is       81.9 secs

     total energy              =    -367.43348719 Ry
     Harris-Foulkes estimate   =    -367.43350297 Ry
     estimated scf accuracy    <       0.00003536 Ry

     iteration #  3     ecut=    70.00 Ry     beta= 0.70
     CG style diagonalization
     ethr =  4.10E-08,  avg # of iterations =  3.7

     total cpu time spent up to now is       85.0 secs

     End of self-consistent calculation

          k = 0.0000 0.0000 0.0000 (  8387 PWs)   bands (ev):

   -33.7013 -33.6887 -17.0881 -17.0783 -15.1317 -15.1317 -14.7664 -14.7664
   -14.6733 -14.5653 -13.9099 -13.9099 -13.3785 -13.3785  -3.3180  -3.0450
    -1.6953  -1.5384  -1.5384  -1.2793  -1.2793  -0.4072   2.3520   2.3520
     2.7847   2.7847   2.9559   2.9559   3.5706   3.5706   3.7718   4.1987

          k =-0.4251-0.2454 0.1246 (  8463 PWs)   bands (ev):

   -33.6978 -33.6915 -17.1059 -17.0316 -15.1195 -15.0131 -14.9964 -14.8414
   -14.6753 -14.6577 -13.7368 -13.6203 -13.5607 -13.4650  -3.0279  -3.0256
    -1.5439  -1.4201  -1.2816  -1.2765  -1.2097  -0.7139   2.2824   2.3575
     2.5669   2.5901   2.7176   2.8229   3.1952   3.2288   4.2401   4.2549

          k =-0.4251 0.2454 0.2492 (  8463 PWs)   bands (ev):

   -33.6978 -33.6915 -17.1451 -16.9916 -15.1583 -15.1318 -14.8034 -14.7455
   -14.7235 -14.6951 -13.8015 -13.7426 -13.4625 -13.4224  -3.1171  -2.9436
    -1.5436  -1.3958  -1.3525  -1.2191  -1.1271  -0.7722   2.1441   2.3758
     2.4942   2.7041   2.7108   2.9589   2.9874   3.3461   4.1589   4.3249

          k = 0.4251 0.7362 0.0000 (  8457 PWs)   bands (ev):

   -33.6945 -33.6945 -17.0654 -17.0652 -15.1194 -15.0846 -14.9195 -14.8306
   -14.7210 -14.6632 -13.7367 -13.7300 -13.4566 -13.4534  -2.9298  -2.9292
    -1.5268  -1.4170  -1.3593  -1.2036  -0.8924  -0.8465   2.1295   2.1410
     2.4578   2.4754   2.6582   2.6950   3.1797   3.2233   4.3671   4.3707

          k =-0.0000-0.0000 0.3739 (  8453 PWs)   bands (ev):

   -33.6981 -33.6919 -17.0875 -17.0827 -15.0637 -15.0637 -14.8902 -14.8902
   -14.6435 -14.5896 -13.7449 -13.7449 -13.4884 -13.4884  -3.2878  -3.1621
    -1.4735  -1.4735  -1.3443  -1.3443  -1.3381  -0.7025   2.4609   2.4609
     2.6714   2.6714   3.1002   3.1002   3.3985   3.3985   3.8653   4.0719

          k = 0.8501 0.4908 0.1246 (  8452 PWs)   bands (ev):

   -33.6947 -33.6946 -17.1114 -17.0325 -15.1720 -15.0231 -14.9358 -14.7696
   -14.7247 -14.6290 -13.8122 -13.6759 -13.5218 -13.4152  -3.1258  -2.9511
    -1.5303  -1.3665  -1.3572  -1.2681  -0.9579  -0.8935   2.1863   2.3397
     2.5834   2.6609   2.6807   2.9427   3.0756   3.1818   4.1657   4.3073

     highest occupied level (ev):     4.3707

!    total energy              =    -367.43349128 Ry
     Harris-Foulkes estimate   =    -367.43349181 Ry
     estimated scf accuracy    <       0.00000067 Ry

     The total energy is the sum of the following terms:

     one-electron contribution =    -148.15480620 Ry
     hartree contribution      =     103.46155683 Ry
     xc contribution           =     -75.27115780 Ry
     ewald contribution        =    -247.46908411 Ry

     convergence has been achieved in   3 iterations

     Forces acting on atoms (cartesian axes, Ry/au):

     atom    1 type  1   force =    -0.00000000    0.00000000    0.00000000
     atom    2 type  1   force =     0.00000000    0.00000000    0.00000000
     atom    3 type  2   force =     0.00000000   -0.00000000    0.00000000
     atom    4 type  2   force =     0.00000000    0.00000000    0.00000000
     atom    5 type  3   force =     0.00019666   -0.00034063   -0.00000000
     atom    6 type  3   force =    -0.00039333   -0.00000000   -0.00000000
     atom    7 type  3   force =     0.00019666    0.00034063    0.00000000
     atom    8 type  3   force =     0.00039333    0.00000000    0.00000000
     atom    9 type  3   force =    -0.00019666   -0.00034063   -0.00000000
     atom   10 type  3   force =    -0.00019666    0.00034063    0.00000000

     Total force =     0.000963     Total SCF correction =     0.001275
     SCF correction compared to forces is large: reduce conv_thr to get better values


     Computing stress (Cartesian axis) and pressure

          total   stress  (Ry/bohr**3)                   (kbar)     P=    2.06
   0.00001155  -0.00000000   0.00000000          1.70     -0.00      0.00
  -0.00000000   0.00001155   0.00000000         -0.00      1.70      0.00
  -0.00000000   0.00000000   0.00001885         -0.00      0.00      2.77


     number of scf cycles    =   5
     number of bfgs steps    =   1

     enthalpy old            =    -367.4334895624 Ry
     enthalpy new            =    -367.4334912837 Ry

     CASE: enthalpy_new < enthalpy_old

     new trust radius        =       0.0003091796 bohr
     new conv_thr            =       0.0000001000 Ry

     new unit-cell volume =    854.67172 a.u.^3 (   126.64928 Ang^3 )
     density =      2.62459 g/cm^3

CELL_PARAMETERS (alat= 12.16420000)
   0.392087879  -0.226372043   0.891643441
   0.000000000   0.452744085   0.891643441
  -0.392087879  -0.226372043   0.891643441

ATOMIC_POSITIONS (crystal)
Ca       0.500000000   0.500000000   0.500000000
Ca       0.000000000  -0.000000000  -0.000000000
C        0.250000000   0.250000000   0.250000000
C        0.750000000   0.750000000   0.750000000
O        0.506936613   0.993063387   0.250000000
O        0.993063387   0.250000000   0.506936613
O        0.250000000   0.506936613   0.993063387
O        0.006936613   0.750000000   0.493063387
O        0.750000000   0.493063387   0.006936613
O        0.493063387   0.006936613   0.750000000



     Writing output data file CCO_k.save/
     NEW-OLD atomic charge density approx. for the potential

     Check: negative core charge=   -0.000003
     extrapolated charge   64.00060, renormalised to   64.00000

     total cpu time spent up to now is       85.5 secs

     Self-consistent Calculation

     iteration #  1     ecut=    70.00 Ry     beta= 0.70
     CG style diagonalization
     ethr =  1.00E-06,  avg # of iterations =  2.0

     Threshold (ethr) on eigenvalues was too large:
     Diagonalizing with lowered threshold

     CG style diagonalization
     ethr =  2.21E-09,  avg # of iterations =  4.2

     total cpu time spent up to now is       90.3 secs

     total energy              =    -367.43349096 Ry
     Harris-Foulkes estimate   =    -367.43241075 Ry
     estimated scf accuracy    <       0.00000229 Ry

     iteration #  2     ecut=    70.00 Ry     beta= 0.70
     CG style diagonalization
     ethr =  3.57E-09,  avg # of iterations =  4.1

     total cpu time spent up to now is       93.7 secs

     total energy              =    -367.43349173 Ry
     Harris-Foulkes estimate   =    -367.43349271 Ry
     estimated scf accuracy    <       0.00000199 Ry

     iteration #  3     ecut=    70.00 Ry     beta= 0.70
     CG style diagonalization
     ethr =  3.11E-09,  avg # of iterations =  3.7

     total cpu time spent up to now is       96.8 secs

     End of self-consistent calculation

          k = 0.0000 0.0000 0.0000 (  8387 PWs)   bands (ev):

   -33.6998 -33.6873 -17.0851 -17.0751 -15.1303 -15.1303 -14.7651 -14.7651
   -14.6720 -14.5638 -13.9072 -13.9072 -13.3760 -13.3760  -3.3169  -3.0439
    -1.6933  -1.5366  -1.5366  -1.2774  -1.2774  -0.4048   2.3534   2.3534
     2.7865   2.7865   2.9577   2.9577   3.5722   3.5722   3.7728   4.1998

          k =-0.4251-0.2454 0.1246 (  8463 PWs)   bands (ev):

   -33.6963 -33.6901 -17.1028 -17.0285 -15.1181 -15.0117 -14.9950 -14.8401
   -14.6740 -14.6563 -13.7343 -13.6178 -13.5583 -13.4625  -3.0267  -3.0245
    -1.5420  -1.4182  -1.2797  -1.2745  -1.2077  -0.7116   2.2840   2.3591
     2.5686   2.5918   2.7191   2.8245   3.1967   3.2303   4.2414   4.2563

          k =-0.4251 0.2454 0.2492 (  8463 PWs)   bands (ev):

   -33.6963 -33.6901 -17.1420 -16.9884 -15.1569 -15.1304 -14.8021 -14.7443
   -14.7220 -14.6938 -13.7990 -13.7400 -13.4601 -13.4199  -3.1160  -2.9424
    -1.5417  -1.3939  -1.3504  -1.2171  -1.1250  -0.7700   2.1456   2.3772
     2.4958   2.7057   2.7125   2.9604   2.9889   3.3476   4.1602   4.3262

          k = 0.4251 0.7363 0.0000 (  8457 PWs)   bands (ev):

   -33.6930 -33.6930 -17.0622 -17.0620 -15.1181 -15.0832 -14.9182 -14.8291
   -14.7198 -14.6619 -13.7343 -13.7276 -13.4541 -13.4509  -2.9286  -2.9280
    -1.5249  -1.4151  -1.3573  -1.2017  -0.8903  -0.8444   2.1310   2.1426
     2.4594   2.4770   2.6596   2.6964   3.1812   3.2248   4.3685   4.3721

          k =-0.0000 0.0000 0.3738 (  8453 PWs)   bands (ev):

   -33.6967 -33.6904 -17.0845 -17.0795 -15.0623 -15.0623 -14.8889 -14.8889
   -14.6421 -14.5881 -13.7424 -13.7424 -13.4859 -13.4859  -3.2866  -3.1609
    -1.4717  -1.4717  -1.3424  -1.3424  -1.3361  -0.7003   2.4624   2.4624
     2.6731   2.6731   3.1019   3.1019   3.4002   3.4002   3.8663   4.0730

          k = 0.8501 0.4908 0.1246 (  8452 PWs)   bands (ev):

   -33.6932 -33.6932 -17.1083 -17.0293 -15.1706 -15.0217 -14.9344 -14.7683
   -14.7235 -14.6276 -13.8096 -13.6735 -13.5193 -13.4127  -3.1246  -2.9500
    -1.5284  -1.3646  -1.3553  -1.2661  -0.9559  -0.8913   2.1878   2.3412
     2.5850   2.6626   2.6822   2.9443   3.0770   3.1833   4.1670   4.3086

     highest occupied level (ev):     4.3721

!    total energy              =    -367.43349208 Ry
     Harris-Foulkes estimate   =    -367.43349208 Ry
     estimated scf accuracy    <          3.8E-09 Ry

     The total energy is the sum of the following terms:

     one-electron contribution =    -148.13924577 Ry
     hartree contribution      =     103.44982812 Ry
     xc contribution           =     -75.26895483 Ry
     ewald contribution        =    -247.47511960 Ry

     convergence has been achieved in   3 iterations

     Forces acting on atoms (cartesian axes, Ry/au):

     atom    1 type  1   force =     0.00000000    0.00000000    0.00000000
     atom    2 type  1   force =    -0.00000000    0.00000000    0.00000000
     atom    3 type  2   force =    -0.00000000   -0.00000000    0.00000000
     atom    4 type  2   force =     0.00000000    0.00000000    0.00000000
     atom    5 type  3   force =    -0.00001193    0.00002067    0.00000000
     atom    6 type  3   force =     0.00002386   -0.00000000    0.00000000
     atom    7 type  3   force =    -0.00001193   -0.00002067   -0.00000000
     atom    8 type  3   force =    -0.00002386    0.00000000   -0.00000000
     atom    9 type  3   force =     0.00001193    0.00002067    0.00000000
     atom   10 type  3   force =     0.00001193   -0.00002067   -0.00000000

     Total force =     0.000058     Total SCF correction =     0.000257
     SCF correction compared to forces is large: reduce conv_thr to get better values


     Computing stress (Cartesian axis) and pressure

          total   stress  (Ry/bohr**3)                   (kbar)     P=    0.70
   0.00000212   0.00000000  -0.00000000          0.31      0.00     -0.00
   0.00000000   0.00000212   0.00000000          0.00      0.31      0.00
  -0.00000000   0.00000000   0.00000996         -0.00      0.00      1.47


     number of scf cycles    =   6
     number of bfgs steps    =   2

     enthalpy old            =    -367.4334912837 Ry
     enthalpy new            =    -367.4334920796 Ry

     CASE: enthalpy_new < enthalpy_old

     new trust radius        =       0.0009274943 bohr
     new conv_thr            =       0.0000001000 Ry

     new unit-cell volume =    854.66796 a.u.^3 (   126.64872 Ang^3 )
     density =      2.62460 g/cm^3

CELL_PARAMETERS (alat= 12.16420000)
   0.392055923  -0.226353593   0.891784881
   0.000000000   0.452707186   0.891784881
  -0.392055923  -0.226353593   0.891784881

ATOMIC_POSITIONS (crystal)
Ca       0.500000000   0.500000000   0.500000000
Ca      -0.000000000   0.000000000  -0.000000000
C        0.250000000   0.250000000   0.250000000
C        0.750000000   0.750000000   0.750000000
O        0.506951298   0.993048702   0.250000000
O        0.993048702   0.250000000   0.506951298
O        0.250000000   0.506951298   0.993048702
O        0.006951298   0.750000000   0.493048702
O        0.750000000   0.493048702   0.006951298
O        0.493048702   0.006951298   0.750000000



     Writing output data file CCO_k.save/
     NEW-OLD atomic charge density approx. for the potential

     Check: negative core charge=   -0.000003
     extrapolated charge   63.99972, renormalised to   64.00000

     total cpu time spent up to now is       97.2 secs

     Self-consistent Calculation

     iteration #  1     ecut=    70.00 Ry     beta= 0.70
     CG style diagonalization
     ethr =  1.00E-06,  avg # of iterations =  2.0

     Threshold (ethr) on eigenvalues was too large:
     Diagonalizing with lowered threshold

     CG style diagonalization
     c_bands:  1 eigenvalues not converged
     c_bands:  1 eigenvalues not converged
     ethr =  6.31E-11,  avg # of iterations =  7.1

     total cpu time spent up to now is      104.2 secs

     End of self-consistent calculation

          k = 0.0000 0.0000 0.0000 (  8387 PWs)   bands (ev):

   -33.7004 -33.6879 -17.0855 -17.0752 -15.1307 -15.1307 -14.7657 -14.7657
   -14.6725 -14.5641 -13.9072 -13.9072 -13.3762 -13.3762  -3.3170  -3.0440
    -1.6933  -1.5368  -1.5368  -1.2776  -1.2776  -0.4051   2.3533   2.3533
     2.7870   2.7870   2.9579   2.9579   3.5721   3.5721   3.7726   4.1997

          k =-0.4251-0.2454 0.1246 (  8463 PWs)   bands (ev):

   -33.6969 -33.6907 -17.1029 -17.0287 -15.1186 -15.0122 -14.9955 -14.8406
   -14.6745 -14.6569 -13.7343 -13.6180 -13.5583 -13.4627  -3.0267  -3.0244
    -1.5420  -1.4183  -1.2798  -1.2745  -1.2078  -0.7119   2.2840   2.3590
     2.5687   2.5919   2.7190   2.8245   3.1964   3.2301   4.2415   4.2564

          k =-0.4251 0.2454 0.2492 (  8463 PWs)   bands (ev):

   -33.6969 -33.6907 -17.1422 -16.9887 -15.1573 -15.1309 -14.8026 -14.7449
   -14.7225 -14.6943 -13.7991 -13.7402 -13.4602 -13.4200  -3.1160  -2.9424
    -1.5418  -1.3940  -1.3504  -1.2173  -1.1251  -0.7702   2.1455   2.3771
     2.4959   2.7058   2.7126   2.9603   2.9888   3.3473   4.1603   4.3263

          k = 0.4251 0.7363 0.0000 (  8457 PWs)   bands (ev):

   -33.6936 -33.6936 -17.0624 -17.0622 -15.1186 -15.0837 -14.9186 -14.8296
   -14.7204 -14.6624 -13.7344 -13.7277 -13.4542 -13.4510  -2.9285  -2.9279
    -1.5249  -1.4152  -1.3573  -1.2018  -0.8904  -0.8445   2.1310   2.1426
     2.4593   2.4769   2.6595   2.6963   3.1809   3.2245   4.3687   4.3723

          k =-0.0000 0.0000 0.3738 (  8453 PWs)   bands (ev):

   -33.6973 -33.6910 -17.0848 -17.0797 -15.0627 -15.0627 -14.8893 -14.8893
   -14.6426 -14.5885 -13.7425 -13.7425 -13.4861 -13.4861  -3.2867  -3.1610
    -1.4719  -1.4719  -1.3426  -1.3426  -1.3362  -0.7006   2.4624   2.4624
     2.6734   2.6734   3.1021   3.1021   3.4002   3.4002   3.8661   4.0729

          k = 0.8502 0.4909 0.1246 (  8452 PWs)   bands (ev):

   -33.6938 -33.6938 -17.1086 -17.0295 -15.1710 -15.0223 -14.9349 -14.7689
   -14.7241 -14.6280 -13.8097 -13.6736 -13.5194 -13.4129  -3.1246  -2.9499
    -1.5284  -1.3647  -1.3554  -1.2661  -0.9560  -0.8914   2.1877   2.3412
     2.5850   2.6627   2.6824   2.9442   3.0769   3.1830   4.1672   4.3088

     highest occupied level (ev):     4.3723

!    total energy              =    -367.43349302 Ry
     Harris-Foulkes estimate   =    -367.43399659 Ry
     estimated scf accuracy    <       0.00000006 Ry

     The total energy is the sum of the following terms:

     one-electron contribution =    -148.14958348 Ry
     hartree contribution      =     103.45589264 Ry
     xc contribution           =     -75.26964963 Ry
     ewald contribution        =    -247.47015255 Ry

     convergence has been achieved in   1 iterations

     Forces acting on atoms (cartesian axes, Ry/au):

     atom    1 type  1   force =     0.00000000    0.00000000    0.00000000
     atom    2 type  1   force =     0.00000000    0.00000000    0.00000000
     atom    3 type  2   force =    -0.00000000    0.00000000    0.00000000
     atom    4 type  2   force =     0.00000000    0.00000000    0.00000000
     atom    5 type  3   force =    -0.00002131    0.00003690    0.00000000
     atom    6 type  3   force =     0.00004261    0.00000000    0.00000000
     atom    7 type  3   force =    -0.00002131   -0.00003690   -0.00000000
     atom    8 type  3   force =    -0.00004261    0.00000000   -0.00000000
     atom    9 type  3   force =     0.00002131    0.00003690    0.00000000
     atom   10 type  3   force =     0.00002131   -0.00003690   -0.00000000

     Total force =     0.000104     Total SCF correction =     0.000856
     SCF correction compared to forces is large: reduce conv_thr to get better values


     Computing stress (Cartesian axis) and pressure

          total   stress  (Ry/bohr**3)                   (kbar)     P=    1.08
   0.00000499   0.00000000   0.00000000          0.73      0.00      0.00
   0.00000000   0.00000499   0.00000000          0.00      0.73      0.00
  -0.00000000   0.00000000   0.00001204         -0.00      0.00      1.77


     number of scf cycles    =   7
     number of bfgs steps    =   3

     enthalpy old            =    -367.4334920796 Ry
     enthalpy new            =    -367.4334930186 Ry

     CASE: enthalpy_new < enthalpy_old


     WARNING: bfgs curvature condition failed, Theta= 0.974
     new trust radius        =       0.0013910177 bohr
     new conv_thr            =       0.0000001000 Ry

     new unit-cell volume =    854.67524 a.u.^3 (   126.64980 Ang^3 )
     density =      2.62458 g/cm^3

CELL_PARAMETERS (alat= 12.16420000)
   0.392010966  -0.226327637   0.891997041
   0.000000000   0.452655273   0.891997041
  -0.392010966  -0.226327637   0.891997041

ATOMIC_POSITIONS (crystal)
Ca       0.500000000   0.500000000   0.500000000
Ca      -0.000000000   0.000000000  -0.000000000
C        0.250000000   0.250000000   0.250000000
C        0.750000000   0.750000000   0.750000000
O        0.506968734   0.993031266   0.250000000
O        0.993031266   0.250000000   0.506968734
O        0.250000000   0.506968734   0.993031266
O        0.006968734   0.750000000   0.493031266
O        0.750000000   0.493031266   0.006968734
O        0.493031266   0.006968734   0.750000000



     Writing output data file CCO_k.save/
     NEW-OLD atomic charge density approx. for the potential

     Check: negative core charge=   -0.000003
     extrapolated charge   64.00055, renormalised to   64.00000

     total cpu time spent up to now is      104.7 secs

     Self-consistent Calculation

     iteration #  1     ecut=    70.00 Ry     beta= 0.70
     CG style diagonalization
     ethr =  1.00E-06,  avg # of iterations =  2.0

     Threshold (ethr) on eigenvalues was too large:
     Diagonalizing with lowered threshold

     CG style diagonalization
     ethr =  2.79E-10,  avg # of iterations =  6.4

     total cpu time spent up to now is      111.1 secs

     total energy              =    -367.43349418 Ry
     Harris-Foulkes estimate   =    -367.43251789 Ry
     estimated scf accuracy    <       0.00000012 Ry

     iteration #  2     ecut=    70.00 Ry     beta= 0.70
     CG style diagonalization
     ethr =  1.87E-10,  avg # of iterations =  4.5

     total cpu time spent up to now is      114.7 secs

     total energy              =    -367.43349422 Ry
     Harris-Foulkes estimate   =    -367.43349429 Ry
     estimated scf accuracy    <       0.00000015 Ry

     iteration #  3     ecut=    70.00 Ry     beta= 0.70
     CG style diagonalization
     ethr =  1.87E-10,  avg # of iterations =  3.8

     total cpu time spent up to now is      117.9 secs

     End of self-consistent calculation

          k = 0.0000 0.0000 0.0000 (  8387 PWs)   bands (ev):

   -33.6998 -33.6873 -17.0869 -17.0765 -15.1304 -15.1304 -14.7652 -14.7652
   -14.6718 -14.5635 -13.9079 -13.9079 -13.3768 -13.3768  -3.3170  -3.0438
    -1.6943  -1.5371  -1.5371  -1.2777  -1.2777  -0.4066   2.3530   2.3530
     2.7875   2.7875   2.9580   2.9580   3.5715   3.5715   3.7725   4.1995

          k =-0.4252-0.2455 0.1246 (  8463 PWs)   bands (ev):

   -33.6963 -33.6901 -17.1041 -17.0301 -15.1183 -15.0119 -14.9952 -14.8402
   -14.6740 -14.6565 -13.7348 -13.6186 -13.5587 -13.4632  -3.0265  -3.0241
    -1.5423  -1.4185  -1.2800  -1.2746  -1.2086  -0.7133   2.2839   2.3589
     2.5688   2.5920   2.7186   2.8241   3.1958   3.2294   4.2417   4.2565

          k =-0.4252 0.2455 0.2491 (  8463 PWs)   bands (ev):

   -33.6963 -33.6901 -17.1434 -16.9901 -15.1570 -15.1307 -14.8022 -14.7444
   -14.7222 -14.6937 -13.7998 -13.7409 -13.4606 -13.4204  -3.1156  -2.9422
    -1.5419  -1.3941  -1.3509  -1.2175  -1.1257  -0.7716   2.1454   2.3769
     2.4958   2.7056   2.7127   2.9599   2.9884   3.3465   4.1606   4.3265

          k = 0.4252 0.7364 0.0000 (  8457 PWs)   bands (ev):

   -33.6930 -33.6930 -17.0637 -17.0634 -15.1184 -15.0836 -14.9183 -14.8294
   -14.7198 -14.6619 -13.7350 -13.7283 -13.4546 -13.4514  -2.9280  -2.9275
    -1.5251  -1.4153  -1.3576  -1.2020  -0.8915  -0.8456   2.1310   2.1426
     2.4592   2.4766   2.6591   2.6959   3.1803   3.2238   4.3691   4.3727

          k =-0.0000 0.0000 0.3737 (  8453 PWs)   bands (ev):

   -33.6967 -33.6904 -17.0862 -17.0810 -15.0624 -15.0624 -14.8890 -14.8890
   -14.6419 -14.5878 -13.7431 -13.7431 -13.4867 -13.4867  -3.2866  -3.1608
    -1.4721  -1.4721  -1.3428  -1.3428  -1.3374  -0.7020   2.4623   2.4623
     2.6736   2.6736   3.1021   3.1021   3.3998   3.3998   3.8660   4.0727

          k = 0.8503 0.4909 0.1246 (  8452 PWs)   bands (ev):

   -33.6932 -33.6932 -17.1098 -17.0308 -15.1708 -15.0220 -14.9346 -14.7684
   -14.7235 -14.6275 -13.8105 -13.6741 -13.5198 -13.4133  -3.1244  -2.9496
    -1.5285  -1.3649  -1.3558  -1.2663  -0.9571  -0.8925   2.1876   2.3410
     2.5848   2.6627   2.6822   2.9439   3.0763   3.1824   4.1674   4.3090

     highest occupied level (ev):     4.3727

!    total energy              =    -367.43349424 Ry
     Harris-Foulkes estimate   =    -367.43349424 Ry
     estimated scf accuracy    <          1.6E-09 Ry

     The total energy is the sum of the following terms:

     one-electron contribution =    -148.16755246 Ry
     hartree contribution      =     103.46396759 Ry
     xc contribution           =     -75.26995435 Ry
     ewald contribution        =    -247.45995503 Ry

     convergence has been achieved in   3 iterations

     Forces acting on atoms (cartesian axes, Ry/au):

     atom    1 type  1   force =     0.00000000    0.00000000    0.00000000
     atom    2 type  1   force =     0.00000000    0.00000000    0.00000000
     atom    3 type  2   force =     0.00000000   -0.00000000   -0.00000000
     atom    4 type  2   force =     0.00000000    0.00000000    0.00000000
     atom    5 type  3   force =     0.00007175   -0.00012428   -0.00000000
     atom    6 type  3   force =    -0.00014351    0.00000000    0.00000000
     atom    7 type  3   force =     0.00007175    0.00012428    0.00000000
     atom    8 type  3   force =     0.00014351   -0.00000000   -0.00000000
     atom    9 type  3   force =    -0.00007175   -0.00012428   -0.00000000
     atom   10 type  3   force =    -0.00007175    0.00012428    0.00000000

     Total force =     0.000352     Total SCF correction =     0.000048
     SCF correction compared to forces is large: reduce conv_thr to get better values


     Computing stress (Cartesian axis) and pressure

          total   stress  (Ry/bohr**3)                   (kbar)     P=    1.02
   0.00000547   0.00000000   0.00000000          0.80      0.00      0.00
  -0.00000000   0.00000547   0.00000000         -0.00      0.80      0.00
  -0.00000000   0.00000000   0.00000977         -0.00      0.00      1.44


     number of scf cycles    =   8
     number of bfgs steps    =   4

     enthalpy old            =    -367.4334930186 Ry
     enthalpy new            =    -367.4334942423 Ry

     CASE: enthalpy_new < enthalpy_old

     new trust radius        =       0.0020860391 bohr
     new conv_thr            =       0.0000001000 Ry

     new unit-cell volume =    854.68478 a.u.^3 (   126.65122 Ang^3 )
     density =      2.62455 g/cm^3

CELL_PARAMETERS (alat= 12.16420000)
   0.391943241  -0.226288535   0.892315281
   0.000000000   0.452577071   0.892315281
  -0.391943241  -0.226288535   0.892315281

ATOMIC_POSITIONS (crystal)
Ca       0.500000000   0.500000000   0.500000000
Ca       0.000000000   0.000000000  -0.000000000
C        0.250000000   0.250000000   0.250000000
C        0.750000000   0.750000000   0.750000000
O        0.507009004   0.992990996   0.250000000
O        0.992990996   0.250000000   0.507009004
O        0.250000000   0.507009004   0.992990996
O        0.007009004   0.750000000   0.492990996
O        0.750000000   0.492990996   0.007009004
O        0.492990996   0.007009004   0.750000000



     Writing output data file CCO_k.save/
     NEW-OLD atomic charge density approx. for the potential

     Check: negative core charge=   -0.000003
     extrapolated charge   64.00071, renormalised to   64.00000

     total cpu time spent up to now is      118.4 secs

     Self-consistent Calculation

     iteration #  1     ecut=    70.00 Ry     beta= 0.70
     CG style diagonalization
     ethr =  1.00E-06,  avg # of iterations =  2.0

     Threshold (ethr) on eigenvalues was too large:
     Diagonalizing with lowered threshold

     CG style diagonalization
     ethr =  5.50E-10,  avg # of iterations =  5.9

     total cpu time spent up to now is      124.4 secs

     total energy              =    -367.43349546 Ry
     Harris-Foulkes estimate   =    -367.43221788 Ry
     estimated scf accuracy    <       0.00000036 Ry

     iteration #  2     ecut=    70.00 Ry     beta= 0.70
     CG style diagonalization
     ethr =  5.58E-10,  avg # of iterations =  4.0

     total cpu time spent up to now is      127.7 secs

     total energy              =    -367.43349557 Ry
     Harris-Foulkes estimate   =    -367.43349567 Ry
     estimated scf accuracy    <       0.00000019 Ry

     iteration #  3     ecut=    70.00 Ry     beta= 0.70
     CG style diagonalization
     ethr =  3.03E-10,  avg # of iterations =  3.6

     total cpu time spent up to now is      130.7 secs

     End of self-consistent calculation

          k = 0.0000 0.0000 0.0000 (  8387 PWs)   bands (ev):

   -33.6996 -33.6871 -17.0879 -17.0771 -15.1304 -15.1304 -14.7652 -14.7652
   -14.6715 -14.5630 -13.9083 -13.9083 -13.3772 -13.3772  -3.3173  -3.0440
    -1.6948  -1.5374  -1.5374  -1.2779  -1.2779  -0.4079   2.3525   2.3525
     2.7883   2.7883   2.9582   2.9582   3.5708   3.5708   3.7719   4.1989

          k =-0.4252-0.2455 0.1245 (  8463 PWs)   bands (ev):

   -33.6961 -33.6899 -17.1047 -17.0309 -15.1184 -15.0119 -14.9952 -14.8401
   -14.6738 -14.6564 -13.7351 -13.6190 -13.5588 -13.4635  -3.0266  -3.0241
    -1.5424  -1.4187  -1.2801  -1.2746  -1.2092  -0.7144   2.2837   2.3587
     2.5690   2.5921   2.7181   2.8237   3.1949   3.2286   4.2417   4.2565

          k =-0.4252 0.2455 0.2490 (  8463 PWs)   bands (ev):

   -33.6961 -33.6899 -17.1440 -16.9909 -15.1570 -15.1308 -14.8021 -14.7443
   -14.7222 -14.6934 -13.8002 -13.7413 -13.4608 -13.4205  -3.1156  -2.9423
    -1.5420  -1.3943  -1.3512  -1.2178  -1.1261  -0.7727   2.1452   2.3765
     2.4958   2.7056   2.7128   2.9594   2.9878   3.3455   4.1607   4.3265

          k = 0.4252 0.7365 0.0000 (  8457 PWs)   bands (ev):

   -33.6928 -33.6928 -17.0643 -17.0641 -15.1185 -15.0837 -14.9184 -14.8294
[...]
     some processors have no G-vectors for symmetrization
     Message from routine sym_rho_init:
     some processors have no G-vectors for symmetrization
     Message from routine sym_rho_init:
     some processors have no G-vectors for symmetrization
     Message from routine sym_rho_init:
     some processors have no G-vectors for symmetrization
     Message from routine sym_rho_init:
     some processors have no G-vectors for symmetrization
     Message from routine sym_rho_init:
     some processors have no G-vectors for symmetrization
     Message from routine sym_rho_init:
     some processors have no G-vectors for symmetrization
     Message from routine sym_rho_init:
     some processors have no G-vectors for symmetrization
     Message from routine sym_rho_init:
     some processors have no G-vectors for symmetrization
     Message from routine sym_rho_init:
     some processors have no G-vectors for symmetrization
     Message from routine sym_rho_init:
     some processors have no G-vectors for symmetrization
     Message from routine sym_rho_init:
     some processors have no G-vectors for symmetrization
     Message from routine sym_rho_init:
     some processors have no G-vectors for symmetrization
     Message from routine sym_rho_init:
     some processors have no G-vectors for symmetrization
     Message from routine sym_rho_init:
     some processors have no G-vectors for symmetrization
     Message from routine sym_rho_init:
     some processors have no G-vectors for symmetrization
     Message from routine sym_rho_init:
     some processors have no G-vectors for symmetrization
     Message from routine sym_rho_init:
     some processors have no G-vectors for symmetrization
     Message from routine sym_rho_init:
     some processors have no G-vectors for symmetrization
     Message from routine sym_rho_init:
     some processors have no G-vectors for symmetrization
     Message from routine sym_rho_init:
     some processors have no G-vectors for symmetrization
     Message from routine sym_rho_init:
     some processors have no G-vectors for symmetrization
     Message from routine sym_rho_init:
     some processors have no G-vectors for symmetrization
     Message from routine sym_rho_init:
     some processors have no G-vectors for symmetrization
     Message from routine sym_rho_init:
     some processors have no G-vectors for symmetrization
     Message from routine sym_rho_init:
     some processors have no G-vectors for symmetrization
     Message from routine sym_rho_init:
     some processors have no G-vectors for symmetrization
     Message from routine sym_rho_init:
     some processors have no G-vectors for symmetrization
     Message from routine sym_rho_init:
     some processors have no G-vectors for symmetrization
     Message from routine sym_rho_init:
     some processors have no G-vectors for symmetrization
     Message from routine sym_rho_init:
     some processors have no G-vectors for symmetrization
     Message from routine sym_rho_init:
     some processors have no G-vectors for symmetrization
     Message from routine sym_rho_init:
     some processors have no G-vectors for symmetrization
     Message from routine sym_rho_init:
     some processors have no G-vectors for symmetrization
     Message from routine sym_rho_init:
     some processors have no G-vectors for symmetrization
     Message from routine sym_rho_init:
     some processors have no G-vectors for symmetrization
     Message from routine sym_rho_init:
     some processors have no G-vectors for symmetrization
     Message from routine sym_rho_init:
     some processors have no G-vectors for symmetrization
     Message from routine sym_rho_init:
     some processors have no G-vectors for symmetrization
     Message from routine sym_rho_init:
     some processors have no G-vectors for symmetrization
     Message from routine sym_rho_init:
     some processors have no G-vectors for symmetrization
     Message from routine sym_rho_init:
     some processors have no G-vectors for symmetrization
     Message from routine sym_rho_init:
     some processors have no G-vectors for symmetrization
     Message from routine sym_rho_init:
     some processors have no G-vectors for symmetrization
     Message from routine sym_rho_init:
     some processors have no G-vectors for symmetrization
     Message from routine sym_rho_init:
     some processors have no G-vectors for symmetrization
     Message from routine sym_rho_init:
     some processors have no G-vectors for symmetrization
     Message from routine sym_rho_init:
     some processors have no G-vectors for symmetrization
     Message from routine sym_rho_init:
     some processors have no G-vectors for symmetrization
     Message from routine sym_rho_init:
     some processors have no G-vectors for symmetrization
     Message from routine sym_rho_init:
     some processors have no G-vectors for symmetrization
     Message from routine sym_rho_init:
     some processors have no G-vectors for symmetrization
     Message from routine sym_rho_init:
     some processors have no G-vectors for symmetrization
     Message from routine sym_rho_init:
     some processors have no G-vectors for symmetrization
     Message from routine sym_rho_init:
     some processors have no G-vectors for symmetrization
     Message from routine sym_rho_init:
     some processors have no G-vectors for symmetrization
     Message from routine sym_rho_init:
     some processors have no G-vectors for symmetrization
     Message from routine sym_rho_init:
     some processors have no G-vectors for symmetrization
     Message from routine sym_rho_init:
     some processors have no G-vectors for symmetrization
     Message from routine sym_rho_init:
     some processors have no G-vectors for symmetrization
     Message from routine sym_rho_init:
     some processors have no G-vectors for symmetrization
     Message from routine sym_rho_init:
     some processors have no G-vectors for symmetrization
     Message from routine sym_rho_init:
     some processors have no G-vectors for symmetrization
     Message from routine sym_rho_init:
     some processors have no G-vectors for symmetrization
     Message from routine sym_rho_init:
     some processors have no G-vectors for symmetrization
     Message from routine sym_rho_init:
     some processors have no G-vectors for symmetrization
     Message from routine sym_rho_init:
     some processors have no G-vectors for symmetrization
     Message from routine sym_rho_init:
     some processors have no G-vectors for symmetrization
     Message from routine sym_rho_init:
     some processors have no G-vectors for symmetrization
     Message from routine sym_rho_init:
     some processors have no G-vectors for symmetrization
     Message from routine sym_rho_init:
     some processors have no G-vectors for symmetrization
     Message from routine sym_rho_init:
     some processors have no G-vectors for symmetrization
     Message from routine sym_rho_init:
     some processors have no G-vectors for symmetrization
     Message from routine sym_rho_init:
     some processors have no G-vectors for symmetrization
     Message from routine sym_rho_init:
     some processors have no G-vectors for symmetrization
     Message from routine sym_rho_init:
     some processors have no G-vectors for symmetrization
     Message from routine sym_rho_init:
     some processors have no G-vectors for symmetrization
     Message from routine sym_rho_init:
     some processors have no G-vectors for symmetrization
     Message from routine sym_rho_init:
     some processors have no G-vectors for symmetrization
     Message from routine sym_rho_init:
     some processors have no G-vectors for symmetrization
     Message from routine sym_rho_init:
     some processors have no G-vectors for symmetrization
     Message from routine sym_rho_init:
     some processors have no G-vectors for symmetrization
     Message from routine sym_rho_init:
     some processors have no G-vectors for symmetrization
     Message from routine sym_rho_init:
     some processors have no G-vectors for symmetrization
     Message from routine sym_rho_init:
     some processors have no G-vectors for symmetrization
     Message from routine sym_rho_init:
     some processors have no G-vectors for symmetrization
     Message from routine sym_rho_init:
     some processors have no G-vectors for symmetrization
     Message from routine sym_rho_init:
     some processors have no G-vectors for symmetrization
     Message from routine sym_rho_init:
     some processors have no G-vectors for symmetrization
     Message from routine sym_rho_init:
     some processors have no G-vectors for symmetrization
     Message from routine sym_rho_init:
     some processors have no G-vectors for symmetrization
     Message from routine sym_rho_init:
     some processors have no G-vectors for symmetrization
     Message from routine sym_rho_init:
     some processors have no G-vectors for symmetrization
     Message from routine sym_rho_init:
     some processors have no G-vectors for symmetrization
     Message from routine sym_rho_init:
     some processors have no G-vectors for symmetrization
     Message from routine sym_rho_init:
     some processors have no G-vectors for symmetrization
     Message from routine sym_rho_init:
     some processors have no G-vectors for symmetrization
     Message from routine sym_rho_init:
     some processors have no G-vectors for symmetrization
     Message from routine sym_rho_init:
     some processors have no G-vectors for symmetrization
     Message from routine sym_rho_init:
     some processors have no G-vectors for symmetrization
     Message from routine sym_rho_init:
     some processors have no G-vectors for symmetrization
     Message from routine sym_rho_init:
     some processors have no G-vectors for symmetrization
     Message from routine sym_rho_init:
     some processors have no G-vectors for symmetrization

     Check: negative core charge=   -0.000003

     Initial potential from superposition of free atoms

     starting charge   63.98899, renormalised to   64.00000
     Starting wfcs are   52 randomized atomic wfcs

     total cpu time spent up to now is      505.8 secs

     Self-consistent Calculation

     iteration #  1     ecut=    70.00 Ry     beta= 0.70
     CG style diagonalization
     c_bands:  5 eigenvalues not converged
     c_bands:  2 eigenvalues not converged
     ethr =  1.00E-06,  avg # of iterations = 14.4

     total cpu time spent up to now is      516.5 secs

     total energy              =    -366.73118060 Ry
     Harris-Foulkes estimate   =    -367.90715313 Ry
     estimated scf accuracy    <       1.68833989 Ry

     iteration #  2     ecut=    70.00 Ry     beta= 0.70
     CG style diagonalization
     ethr =  2.64E-03,  avg # of iterations =  4.3

     total cpu time spent up to now is      520.0 secs

     total energy              =    -367.11605173 Ry
     Harris-Foulkes estimate   =    -367.87795790 Ry
     estimated scf accuracy    <       1.55782713 Ry

     iteration #  3     ecut=    70.00 Ry     beta= 0.70
     CG style diagonalization
     ethr =  2.43E-03,  avg # of iterations =  3.8

     total cpu time spent up to now is      523.1 secs

     total energy              =    -367.42128454 Ry
     Harris-Foulkes estimate   =    -367.42423248 Ry
     estimated scf accuracy    <       0.01290639 Ry

     iteration #  4     ecut=    70.00 Ry     beta= 0.70
     CG style diagonalization
     ethr =  2.02E-05,  avg # of iterations =  4.3

     total cpu time spent up to now is      526.6 secs

     total energy              =    -367.43312435 Ry
     Harris-Foulkes estimate   =    -367.43417001 Ry
     estimated scf accuracy    <       0.00282397 Ry

     iteration #  5     ecut=    70.00 Ry     beta= 0.70
     CG style diagonalization
     ethr =  4.41E-06,  avg # of iterations =  3.5

     total cpu time spent up to now is      529.5 secs

     total energy              =    -367.43345862 Ry
     Harris-Foulkes estimate   =    -367.43351013 Ry
     estimated scf accuracy    <       0.00017989 Ry

     iteration #  6     ecut=    70.00 Ry     beta= 0.70
     CG style diagonalization
     ethr =  2.81E-07,  avg # of iterations =  4.0

     total cpu time spent up to now is      532.8 secs

     total energy              =    -367.43349686 Ry
     Harris-Foulkes estimate   =    -367.43350172 Ry
     estimated scf accuracy    <       0.00000919 Ry

     iteration #  7     ecut=    70.00 Ry     beta= 0.70
     CG style diagonalization
     ethr =  1.44E-08,  avg # of iterations =  4.3

     total cpu time spent up to now is      536.3 secs

     total energy              =    -367.43350151 Ry
     Harris-Foulkes estimate   =    -367.43350385 Ry
     estimated scf accuracy    <       0.00000492 Ry

     iteration #  8     ecut=    70.00 Ry     beta= 0.70
     CG style diagonalization
     ethr =  7.68E-09,  avg # of iterations =  3.7

     total cpu time spent up to now is      539.4 secs

     End of self-consistent calculation

          k = 0.0000 0.0000 0.0000 (  8435 PWs)   bands (ev):

   -33.7192 -33.7068 -17.0972 -17.0850 -15.1456 -15.1456 -14.7843 -14.7843
   -14.6904 -14.5811 -13.9174 -13.9174 -13.3915 -13.3915  -3.3289  -3.0565
    -1.7028  -1.5470  -1.5470  -1.2885  -1.2885  -0.4206   2.3418   2.3418
     2.7801   2.7801   2.9467   2.9467   3.5572   3.5572   3.7597   4.1856

          k =-0.4252-0.2455 0.1243 (  8469 PWs)   bands (ev):

   -33.7158 -33.7096 -17.1127 -17.0396 -15.1336 -15.0278 -15.0114 -14.8571
   -14.6926 -14.6758 -13.7464 -13.6317 -13.5716 -13.4773  -3.0382  -3.0354
    -1.5512  -1.4284  -1.2902  -1.2845  -1.2193  -0.7261   2.2730   2.3478
     2.5585   2.5814   2.7068   2.8124   3.1818   3.2155   4.2303   4.2449

          k =-0.4252 0.2455 0.2487 (  8477 PWs)   bands (ev):

   -33.7158 -33.7096 -17.1520 -16.9996 -15.1718 -15.1458 -14.8200 -14.7635
   -14.7399 -14.7120 -13.8115 -13.7525 -13.4745 -13.4342  -3.1265  -2.9542
    -1.5513  -1.4040  -1.3602  -1.2286  -1.1364  -0.7841   2.1346   2.3654
     2.4855   2.6946   2.7019   2.9476   2.9759   3.3315   4.1496   4.3147

          k = 0.4252 0.7365-0.0000 (  8455 PWs)   bands (ev):

   -33.7125 -33.7125 -17.0725 -17.0723 -15.1338 -15.0990 -14.9353 -14.8462
   -14.7389 -14.6809 -13.7474 -13.7408 -13.4681 -13.4650  -2.9389  -2.9384
    -1.5338  -1.4252  -1.3670  -1.2129  -0.9034  -0.8577   2.1206   2.1322
     2.4480   2.4649   2.6473   2.6840   3.1663   3.2094   4.3583   4.3619

          k =-0.0000 0.0000 0.3730 (  8462 PWs)   bands (ev):

   -33.7161 -33.7099 -17.0960 -17.0900 -15.0781 -15.0781 -14.9062 -14.9062
   -14.6603 -14.6057 -13.7547 -13.7547 -13.5005 -13.5005  -3.2982  -3.1726
    -1.4823  -1.4823  -1.3534  -1.3534  -1.3480  -0.7153   2.4516   2.4516
     2.6643   2.6643   3.0913   3.0913   3.3870   3.3870   3.8532   4.0595

          k = 0.8505 0.4910 0.1243 (  8460 PWs)   bands (ev):

   -33.7127 -33.7127 -17.1188 -17.0399 -15.1855 -15.0379 -14.9510 -14.7869
   -14.7427 -14.6459 -13.8214 -13.6869 -13.5330 -13.4275  -3.1353  -2.9613
    -1.5378  -1.3750  -1.3662  -1.2763  -0.9689  -0.9042   2.1767   2.3299
     2.5732   2.6522   2.6721   2.9319   3.0630   3.1685   4.1562   4.2975

     highest occupied level (ev):     4.3619

!    total energy              =    -367.43350239 Ry
     Harris-Foulkes estimate   =    -367.43350243 Ry
     estimated scf accuracy    <       0.00000006 Ry

     The total energy is the sum of the following terms:

     one-electron contribution =    -148.44376900 Ry
     hartree contribution      =     103.56814262 Ry
     xc contribution           =     -75.26591918 Ry
     ewald contribution        =    -247.29195683 Ry

     convergence has been achieved in   8 iterations

     Forces acting on atoms (cartesian axes, Ry/au):

     atom    1 type  1   force =     0.00000000    0.00000000    0.00000000
     atom    2 type  1   force =     0.00000000    0.00000000    0.00000000
     atom    3 type  2   force =    -0.00000000   -0.00000000    0.00000000
     atom    4 type  2   force =    -0.00000000   -0.00000000    0.00000000
     atom    5 type  3   force =    -0.00008650    0.00014982   -0.00000000
     atom    6 type  3   force =     0.00017299   -0.00000000    0.00000000
     atom    7 type  3   force =    -0.00008650   -0.00014982    0.00000000
     atom    8 type  3   force =    -0.00017299    0.00000000   -0.00000000
     atom    9 type  3   force =     0.00008650    0.00014982   -0.00000000
     atom   10 type  3   force =     0.00008650   -0.00014982    0.00000000

     Total force =     0.000424     Total SCF correction =     0.001053
     SCF correction compared to forces is large: reduce conv_thr to get better values


     Computing stress (Cartesian axis) and pressure

          total   stress  (Ry/bohr**3)                   (kbar)     P=    0.01
  -0.00000046   0.00000000  -0.00000000         -0.07      0.00     -0.00
   0.00000000  -0.00000046   0.00000000          0.00     -0.07      0.00
  -0.00000000   0.00000000   0.00000109         -0.00      0.00      0.16


     Writing output data file CCO_k.save/
 
     init_run     :      4.37s CPU      4.86s WALL (       2 calls)
     electrons    :    472.36s CPU    517.41s WALL (      34 calls)
     update_pot   :      1.88s CPU      2.00s WALL (      32 calls)
     forces       :      3.37s CPU      3.49s WALL (      34 calls)
     stress       :      5.08s CPU      5.15s WALL (      34 calls)

     Called by init_run:
     wfcinit      :      2.96s CPU      3.34s WALL (       2 calls)
     potinit      :      0.17s CPU      0.18s WALL (       2 calls)
     hinit0       :      0.83s CPU      0.90s WALL (       2 calls)

     Called by electrons:
     c_bands      :    430.22s CPU    471.70s WALL (     172 calls)
     sum_band     :     36.54s CPU     37.80s WALL (     172 calls)
     v_of_rho     :      3.86s CPU      3.96s WALL (     176 calls)
     newd         :      1.09s CPU      1.12s WALL (     176 calls)
     mix_rho      :      0.33s CPU      0.35s WALL (     172 calls)

     Called by c_bands:
     init_us_2    :      0.42s CPU      0.49s WALL (    2484 calls)
     ccgdiagg     :    341.00s CPU    366.89s WALL (    1036 calls)
     wfcrot       :     91.43s CPU    105.93s WALL (     664 calls)

     Called by sum_band:
     sum_band:bec :      0.28s CPU      0.29s WALL (    1032 calls)
     addusdens    :      0.57s CPU      0.58s WALL (     172 calls)

     Called by *cgdiagg:
     h_psi        :    294.64s CPU    310.82s WALL (  102012 calls)
     s_psi        :      8.74s CPU      9.84s WALL (  203360 calls)
     cdiaghg      :     31.40s CPU     43.80s WALL (     664 calls)

     Called by h_psi:
     h_psi:pot    :    291.98s CPU    307.79s WALL (  102012 calls)
     h_psi:calbec :     28.71s CPU     30.64s WALL (  102012 calls)
     vloc_psi     :    253.15s CPU    266.24s WALL (  102012 calls)
     add_vuspsi   :      6.74s CPU      7.43s WALL (  102012 calls)
     hs_1psi      :    261.45s CPU    277.51s WALL (  101348 calls)
     s_1psi       :     23.93s CPU     26.57s WALL (  101348 calls)

     General routines
     calbec       :     44.60s CPU     48.75s WALL (  205412 calls)
     fft          :      5.33s CPU      5.46s WALL (    2848 calls)
     ffts         :      0.30s CPU      0.31s WALL (     172 calls)
     fftw         :    274.99s CPU    288.45s WALL (  278696 calls)
 
     Parallel routines
     fft_scatt_xy :     10.36s CPU     10.68s WALL (  281716 calls)
     fft_scatt_yz :    226.11s CPU    238.38s WALL (  281716 calls)
 
     PWSCF        :   8m15.71s CPU   9m 8.57s WALL

 
   This run was terminated on:   0:33:21   4May2022            

=------------------------------------------------------------------------------=
   JOB DONE.
=------------------------------------------------------------------------------=
