
     Program PWSCF v.6.4.1 starts on  4May2022 at  3:29:45 

     This program is part of the open-source Quantum ESPRESSO suite
     for quantum simulation of materials; please cite
         "P. Giannozzi et al., J. Phys.:Condens. Matter 21 395502 (2009);
         "P. Giannozzi et al., J. Phys.:Condens. Matter 29 465901 (2017);
          URL http://www.quantum-espresso.org", 
     in publications or presentations arising from this work. More details at
     http://www.quantum-espresso.org/quote

     Parallel version (MPI & OpenMP), running on     300 processor cores
     Number of MPI processes:               300
     Threads/MPI process:                     1

     MPI processes distributed on     5 nodes
     R & G space division:  proc/nbgrp/npool/nimage =     300
     Waiting for input...
     Reading input from standard input

     Current dimensions of program PWSCF are:
     Max number of different atomic species (ntypx) = 10
     Max number of k-points (npk) =  40000
     Max angular momentum in pseudopotentials (lmaxx) =  3

     Subspace diagonalization in iterative solution of the eigenvalue problem:
     one sub-group per band group will be used
     scalapack distributed-memory algorithm (size of sub-group: 12* 12 procs)

 
     Parallelization info
     --------------------
     sticks:   dense  smooth     PW     G-vecs:    dense   smooth      PW
     Min           6       6      1                  190      190      23
     Max           7       7      2                  200      200      34
     Sum        1981    1981    583                58383    58383    9257
 


     bravais-lattice index     =            5
     lattice parameter (alat)  =      12.0000  a.u.
     unit-cell volume          =    1221.8805 (a.u.)^3
     number of atoms/cell      =           10
     number of atomic types    =            3
     number of electrons       =        64.00
     number of Kohn-Sham states=           32
     kinetic-energy cutoff     =      50.0000  Ry
     charge density cutoff     =     200.0000  Ry
     convergence threshold     =      1.0E-05
     mixing beta               =       0.7000
     number of iterations used =            8  plain     mixing
     Exchange-correlation      = SLA  PW   PBE  PBE ( 1  4  3  4 0 0)
     nstep                     =           50


     celldm(1)=  12.000000  celldm(2)=   0.000000  celldm(3)=   0.000000
     celldm(4)=   0.500000  celldm(5)=   0.000000  celldm(6)=   0.000000

     crystal axes: (cart. coord. in units of alat)
               a(1) = (   0.500000  -0.288675   0.816497 )  
               a(2) = (   0.000000   0.577350   0.816497 )  
               a(3) = (  -0.500000  -0.288675   0.816497 )  

     reciprocal axes: (cart. coord. in units 2 pi/alat)
               b(1) = (  1.000000 -0.577350  0.408248 )  
               b(2) = (  0.000000  1.154701  0.408248 )  
               b(3) = ( -1.000000 -0.577350  0.408248 )  


     PseudoPot. # 1 for Ca read from file:
     ./Ca_PBE.UPF
     MD5 check sum: 403a4c14b9e4d4dfdc3024c9a3812218
     Pseudo is Ultrasoft + core correction, Zval = 10.0
     Generated by new atomic code, or converted to UPF format
     Using radial grid of  845 points,  6 beta functions with: 
                l(1) =   0
                l(2) =   0
                l(3) =   1
                l(4) =   1
                l(5) =   2
                l(6) =   2
     Q(r) pseudized with  8 coefficients,  rinner =    1.500   1.500   1.500
                                                       1.500   1.500

     PseudoPot. # 2 for C  read from file:
     ./C_PBE.UPF
     MD5 check sum: d1aef80898a10debaa0f26306b886e00
     Pseudo is Ultrasoft + core correction, Zval =  4.0
     Generated by new atomic code, or converted to UPF format
     Using radial grid of  721 points,  4 beta functions with: 
                l(1) =   0
                l(2) =   0
                l(3) =   1
                l(4) =   1
     Q(r) pseudized with  8 coefficients,  rinner =    1.100   1.100   1.100


     PseudoPot. # 3 for O  read from file:
     ./O_PBE.UPF
     MD5 check sum: 734c27235a0248c51dbae37a1fbe46ec
     Pseudo is Ultrasoft + core correction, Zval =  6.0
     Generated by new atomic code, or converted to UPF format
     Using radial grid of  737 points,  5 beta functions with: 
                l(1) =   0
                l(2) =   0
                l(3) =   1
                l(4) =   1
                l(5) =   2
     Q(r) pseudized with  8 coefficients,  rinner =    0.900   0.900   0.900
                                                       0.900   0.900

     atomic species   valence    mass     pseudopotential
        Ca            10.00    40.07800     Ca( 1.00)
        C              4.00    12.01070     C ( 1.00)
        O              6.00    16.00000     O ( 1.00)

     12 Sym. Ops., with inversion, found ( 6 have fractional translation)



   Cartesian axes

     site n.     atom                  positions (alat units)
         1           Ca  tau(   1) = (   0.0000000  -0.0000000   1.2247449  )
         2           Ca  tau(   2) = (   0.0000000   0.0000000   0.0000000  )
         3           C   tau(   3) = (   0.0000000  -0.0000000   0.6123724  )
         4           C   tau(   4) = (  -0.0000000  -0.0000000   1.8371173  )
         5           O   tau(   5) = (   0.1284501   0.3548681   1.4288690  )
         6           O   tau(   6) = (   0.2430998  -0.2886751   1.4288690  )
         7           O   tau(   7) = (  -0.3715499  -0.0661930   1.4288690  )
         8           O   tau(   8) = (  -0.2430998   0.2886751   1.0206207  )
         9           O   tau(   9) = (   0.3715499   0.0661930   1.0206207  )
        10           O   tau(  10) = (  -0.1284501  -0.3548681   1.0206207  )

     number of k points=   231

     Number of k-points >= 100: set verbosity='high' to print them.

     Dense  grid:    58383 G-vectors     FFT dimensions: (  60,  60,  60)

     Estimated max dynamical RAM per process >      16.80 MB

     Estimated total dynamical RAM >       4.92 GB
     Message from routine sym_rho_init:
     some processors have no G-vectors for symmetrization
     Message from routine sym_rho_init:
     some processors have no G-vectors for symmetrization
     Message from routine sym_rho_init:
     some processors have no G-vectors for symmetrization
     Message from routine sym_rho_init:
     some processors have no G-vectors for symmetrization
     Message from routine sym_rho_init:
     some processors have no G-vectors for symmetrization
     Message from routine sym_rho_init:
     some processors have no G-vectors for symmetrization
     Message from routine sym_rho_init:
     some processors have no G-vectors for symmetrization
     Message from routine sym_rho_init:
     some processors have no G-vectors for symmetrization
     Message from routine sym_rho_init:
     some processors have no G-vectors for symmetrization
     Message from routine sym_rho_init:
     some processors have no G-vectors for symmetrization
     Message from routine sym_rho_init:
     some processors have no G-vectors for symmetrization
     Message from routine sym_rho_init:
     some processors have no G-vectors for symmetrization
     Message from routine sym_rho_init:
     some processors have no G-vectors for symmetrization
     Message from routine sym_rho_init:
     some processors have no G-vectors for symmetrization
     Message from routine sym_rho_init:
     some processors have no G-vectors for symmetrization
     Message from routine sym_rho_init:
     some processors have no G-vectors for symmetrization
     Message from routine sym_rho_init:
     some processors have no G-vectors for symmetrization
     Message from routine sym_rho_init:
     some processors have no G-vectors for symmetrization
     Message from routine sym_rho_init:
     some processors have no G-vectors for symmetrization
     Message from routine sym_rho_init:
     some processors have no G-vectors for symmetrization
     Message from routine sym_rho_init:
     some processors have no G-vectors for symmetrization
     Message from routine sym_rho_init:
     some processors have no G-vectors for symmetrization
     Message from routine sym_rho_init:
     some processors have no G-vectors for symmetrization
     Message from routine sym_rho_init:
     some processors have no G-vectors for symmetrization
     Message from routine sym_rho_init:
     some processors have no G-vectors for symmetrization
     Message from routine sym_rho_init:
     some processors have no G-vectors for symmetrization
     Message from routine sym_rho_init:
     some processors have no G-vectors for symmetrization
     Message from routine sym_rho_init:
     some processors have no G-vectors for symmetrization
     Message from routine sym_rho_init:
     some processors have no G-vectors for symmetrization
     Message from routine sym_rho_init:
     some processors have no G-vectors for symmetrization
     Message from routine sym_rho_init:
     some processors have no G-vectors for symmetrization
     Message from routine sym_rho_init:
     some processors have no G-vectors for symmetrization
     Message from routine sym_rho_init:
     some processors have no G-vectors for symmetrization
     Message from routine sym_rho_init:
     some processors have no G-vectors for symmetrization
     Message from routine sym_rho_init:
     some processors have no G-vectors for symmetrization
     Message from routine sym_rho_init:
     some processors have no G-vectors for symmetrization
     Message from routine sym_rho_init:
     some processors have no G-vectors for symmetrization
     Message from routine sym_rho_init:
     some processors have no G-vectors for symmetrization
     Message from routine sym_rho_init:
     some processors have no G-vectors for symmetrization
     Message from routine sym_rho_init:
     some processors have no G-vectors for symmetrization
     Message from routine sym_rho_init:
     some processors have no G-vectors for symmetrization
     Message from routine sym_rho_init:
     some processors have no G-vectors for symmetrization
     Message from routine sym_rho_init:
     some processors have no G-vectors for symmetrization
     Message from routine sym_rho_init:
     some processors have no G-vectors for symmetrization
     Message from routine sym_rho_init:
     some processors have no G-vectors for symmetrization
     Message from routine sym_rho_init:
     some processors have no G-vectors for symmetrization
     Message from routine sym_rho_init:
     some processors have no G-vectors for symmetrization
     Message from routine sym_rho_init:
     some processors have no G-vectors for symmetrization
     Message from routine sym_rho_init:
     some processors have no G-vectors for symmetrization
     Message from routine sym_rho_init:
     some processors have no G-vectors for symmetrization
     Message from routine sym_rho_init:
     some processors have no G-vectors for symmetrization
     Message from routine sym_rho_init:
     some processors have no G-vectors for symmetrization
     Message from routine sym_rho_init:
     some processors have no G-vectors for symmetrization
     Message from routine sym_rho_init:
     some processors have no G-vectors for symmetrization
     Message from routine sym_rho_init:
     some processors have no G-vectors for symmetrization
     Message from routine sym_rho_init:
     some processors have no G-vectors for symmetrization
     Message from routine sym_rho_init:
     some processors have no G-vectors for symmetrization
     Message from routine sym_rho_init:
     some processors have no G-vectors for symmetrization
     Message from routine sym_rho_init:
     some processors have no G-vectors for symmetrization
     Message from routine sym_rho_init:
     some processors have no G-vectors for symmetrization
     Message from routine sym_rho_init:
     some processors have no G-vectors for symmetrization
     Message from routine sym_rho_init:
     some processors have no G-vectors for symmetrization
     Message from routine sym_rho_init:
     some processors have no G-vectors for symmetrization
     Message from routine sym_rho_init:
     some processors have no G-vectors for symmetrization
     Message from routine sym_rho_init:
     some processors have no G-vectors for symmetrization
     Message from routine sym_rho_init:
     some processors have no G-vectors for symmetrization
     Message from routine sym_rho_init:
     some processors have no G-vectors for symmetrization
     Message from routine sym_rho_init:
     some processors have no G-vectors for symmetrization
     Message from routine sym_rho_init:
     some processors have no G-vectors for symmetrization
     Message from routine sym_rho_init:
     some processors have no G-vectors for symmetrization
     Message from routine sym_rho_init:
     some processors have no G-vectors for symmetrization
     Message from routine sym_rho_init:
     some processors have no G-vectors for symmetrization
     Message from routine sym_rho_init:
     some processors have no G-vectors for symmetrization
     Message from routine sym_rho_init:
     some processors have no G-vectors for symmetrization
     Message from routine sym_rho_init:
     some processors have no G-vectors for symmetrization
     Message from routine sym_rho_init:
     some processors have no G-vectors for symmetrization
     Message from routine sym_rho_init:
     some processors have no G-vectors for symmetrization
     Message from routine sym_rho_init:
     some processors have no G-vectors for symmetrization
     Message from routine sym_rho_init:
     some processors have no G-vectors for symmetrization
     Message from routine sym_rho_init:
     some processors have no G-vectors for symmetrization
     Message from routine sym_rho_init:
     some processors have no G-vectors for symmetrization
     Message from routine sym_rho_init:
     some processors have no G-vectors for symmetrization
     Message from routine sym_rho_init:
     some processors have no G-vectors for symmetrization
     Message from routine sym_rho_init:
     some processors have no G-vectors for symmetrization
     Message from routine sym_rho_init:
     some processors have no G-vectors for symmetrization
     Message from routine sym_rho_init:
     some processors have no G-vectors for symmetrization
     Message from routine sym_rho_init:
     some processors have no G-vectors for symmetrization
     Message from routine sym_rho_init:
     some processors have no G-vectors for symmetrization
     Message from routine sym_rho_init:
     some processors have no G-vectors for symmetrization
     Message from routine sym_rho_init:
     some processors have no G-vectors for symmetrization
     Message from routine sym_rho_init:
     some processors have no G-vectors for symmetrization
     Message from routine sym_rho_init:
     some processors have no G-vectors for symmetrization
     Message from routine sym_rho_init:
     some processors have no G-vectors for symmetrization
     Message from routine sym_rho_init:
     some processors have no G-vectors for symmetrization
     Message from routine sym_rho_init:
     some processors have no G-vectors for symmetrization
     Message from routine sym_rho_init:
     some processors have no G-vectors for symmetrization
     Message from routine sym_rho_init:
     some processors have no G-vectors for symmetrization
     Message from routine sym_rho_init:
     some processors have no G-vectors for symmetrization
     Message from routine sym_rho_init:
     some processors have no G-vectors for symmetrization
     Message from routine sym_rho_init:
     some processors have no G-vectors for symmetrization
     Message from routine sym_rho_init:
     some processors have no G-vectors for symmetrization
     Message from routine sym_rho_init:
     some processors have no G-vectors for symmetrization
     Message from routine sym_rho_init:
     some processors have no G-vectors for symmetrization
     Message from routine sym_rho_init:
     some processors have no G-vectors for symmetrization
     Message from routine sym_rho_init:
     some processors have no G-vectors for symmetrization
     Message from routine sym_rho_init:
     some processors have no G-vectors for symmetrization
     Message from routine sym_rho_init:
     some processors have no G-vectors for symmetrization
     Message from routine sym_rho_init:
     some processors have no G-vectors for symmetrization
     Message from routine sym_rho_init:
     some processors have no G-vectors for symmetrization
     Message from routine sym_rho_init:
     some processors have no G-vectors for symmetrization
     Message from routine sym_rho_init:
     some processors have no G-vectors for symmetrization
     Message from routine sym_rho_init:
     some processors have no G-vectors for symmetrization
     Message from routine sym_rho_init:
     some processors have no G-vectors for symmetrization
     Message from routine sym_rho_init:
     some processors have no G-vectors for symmetrization
     Message from routine sym_rho_init:
     some processors have no G-vectors for symmetrization
     Message from routine sym_rho_init:
     some processors have no G-vectors for symmetrization
     Message from routine sym_rho_init:
     some processors have no G-vectors for symmetrization
     Message from routine sym_rho_init:
     some processors have no G-vectors for symmetrization
     Message from routine sym_rho_init:
     some processors have no G-vectors for symmetrization
     Message from routine sym_rho_init:
     some processors have no G-vectors for symmetrization
     Message from routine sym_rho_init:
     some processors have no G-vectors for symmetrization
     Message from routine sym_rho_init:
     some processors have no G-vectors for symmetrization
     Message from routine sym_rho_init:
     some processors have no G-vectors for symmetrization
     Message from routine sym_rho_init:
     some processors have no G-vectors for symmetrization
     Message from routine sym_rho_init:
     some processors have no G-vectors for symmetrization
     Message from routine sym_rho_init:
     some processors have no G-vectors for symmetrization
     Message from routine sym_rho_init:
     some processors have no G-vectors for symmetrization
     Message from routine sym_rho_init:
     some processors have no G-vectors for symmetrization
     Message from routine sym_rho_init:
     some processors have no G-vectors for symmetrization
     Message from routine sym_rho_init:
     some processors have no G-vectors for symmetrization
     Message from routine sym_rho_init:
     some processors have no G-vectors for symmetrization
     Message from routine sym_rho_init:
     some processors have no G-vectors for symmetrization
     Message from routine sym_rho_init:
     some processors have no G-vectors for symmetrization
     Message from routine sym_rho_init:
     some processors have no G-vectors for symmetrization
     Message from routine sym_rho_init:
     some processors have no G-vectors for symmetrization
     Message from routine sym_rho_init:
     some processors have no G-vectors for symmetrization
     Message from routine sym_rho_init:
     some processors have no G-vectors for symmetrization
     Message from routine sym_rho_init:
     some processors have no G-vectors for symmetrization
     Message from routine sym_rho_init:
     some processors have no G-vectors for symmetrization
     Message from routine sym_rho_init:
     some processors have no G-vectors for symmetrization
     Message from routine sym_rho_init:
     some processors have no G-vectors for symmetrization
     Message from routine sym_rho_init:
     some processors have no G-vectors for symmetrization
     Message from routine sym_rho_init:
     some processors have no G-vectors for symmetrization
     Message from routine sym_rho_init:
     some processors have no G-vectors for symmetrization
     Message from routine sym_rho_init:
     some processors have no G-vectors for symmetrization
     Message from routine sym_rho_init:
     some processors have no G-vectors for symmetrization
     Message from routine sym_rho_init:
     some processors have no G-vectors for symmetrization
     Message from routine sym_rho_init:
     some processors have no G-vectors for symmetrization
     Message from routine sym_rho_init:
     some processors have no G-vectors for symmetrization
     Message from routine sym_rho_init:
     some processors have no G-vectors for symmetrization
     Message from routine sym_rho_init:
     some processors have no G-vectors for symmetrization
     Message from routine sym_rho_init:
     some processors have no G-vectors for symmetrization
     Message from routine sym_rho_init:
     some processors have no G-vectors for symmetrization
     Message from routine sym_rho_init:
     some processors have no G-vectors for symmetrization
     Message from routine sym_rho_init:
     some processors have no G-vectors for symmetrization
     Message from routine sym_rho_init:
     some processors have no G-vectors for symmetrization
     Message from routine sym_rho_init:
     some processors have no G-vectors for symmetrization
     Message from routine sym_rho_init:
     some processors have no G-vectors for symmetrization
     Message from routine sym_rho_init:
     some processors have no G-vectors for symmetrization
     Message from routine sym_rho_init:
     some processors have no G-vectors for symmetrization
     Message from routine sym_rho_init:
     some processors have no G-vectors for symmetrization
     Message from routine sym_rho_init:
     some processors have no G-vectors for symmetrization
     Message from routine sym_rho_init:
     some processors have no G-vectors for symmetrization
     Message from routine sym_rho_init:
     some processors have no G-vectors for symmetrization
     Message from routine sym_rho_init:
     some processors have no G-vectors for symmetrization

     Check: negative core charge=   -0.000002

     Initial potential from superposition of free atoms

     starting charge   63.98899, renormalised to   64.00000
     Starting wfcs are   52 randomized atomic wfcs

     total cpu time spent up to now is       47.9 secs

     Self-consistent Calculation

     iteration #  1     ecut=    50.00 Ry     beta= 0.70
     CG style diagonalization
     ethr =  1.00E-02,  avg # of iterations =  2.2

     total cpu time spent up to now is      103.1 secs

     total energy              =    -365.13648322 Ry
     Harris-Foulkes estimate   =    -366.89790071 Ry
     estimated scf accuracy    <       2.39164713 Ry

     iteration #  2     ecut=    50.00 Ry     beta= 0.70
     CG style diagonalization
     ethr =  3.74E-03,  avg # of iterations =  4.8

     total cpu time spent up to now is      233.6 secs

     total energy              =    -364.97643458 Ry
     Harris-Foulkes estimate   =    -368.32934500 Ry
     estimated scf accuracy    <       9.63610722 Ry

     iteration #  3     ecut=    50.00 Ry     beta= 0.70
     CG style diagonalization
     ethr =  3.74E-03,  avg # of iterations =  4.3

     total cpu time spent up to now is      351.8 secs

     total energy              =    -366.40075169 Ry
     Harris-Foulkes estimate   =    -366.42526368 Ry
     estimated scf accuracy    <       0.05341871 Ry

     iteration #  4     ecut=    50.00 Ry     beta= 0.70
     CG style diagonalization
     ethr =  8.35E-05,  avg # of iterations =  4.3

     total cpu time spent up to now is      470.2 secs

     total energy              =    -366.43478700 Ry
     Harris-Foulkes estimate   =    -366.43795406 Ry
     estimated scf accuracy    <       0.00990872 Ry

     iteration #  5     ecut=    50.00 Ry     beta= 0.70
     CG style diagonalization
     ethr =  1.55E-05,  avg # of iterations =  3.8

     total cpu time spent up to now is      577.2 secs

     total energy              =    -366.43764665 Ry
     Harris-Foulkes estimate   =    -366.43765198 Ry
     estimated scf accuracy    <       0.00015866 Ry

     iteration #  6     ecut=    50.00 Ry     beta= 0.70
     CG style diagonalization
     ethr =  2.48E-07,  avg # of iterations =  5.2

     total cpu time spent up to now is      718.4 secs

     total energy              =    -366.43785293 Ry
     Harris-Foulkes estimate   =    -366.43789559 Ry
     estimated scf accuracy    <       0.00009972 Ry

     iteration #  7     ecut=    50.00 Ry     beta= 0.70
     CG style diagonalization
     ethr =  1.56E-07,  avg # of iterations =  3.9

     total cpu time spent up to now is      825.3 secs

     total energy              =    -366.43788161 Ry
     Harris-Foulkes estimate   =    -366.43788661 Ry
     estimated scf accuracy    <       0.00001696 Ry

     iteration #  8     ecut=    50.00 Ry     beta= 0.70
     CG style diagonalization
     ethr =  2.65E-08,  avg # of iterations =  3.5

     total cpu time spent up to now is      924.7 secs

     End of self-consistent calculation

     Number of k-points >= 100: set verbosity='high' to print the bands.

     highest occupied level (ev):     1.4955

!    total energy              =    -366.43788291 Ry
     Harris-Foulkes estimate   =    -366.43788428 Ry
     estimated scf accuracy    <       0.00000173 Ry

     The total energy is the sum of the following terms:

     one-electron contribution =    -167.19394441 Ry
     hartree contribution      =     105.90354636 Ry
     xc contribution           =     -72.68141211 Ry
     ewald contribution        =    -232.46607275 Ry

     convergence has been achieved in   8 iterations

     Forces acting on atoms (cartesian axes, Ry/au):

     atom    1 type  1   force =     0.00000000    0.00000000    0.00000000
     atom    2 type  1   force =     0.00000000    0.00000000    0.00000000
     atom    3 type  2   force =     0.00000000    0.00000000   -0.00000000
     atom    4 type  2   force =    -0.00000000    0.00000000   -0.00000000
     atom    5 type  3   force =    -0.12157772    0.21057879    0.00000000
     atom    6 type  3   force =     0.24315544    0.00000000    0.00000000
     atom    7 type  3   force =    -0.12157772   -0.21057879   -0.00000000
     atom    8 type  3   force =    -0.24315544    0.00000000   -0.00000000
     atom    9 type  3   force =     0.12157772    0.21057879    0.00000000
     atom   10 type  3   force =     0.12157772   -0.21057879   -0.00000000

     Total force =     0.595607     Total SCF correction =     0.001730


     Computing stress (Cartesian axis) and pressure

          total   stress  (Ry/bohr**3)                   (kbar)     P= -286.66
  -0.00282330   0.00000000  -0.00000000       -415.32      0.00     -0.00
  -0.00000000  -0.00282330  -0.00000000         -0.00   -415.32     -0.00
  -0.00000000  -0.00000000  -0.00019935         -0.00     -0.00    -29.33


     BFGS Geometry Optimization

     number of scf cycles    =   1
     number of bfgs steps    =   0

     enthalpy new            =    -366.4378829133 Ry

     new trust radius        =       0.4934474202 bohr
     new conv_thr            =       0.0000100000 Ry

     new unit-cell volume =   1050.22092 a.u.^3 (   155.62668 Ang^3 )
     density =      2.13590 g/cm^3

CELL_PARAMETERS (alat= 12.00000000)
   0.464708792  -0.268299746   0.812427335
  -0.000000000   0.536599492   0.812427335
  -0.464708792  -0.268299746   0.812427335

ATOMIC_POSITIONS (crystal)
Ca       0.500000000   0.500000000   0.500000000
Ca       0.000000000   0.000000000   0.000000000
C        0.250000000   0.250000000   0.250000000
C        0.750000000   0.750000000   0.750000000
O        0.486637292   1.013362708   0.250000000
O        1.013362708   0.250000000   0.486637292
O        0.250000000   0.486637292   1.013362708
O       -0.013362708   0.750000000   0.513362708
O        0.750000000   0.513362708  -0.013362708
O        0.513362708  -0.013362708   0.750000000



     Writing output data file CCO_k.save/
     NEW-OLD atomic charge density approx. for the potential

     Check: negative core charge=   -0.000002
     extrapolated charge   53.54094, renormalised to   64.00000

     total cpu time spent up to now is      930.1 secs

     Self-consistent Calculation

     iteration #  1     ecut=    50.00 Ry     beta= 0.70
     CG style diagonalization
     c_bands:  2 eigenvalues not converged
     c_bands:  2 eigenvalues not converged
     c_bands:  4 eigenvalues not converged
     c_bands:  4 eigenvalues not converged
     c_bands:  3 eigenvalues not converged
     c_bands:  3 eigenvalues not converged
     c_bands:  5 eigenvalues not converged
     c_bands:  5 eigenvalues not converged
     c_bands:  5 eigenvalues not converged
     c_bands:  3 eigenvalues not converged
     c_bands:  4 eigenvalues not converged
     c_bands:  4 eigenvalues not converged
     c_bands:  3 eigenvalues not converged
     c_bands:  4 eigenvalues not converged
     c_bands:  4 eigenvalues not converged
     c_bands:  4 eigenvalues not converged
     c_bands:  5 eigenvalues not converged
     c_bands:  4 eigenvalues not converged
     c_bands:  5 eigenvalues not converged
     c_bands:  4 eigenvalues not converged
     c_bands:  4 eigenvalues not converged
     c_bands:  3 eigenvalues not converged
     c_bands:  3 eigenvalues not converged
     c_bands:  5 eigenvalues not converged
     c_bands:  2 eigenvalues not converged
     c_bands:  2 eigenvalues not converged
     c_bands:  4 eigenvalues not converged
     c_bands:  2 eigenvalues not converged
     c_bands:  1 eigenvalues not converged
     c_bands:  1 eigenvalues not converged
     c_bands:  3 eigenvalues not converged
     c_bands:  1 eigenvalues not converged
     c_bands:  2 eigenvalues not converged
     c_bands:  3 eigenvalues not converged
     c_bands:  4 eigenvalues not converged
     c_bands:  5 eigenvalues not converged
     c_bands:  3 eigenvalues not converged
     c_bands:  4 eigenvalues not converged
     c_bands:  5 eigenvalues not converged
     c_bands:  4 eigenvalues not converged
     c_bands:  3 eigenvalues not converged
     c_bands:  4 eigenvalues not converged
     c_bands:  3 eigenvalues not converged
     c_bands:  4 eigenvalues not converged
     c_bands:  5 eigenvalues not converged
     c_bands:  5 eigenvalues not converged
     c_bands:  2 eigenvalues not converged
     c_bands:  4 eigenvalues not converged
     c_bands:  4 eigenvalues not converged
     c_bands:  4 eigenvalues not converged
     c_bands:  5 eigenvalues not converged
     c_bands:  5 eigenvalues not converged
     c_bands:  5 eigenvalues not converged
     c_bands:  4 eigenvalues not converged
     c_bands:  4 eigenvalues not converged
     c_bands:  2 eigenvalues not converged
     c_bands:  5 eigenvalues not converged
     c_bands:  4 eigenvalues not converged
     c_bands:  5 eigenvalues not converged
     c_bands:  5 eigenvalues not converged
     c_bands:  4 eigenvalues not converged
     c_bands:  3 eigenvalues not converged
     c_bands:  1 eigenvalues not converged
     c_bands:  2 eigenvalues not converged
     c_bands:  2 eigenvalues not converged
     c_bands:  3 eigenvalues not converged
     c_bands:  5 eigenvalues not converged
     c_bands:  2 eigenvalues not converged
     c_bands:  1 eigenvalues not converged
     c_bands:  3 eigenvalues not converged
     c_bands:  2 eigenvalues not converged
     c_bands:  4 eigenvalues not converged
     c_bands:  4 eigenvalues not converged
     c_bands:  3 eigenvalues not converged
     c_bands:  3 eigenvalues not converged
     c_bands:  2 eigenvalues not converged
     c_bands:  4 eigenvalues not converged
     c_bands:  3 eigenvalues not converged
     c_bands:  3 eigenvalues not converged
     c_bands:  5 eigenvalues not converged
     c_bands:  2 eigenvalues not converged
     c_bands:  2 eigenvalues not converged
     c_bands:  5 eigenvalues not converged
     c_bands:  5 eigenvalues not converged
     c_bands:  3 eigenvalues not converged
     c_bands:  3 eigenvalues not converged
     c_bands:  4 eigenvalues not converged
     c_bands:  2 eigenvalues not converged
     c_bands:  3 eigenvalues not converged
     c_bands:  4 eigenvalues not converged
     c_bands:  4 eigenvalues not converged
     c_bands:  5 eigenvalues not converged
     c_bands:  4 eigenvalues not converged
     c_bands:  4 eigenvalues not converged
     c_bands:  5 eigenvalues not converged
     c_bands:  5 eigenvalues not converged
     c_bands:  5 eigenvalues not converged
     c_bands:  4 eigenvalues not converged
     c_bands:  3 eigenvalues not converged
     c_bands:  4 eigenvalues not converged
     c_bands:  5 eigenvalues not converged
     c_bands:  4 eigenvalues not converged
     c_bands:  5 eigenvalues not converged
     c_bands:  4 eigenvalues not converged
     c_bands:  4 eigenvalues not converged
     c_bands:  2 eigenvalues not converged
     c_bands:  2 eigenvalues not converged
     c_bands:  1 eigenvalues not converged
     c_bands:  3 eigenvalues not converged
     c_bands:  2 eigenvalues not converged
     c_bands:  2 eigenvalues not converged
     c_bands:  4 eigenvalues not converged
     c_bands:  5 eigenvalues not converged
     c_bands:  2 eigenvalues not converged
     c_bands:  3 eigenvalues not converged
     c_bands:  4 eigenvalues not converged
     c_bands:  4 eigenvalues not converged
     c_bands:  3 eigenvalues not converged
     c_bands:  4 eigenvalues not converged
     c_bands:  2 eigenvalues not converged
     c_bands:  5 eigenvalues not converged
     c_bands:  4 eigenvalues not converged
     c_bands:  3 eigenvalues not converged
     c_bands:  4 eigenvalues not converged
     c_bands:  4 eigenvalues not converged
     c_bands:  5 eigenvalues not converged
     c_bands:  5 eigenvalues not converged
     c_bands:  4 eigenvalues not converged
     c_bands:  5 eigenvalues not converged
     c_bands:  3 eigenvalues not converged
     c_bands:  5 eigenvalues not converged
     c_bands:  4 eigenvalues not converged
     c_bands:  4 eigenvalues not converged
     c_bands:  5 eigenvalues not converged
     c_bands:  3 eigenvalues not converged
     c_bands:  4 eigenvalues not converged
     c_bands:  4 eigenvalues not converged
     c_bands:  4 eigenvalues not converged
     c_bands:  4 eigenvalues not converged
     c_bands:  3 eigenvalues not converged
     c_bands:  4 eigenvalues not converged
     c_bands:  2 eigenvalues not converged
     c_bands:  1 eigenvalues not converged
     c_bands:  3 eigenvalues not converged
     c_bands:  4 eigenvalues not converged
     c_bands:  3 eigenvalues not converged
     c_bands:  3 eigenvalues not converged
     c_bands:  4 eigenvalues not converged
     c_bands:  4 eigenvalues not converged
     c_bands:  2 eigenvalues not converged
     c_bands:  3 eigenvalues not converged
     c_bands:  4 eigenvalues not converged
     c_bands:  4 eigenvalues not converged
     c_bands:  4 eigenvalues not converged
     c_bands:  4 eigenvalues not converged
     c_bands:  3 eigenvalues not converged
     c_bands:  3 eigenvalues not converged
     c_bands:  2 eigenvalues not converged
     c_bands:  3 eigenvalues not converged
     c_bands:  1 eigenvalues not converged
     c_bands:  1 eigenvalues not converged
     c_bands:  4 eigenvalues not converged
     c_bands:  2 eigenvalues not converged
     c_bands:  3 eigenvalues not converged
     c_bands:  2 eigenvalues not converged
     c_bands:  2 eigenvalues not converged
     c_bands:  2 eigenvalues not converged
     c_bands:  1 eigenvalues not converged
     c_bands:  1 eigenvalues not converged
     c_bands:  1 eigenvalues not converged
     ethr =  1.00E-06,  avg # of iterations = 13.8

     total cpu time spent up to now is     1270.5 secs

     total energy              =    -360.78286219 Ry
     Harris-Foulkes estimate   =    -388.25582875 Ry
     estimated scf accuracy    <       5.66822240 Ry

     iteration #  2     ecut=    50.00 Ry     beta= 0.70
     CG style diagonalization
     ethr =  8.86E-03,  avg # of iterations =  5.4

     total cpu time spent up to now is     1415.6 secs

     total energy              =    -364.88376455 Ry
     Harris-Foulkes estimate   =    -373.43195626 Ry
     estimated scf accuracy    <      26.23806606 Ry

     iteration #  3     ecut=    50.00 Ry     beta= 0.70
     CG style diagonalization
     ethr =  8.86E-03,  avg # of iterations =  4.2

     total cpu time spent up to now is     1530.9 secs

     total energy              =    -367.22822395 Ry
     Harris-Foulkes estimate   =    -367.68205552 Ry
     estimated scf accuracy    <       1.76383146 Ry

     iteration #  4     ecut=    50.00 Ry     beta= 0.70
     CG style diagonalization
     ethr =  2.76E-03,  avg # of iterations =  3.1

     total cpu time spent up to now is     1619.3 secs

     total energy              =    -367.20095120 Ry
     Harris-Foulkes estimate   =    -367.34843186 Ry
     estimated scf accuracy    <       0.75730944 Ry

     iteration #  5     ecut=    50.00 Ry     beta= 0.70
     CG style diagonalization
     ethr =  1.18E-03,  avg # of iterations =  3.0

     total cpu time spent up to now is     1705.8 secs

     total energy              =    -367.10596273 Ry
     Harris-Foulkes estimate   =    -367.23791441 Ry
     estimated scf accuracy    <       0.34131611 Ry

     iteration #  6     ecut=    50.00 Ry     beta= 0.70
     CG style diagonalization
     ethr =  5.33E-04,  avg # of iterations =  3.7

     total cpu time spent up to now is     1808.6 secs

     total energy              =    -367.16810934 Ry
     Harris-Foulkes estimate   =    -367.16953904 Ry
     estimated scf accuracy    <       0.00339013 Ry

     iteration #  7     ecut=    50.00 Ry     beta= 0.70
     CG style diagonalization
     ethr =  5.30E-06,  avg # of iterations =  5.3

     total cpu time spent up to now is     1950.5 secs

     total energy              =    -367.17419916 Ry
     Harris-Foulkes estimate   =    -367.17528250 Ry
     estimated scf accuracy    <       0.00218072 Ry

     iteration #  8     ecut=    50.00 Ry     beta= 0.70
     CG style diagonalization
     ethr =  3.41E-06,  avg # of iterations =  3.9

     total cpu time spent up to now is     2058.5 secs

     total energy              =    -367.17460915 Ry
     Harris-Foulkes estimate   =    -367.17473384 Ry
     estimated scf accuracy    <       0.00020625 Ry

     iteration #  9     ecut=    50.00 Ry     beta= 0.70
     CG style diagonalization
     ethr =  3.22E-07,  avg # of iterations =  4.2

     total cpu time spent up to now is     2174.6 secs

     total energy              =    -367.17468660 Ry
     Harris-Foulkes estimate   =    -367.17470932 Ry
     estimated scf accuracy    <       0.00008626 Ry

     iteration # 10     ecut=    50.00 Ry     beta= 0.70
     CG style diagonalization
     ethr =  1.35E-07,  avg # of iterations =  3.3

     total cpu time spent up to now is     2266.5 secs

     total energy              =    -367.17468425 Ry
     Harris-Foulkes estimate   =    -367.17469269 Ry
     estimated scf accuracy    <       0.00002092 Ry

     iteration # 11     ecut=    50.00 Ry     beta= 0.70
     CG style diagonalization
     ethr =  3.27E-08,  avg # of iterations =  3.7

     total cpu time spent up to now is     2368.8 secs

     End of self-consistent calculation

     Number of k-points >= 100: set verbosity='high' to print the bands.

     highest occupied level (ev):     2.8511

!    total energy              =    -367.17468776 Ry
     Harris-Foulkes estimate   =    -367.17468887 Ry
     estimated scf accuracy    <       0.00000150 Ry

     The total energy is the sum of the following terms:

     one-electron contribution =    -166.20448158 Ry
     hartree contribution      =     108.18628708 Ry
     xc contribution           =     -74.05051024 Ry
     ewald contribution        =    -235.10598301 Ry

     convergence has been achieved in  11 iterations

     Forces acting on atoms (cartesian axes, Ry/au):

     atom    1 type  1   force =     0.00000000    0.00000000    0.00000000
     atom    2 type  1   force =     0.00000000    0.00000000    0.00000000
     atom    3 type  2   force =     0.00000000    0.00000000    0.00000000
     atom    4 type  2   force =     0.00000000    0.00000000    0.00000000
     atom    5 type  3   force =    -0.06971160    0.12074404    0.00000000
     atom    6 type  3   force =     0.13942321    0.00000000   -0.00000000
     atom    7 type  3   force =    -0.06971160   -0.12074404   -0.00000000
     atom    8 type  3   force =    -0.13942321   -0.00000000    0.00000000
     atom    9 type  3   force =     0.06971160    0.12074404    0.00000000
     atom   10 type  3   force =     0.06971160   -0.12074404   -0.00000000

     Total force =     0.341516     Total SCF correction =     0.002577


     Computing stress (Cartesian axis) and pressure

          total   stress  (Ry/bohr**3)                   (kbar)     P= -208.69
  -0.00204878   0.00000000  -0.00000000       -301.39      0.00     -0.00
  -0.00000000  -0.00204878  -0.00000000         -0.00   -301.39     -0.00
  -0.00000000  -0.00000000  -0.00015847         -0.00     -0.00    -23.31


     number of scf cycles    =   2
     number of bfgs steps    =   1

     enthalpy old            =    -366.4378829133 Ry
     enthalpy new            =    -367.1746877594 Ry

     CASE: enthalpy_new < enthalpy_old

     new trust radius        =       0.7383243984 bohr
     new conv_thr            =       0.0000100000 Ry

     new unit-cell volume =    818.24294 a.u.^3 (   121.25109 Ang^3 )
     density =      2.74144 g/cm^3

CELL_PARAMETERS (alat= 12.00000000)
   0.411771980  -0.237736663   0.806184276
  -0.000000000   0.475473327   0.806184276
  -0.411771980  -0.237736663   0.806184276

ATOMIC_POSITIONS (crystal)
Ca       0.500000000   0.500000000   0.500000000
Ca       0.000000000   0.000000000   0.000000000
C        0.250000000   0.250000000   0.250000000
C        0.750000000   0.750000000   0.750000000
O        0.462390479   1.037609521   0.250000000
O        1.037609521   0.250000000   0.462390479
O        0.250000000   0.462390479   1.037609521
O       -0.037609521   0.750000000   0.537609521
O        0.750000000   0.537609521  -0.037609521
O        0.537609521  -0.037609521   0.750000000



     Writing output data file CCO_k.save/
     NEW-OLD atomic charge density approx. for the potential

     Check: negative core charge=   -0.000003

     negative rho (up, down):  1.840E-03 0.000E+00
     extrapolated charge   45.85864, renormalised to   64.00000

     total cpu time spent up to now is     2374.1 secs

     Self-consistent Calculation

     iteration #  1     ecut=    50.00 Ry     beta= 0.70
     CG style diagonalization
     c_bands:  2 eigenvalues not converged
     c_bands:  2 eigenvalues not converged
     c_bands:  4 eigenvalues not converged
     c_bands:  4 eigenvalues not converged
     c_bands:  5 eigenvalues not converged
     c_bands:  4 eigenvalues not converged
     c_bands:  4 eigenvalues not converged
     ethr =  1.00E-06,  avg # of iterations = 20.9

     negative rho (up, down):  2.829E-04 0.000E+00

     total cpu time spent up to now is     2882.7 secs

     total energy              =    -354.01294815 Ry
     Harris-Foulkes estimate   =    -406.14256321 Ry
     estimated scf accuracy    <      10.95171935 Ry

     iteration #  2     ecut=    50.00 Ry     beta= 0.70
     CG style diagonalization
     ethr =  1.00E-02,  avg # of iterations =  6.2

     total cpu time spent up to now is     3048.4 secs

     total energy              =    -360.18171097 Ry
     Harris-Foulkes estimate   =    -377.03414151 Ry
     estimated scf accuracy    <      53.26177981 Ry

     iteration #  3     ecut=    50.00 Ry     beta= 0.70
     CG style diagonalization
     ethr =  1.00E-02,  avg # of iterations =  4.7

     total cpu time spent up to now is     3176.2 secs

     total energy              =    -366.53785393 Ry
     Harris-Foulkes estimate   =    -367.75784389 Ry
     estimated scf accuracy    <       3.29580892 Ry

     iteration #  4     ecut=    50.00 Ry     beta= 0.70
     CG style diagonalization
     ethr =  5.15E-03,  avg # of iterations =  3.3

     total cpu time spent up to now is     3271.3 secs

     total energy              =    -366.51789985 Ry
     Harris-Foulkes estimate   =    -366.87861917 Ry
     estimated scf accuracy    <       1.06087923 Ry

     iteration #  5     ecut=    50.00 Ry     beta= 0.70
     CG style diagonalization
     ethr =  1.66E-03,  avg # of iterations =  3.4

     total cpu time spent up to now is     3367.2 secs

     total energy              =    -366.60547751 Ry
     Harris-Foulkes estimate   =    -366.65617398 Ry
     estimated scf accuracy    <       0.15768053 Ry

     iteration #  6     ecut=    50.00 Ry     beta= 0.70
     CG style diagonalization
     ethr =  2.46E-04,  avg # of iterations =  3.6

     total cpu time spent up to now is     3468.0 secs

     total energy              =    -366.62535772 Ry
     Harris-Foulkes estimate   =    -366.63323082 Ry
     estimated scf accuracy    <       0.02175389 Ry

     iteration #  7     ecut=    50.00 Ry     beta= 0.70
     CG style diagonalization
     ethr =  3.40E-05,  avg # of iterations =  3.7

     total cpu time spent up to now is     3571.9 secs

     total energy              =    -366.62901490 Ry
     Harris-Foulkes estimate   =    -366.62981229 Ry
     estimated scf accuracy    <       0.00254108 Ry

     iteration #  8     ecut=    50.00 Ry     beta= 0.70
     CG style diagonalization
     ethr =  3.97E-06,  avg # of iterations =  3.8

     total cpu time spent up to now is     3676.6 secs

     total energy              =    -366.62935076 Ry
     Harris-Foulkes estimate   =    -366.62962191 Ry
     estimated scf accuracy    <       0.00052465 Ry

     iteration #  9     ecut=    50.00 Ry     beta= 0.70
     CG style diagonalization
     ethr =  8.20E-07,  avg # of iterations =  3.8

     total cpu time spent up to now is     3781.5 secs

     total energy              =    -366.62944302 Ry
     Harris-Foulkes estimate   =    -366.62947179 Ry
     estimated scf accuracy    <       0.00004348 Ry

     iteration # 10     ecut=    50.00 Ry     beta= 0.70
     CG style diagonalization
     ethr =  6.79E-08,  avg # of iterations =  4.1

     total cpu time spent up to now is     3893.4 secs

     End of self-consistent calculation

     Number of k-points >= 100: set verbosity='high' to print the bands.

     highest occupied level (ev):     6.0111

!    total energy              =    -366.62945850 Ry
     Harris-Foulkes estimate   =    -366.62946255 Ry
     estimated scf accuracy    <       0.00000525 Ry

     The total energy is the sum of the following terms:

     one-electron contribution =    -171.66154579 Ry
     hartree contribution      =     116.23446778 Ry
     xc contribution           =     -76.99099004 Ry
     ewald contribution        =    -234.21139046 Ry

     convergence has been achieved in  10 iterations

     Forces acting on atoms (cartesian axes, Ry/au):

     atom    1 type  1   force =     0.00000000    0.00000000   -0.00000000
     atom    2 type  1   force =    -0.00000000   -0.00000000    0.00000000
     atom    3 type  2   force =    -0.00000000   -0.00000000   -0.00000000
     atom    4 type  2   force =    -0.00000000   -0.00000000   -0.00000000
     atom    5 type  3   force =     0.45588806   -0.78962129   -0.00000000
     atom    6 type  3   force =    -0.91177613   -0.00000000    0.00000000
     atom    7 type  3   force =     0.45588806    0.78962129    0.00000000
     atom    8 type  3   force =     0.91177613    0.00000000   -0.00000000
     atom    9 type  3   force =    -0.45588806   -0.78962129   -0.00000000
     atom   10 type  3   force =    -0.45588806    0.78962129    0.00000000

     Total force =     2.233386     Total SCF correction =     0.009741


     Computing stress (Cartesian axis) and pressure

          total   stress  (Ry/bohr**3)                   (kbar)     P=  617.65
   0.00630186   0.00000000  -0.00000000        927.04      0.00     -0.00
   0.00000000   0.00630186   0.00000000          0.00    927.04      0.00
  -0.00000000   0.00000000  -0.00000754         -0.00      0.00     -1.11


     number of scf cycles    =   3
     number of bfgs steps    =   2

     enthalpy old            =    -367.1746877594 Ry
     enthalpy new            =    -366.6294585035 Ry

     CASE: enthalpy_new > enthalpy_old

     new trust radius        =       0.2089819650 bohr
     new conv_thr            =       0.0000100000 Ry

     new unit-cell volume =    981.18738 a.u.^3 (   145.39697 Ang^3 )
     density =      2.28617 g/cm^3

CELL_PARAMETERS (alat= 12.00000000)
   0.449667177  -0.259615465   0.810653414
  -0.000000000   0.519230931   0.810653414
  -0.449667177  -0.259615465   0.810653414

ATOMIC_POSITIONS (crystal)
Ca       0.500000000   0.500000000   0.500000000
Ca       0.000000000   0.000000000   0.000000000
C        0.250000000   0.250000000   0.250000000
C        0.750000000   0.750000000   0.750000000
O        0.479747734   1.020252266   0.250000000
O        1.020252266   0.250000000   0.479747734
O        0.250000000   0.479747734   1.020252266
O       -0.020252266   0.750000000   0.520252266
O        0.750000000   0.520252266  -0.020252266
O        0.520252266  -0.020252266   0.750000000



     Writing output data file CCO_k.save/
     NEW-OLD atomic charge density approx. for the potential

     Check: negative core charge=   -0.000002
     extrapolated charge   74.62656, renormalised to   64.00000

     total cpu time spent up to now is     3898.8 secs

     Self-consistent Calculation

     iteration #  1     ecut=    50.00 Ry     beta= 0.70
     CG style diagonalization
     c_bands:  4 eigenvalues not converged
     c_bands:  1 eigenvalues not converged
     c_bands:  2 eigenvalues not converged
     c_bands:  1 eigenvalues not converged
     c_bands:  1 eigenvalues not converged
     c_bands:  1 eigenvalues not converged
     c_bands:  2 eigenvalues not converged
     c_bands:  1 eigenvalues not converged
     c_bands:  1 eigenvalues not converged
     c_bands:  1 eigenvalues not converged
     c_bands:  1 eigenvalues not converged
     c_bands:  1 eigenvalues not converged
     c_bands:  1 eigenvalues not converged
     c_bands:  2 eigenvalues not converged
     c_bands:  1 eigenvalues not converged
     c_bands:  1 eigenvalues not converged
     c_bands:  1 eigenvalues not converged
     c_bands:  1 eigenvalues not converged
     c_bands:  1 eigenvalues not converged
     c_bands:  3 eigenvalues not converged
     c_bands:  1 eigenvalues not converged
     c_bands:  1 eigenvalues not converged
     c_bands:  1 eigenvalues not converged
     c_bands:  1 eigenvalues not converged
     c_bands:  1 eigenvalues not converged
     c_bands:  1 eigenvalues not converged
     c_bands:  1 eigenvalues not converged
     c_bands:  1 eigenvalues not converged
     c_bands:  1 eigenvalues not converged
     c_bands:  1 eigenvalues not converged
     c_bands:  1 eigenvalues not converged
     c_bands:  1 eigenvalues not converged
     c_bands:  1 eigenvalues not converged
     c_bands:  1 eigenvalues not converged
     c_bands:  2 eigenvalues not converged
     ethr =  1.00E-06,  avg # of iterations = 24.9

     total cpu time spent up to now is     4500.8 secs

     total energy              =    -350.46804131 Ry
     Harris-Foulkes estimate   =    -348.42286916 Ry
     estimated scf accuracy    <      15.10876243 Ry

     iteration #  2     ecut=    50.00 Ry     beta= 0.70
     CG style diagonalization
     ethr =  1.00E-02,  avg # of iterations =  6.0

     total cpu time spent up to now is     4659.8 secs

     total energy              =    -367.73949263 Ry
     Harris-Foulkes estimate   =    -379.53444602 Ry
     estimated scf accuracy    <      27.89170049 Ry

     iteration #  3     ecut=    50.00 Ry     beta= 0.70
     CG style diagonalization
     ethr =  1.00E-02,  avg # of iterations =  3.8

     total cpu time spent up to now is     4765.6 secs

     total energy              =    -368.17327379 Ry
     Harris-Foulkes estimate   =    -369.66210244 Ry
     estimated scf accuracy    <       5.37922941 Ry

     iteration #  4     ecut=    50.00 Ry     beta= 0.70
     CG style diagonalization
     ethr =  8.41E-03,  avg # of iterations =  3.0

     total cpu time spent up to now is     4851.0 secs

     total energy              =    -367.81579098 Ry
     Harris-Foulkes estimate   =    -368.27921284 Ry
     estimated scf accuracy    <       2.74242572 Ry

     iteration #  5     ecut=    50.00 Ry     beta= 0.70
     CG style diagonalization
     ethr =  4.29E-03,  avg # of iterations =  3.0

     total cpu time spent up to now is     4936.2 secs

     total energy              =    -367.92794461 Ry
     Harris-Foulkes estimate   =    -367.86269527 Ry
     estimated scf accuracy    <       1.66514604 Ry

     iteration #  6     ecut=    50.00 Ry     beta= 0.70
     CG style diagonalization
     ethr =  2.60E-03,  avg # of iterations =  3.0

     total cpu time spent up to now is     5021.5 secs

     total energy              =    -366.99246383 Ry
     Harris-Foulkes estimate   =    -367.93735272 Ry
     estimated scf accuracy    <       1.79109604 Ry

     iteration #  7     ecut=    50.00 Ry     beta= 0.70
     CG style diagonalization
     ethr =  2.60E-03,  avg # of iterations =  3.6

     total cpu time spent up to now is     5121.6 secs

     total energy              =    -367.31257632 Ry
     Harris-Foulkes estimate   =    -367.32333283 Ry
     estimated scf accuracy    <       0.07847553 Ry

     iteration #  8     ecut=    50.00 Ry     beta= 0.70
     CG style diagonalization
     ethr =  1.23E-04,  avg # of iterations =  3.8

     total cpu time spent up to now is     5226.6 secs

     total energy              =    -367.33647929 Ry
     Harris-Foulkes estimate   =    -367.33547797 Ry
     estimated scf accuracy    <       0.07208030 Ry

     iteration #  9     ecut=    50.00 Ry     beta= 0.70
     CG style diagonalization
     ethr =  1.13E-04,  avg # of iterations =  3.0

     total cpu time spent up to now is     5312.0 secs

     total energy              =    -367.32766302 Ry
     Harris-Foulkes estimate   =    -367.33728512 Ry
     estimated scf accuracy    <       0.07293935 Ry

     iteration # 10     ecut=    50.00 Ry     beta= 0.70
     CG style diagonalization
     ethr =  1.13E-04,  avg # of iterations =  3.3

     total cpu time spent up to now is     5404.4 secs

     total energy              =    -367.33964757 Ry
     Harris-Foulkes estimate   =    -367.33260429 Ry
     estimated scf accuracy    <       0.06730933 Ry

     iteration # 11     ecut=    50.00 Ry     beta= 0.70
     CG style diagonalization
     ethr =  1.05E-04,  avg # of iterations =  3.6

     total cpu time spent up to now is     5504.2 secs

     total energy              =    -367.36116228 Ry
     Harris-Foulkes estimate   =    -367.34887656 Ry
     estimated scf accuracy    <       0.12551471 Ry

     iteration # 12     ecut=    50.00 Ry     beta= 0.70
     CG style diagonalization
     ethr =  1.05E-04,  avg # of iterations =  3.6

     total cpu time spent up to now is     5604.4 secs

     total energy              =    -367.37412262 Ry
     Harris-Foulkes estimate   =    -367.37356725 Ry
     estimated scf accuracy    <       0.21053948 Ry

     iteration # 13     ecut=    50.00 Ry     beta= 0.70
     CG style diagonalization
     ethr =  1.05E-04,  avg # of iterations =  3.0

     total cpu time spent up to now is     5690.2 secs

     total energy              =    -367.37806278 Ry
     Harris-Foulkes estimate   =    -367.37525722 Ry
     estimated scf accuracy    <       0.21990008 Ry

     iteration # 14     ecut=    50.00 Ry     beta= 0.70
     CG style diagonalization
     ethr =  1.05E-04,  avg # of iterations =  3.0

     total cpu time spent up to now is     5775.8 secs

     total energy              =    -367.37490441 Ry
     Harris-Foulkes estimate   =    -367.37842916 Ry
     estimated scf accuracy    <       0.23165869 Ry

     iteration # 15     ecut=    50.00 Ry     beta= 0.70
     CG style diagonalization
     ethr =  1.05E-04,  avg # of iterations =  3.0

     total cpu time spent up to now is     5861.5 secs

     total energy              =    -367.31950497 Ry
     Harris-Foulkes estimate   =    -367.37501715 Ry
     estimated scf accuracy    <       0.22592394 Ry

     iteration # 16     ecut=    50.00 Ry     beta= 0.70
     CG style diagonalization
     ethr =  1.05E-04,  avg # of iterations =  3.6

     total cpu time spent up to now is     5961.6 secs

     total energy              =    -367.30204392 Ry
     Harris-Foulkes estimate   =    -367.33024908 Ry
     estimated scf accuracy    <       0.05716527 Ry

     iteration # 17     ecut=    50.00 Ry     beta= 0.70
     CG style diagonalization
     ethr =  8.93E-05,  avg # of iterations =  4.0

     total cpu time spent up to now is     6071.1 secs

     total energy              =    -367.31464986 Ry
     Harris-Foulkes estimate   =    -367.31590830 Ry
     estimated scf accuracy    <       0.00322370 Ry

     iteration # 18     ecut=    50.00 Ry     beta= 0.70
     CG style diagonalization
     ethr =  5.04E-06,  avg # of iterations =  3.6

     total cpu time spent up to now is     6170.9 secs

     total energy              =    -367.31539052 Ry
     Harris-Foulkes estimate   =    -367.31549110 Ry
     estimated scf accuracy    <       0.00097519 Ry

     iteration # 19     ecut=    50.00 Ry     beta= 0.70
     CG style diagonalization
     ethr =  1.52E-06,  avg # of iterations =  3.6

     total cpu time spent up to now is     6271.6 secs

     total energy              =    -367.31543562 Ry
     Harris-Foulkes estimate   =    -367.31552179 Ry
     estimated scf accuracy    <       0.00079810 Ry

     iteration # 20     ecut=    50.00 Ry     beta= 0.70
     CG style diagonalization
     ethr =  1.25E-06,  avg # of iterations =  3.0

     total cpu time spent up to now is     6357.1 secs

     total energy              =    -367.31522327 Ry
     Harris-Foulkes estimate   =    -367.31545852 Ry
     estimated scf accuracy    <       0.00079406 Ry

     iteration # 21     ecut=    50.00 Ry     beta= 0.70
     CG style diagonalization
     ethr =  1.24E-06,  avg # of iterations =  3.2

     total cpu time spent up to now is     6448.7 secs

     total energy              =    -367.31525410 Ry
     Harris-Foulkes estimate   =    -367.31528117 Ry
     estimated scf accuracy    <       0.00009123 Ry

     iteration # 22     ecut=    50.00 Ry     beta= 0.70
     CG style diagonalization
     ethr =  1.43E-07,  avg # of iterations =  4.2

     total cpu time spent up to now is     6563.7 secs

     total energy              =    -367.31526348 Ry
     Harris-Foulkes estimate   =    -367.31530550 Ry
     estimated scf accuracy    <       0.00008452 Ry

     iteration # 23     ecut=    50.00 Ry     beta= 0.70
     CG style diagonalization
     ethr =  1.32E-07,  avg # of iterations =  3.6

     total cpu time spent up to now is     6664.4 secs

     End of self-consistent calculation

     Number of k-points >= 100: set verbosity='high' to print the bands.

     highest occupied level (ev):     3.5770

!    total energy              =    -367.31527639 Ry
     Harris-Foulkes estimate   =    -367.31528322 Ry
     estimated scf accuracy    <       0.00000874 Ry

     The total energy is the sum of the following terms:

     one-electron contribution =    -166.40213955 Ry
     hartree contribution      =     109.62632930 Ry
     xc contribution           =     -74.74854725 Ry
     ewald contribution        =    -235.79091889 Ry

     convergence has been achieved in  23 iterations

     Forces acting on atoms (cartesian axes, Ry/au):

     atom    1 type  1   force =     0.00000000    0.00000000    0.00000000
     atom    2 type  1   force =     0.00000000   -0.00000000    0.00000000
     atom    3 type  2   force =    -0.00000000    0.00000000    0.00000000
     atom    4 type  2   force =     0.00000000   -0.00000000   -0.00000000
     atom    5 type  3   force =    -0.00059154    0.00102458    0.00000000
     atom    6 type  3   force =     0.00118308   -0.00000000    0.00000000
     atom    7 type  3   force =    -0.00059154   -0.00102458   -0.00000000
     atom    8 type  3   force =    -0.00118308    0.00000000   -0.00000000
     atom    9 type  3   force =     0.00059154    0.00102458    0.00000000
     atom   10 type  3   force =     0.00059154   -0.00102458   -0.00000000

     Total force =     0.002898     Total SCF correction =     0.006513
     SCF correction compared to forces is large: reduce conv_thr to get better values


     Computing stress (Cartesian axis) and pressure

          total   stress  (Ry/bohr**3)                   (kbar)     P= -103.08
  -0.00097946   0.00000000  -0.00000000       -144.08      0.00     -0.00
   0.00000000  -0.00097946  -0.00000000          0.00   -144.08     -0.00
  -0.00000000  -0.00000000  -0.00014334         -0.00     -0.00    -21.09


     BFGS Geometry Optimization

     number of scf cycles    =   1
     number of bfgs steps    =   0

     enthalpy new            =    -367.3152763943 Ry

     new trust radius        =       0.1534019153 bohr
     new conv_thr            =       0.0000100000 Ry

     new unit-cell volume =    930.37824 a.u.^3 (   137.86783 Ang^3 )
     density =      2.41102 g/cm^3

CELL_PARAMETERS (alat= 12.00000000)
   0.438656449  -0.253258419   0.807748473
  -0.000000000   0.506516838   0.807748473
  -0.438656449  -0.253258419   0.807748473

ATOMIC_POSITIONS (crystal)
Ca       0.500000000   0.500000000   0.500000000
Ca       0.000000000  -0.000000000   0.000000000
C        0.250000000   0.250000000   0.250000000
C        0.750000000   0.750000000   0.750000000
O        0.479638108   1.020361892   0.250000000
O        1.020361892   0.250000000   0.479638108
O        0.250000000   0.479638108   1.020361892
O       -0.020361892   0.750000000   0.520361892
O        0.750000000   0.520361892  -0.020361892
O        0.520361892  -0.020361892   0.750000000



     Writing output data file CCO_k.save/
     NEW-OLD atomic charge density approx. for the potential

     Check: negative core charge=   -0.000003
     extrapolated charge   60.50548, renormalised to   64.00000

     total cpu time spent up to now is     6669.8 secs

     Self-consistent Calculation

     iteration #  1     ecut=    50.00 Ry     beta= 0.70
     CG style diagonalization
     c_bands:  2 eigenvalues not converged
     c_bands:  5 eigenvalues not converged
     c_bands:  5 eigenvalues not converged
     c_bands:  1 eigenvalues not converged
     c_bands:  1 eigenvalues not converged
     c_bands:  4 eigenvalues not converged
     c_bands:  1 eigenvalues not converged
     c_bands:  2 eigenvalues not converged
     c_bands:  3 eigenvalues not converged
     c_bands:  4 eigenvalues not converged
     c_bands:  5 eigenvalues not converged
     c_bands:  2 eigenvalues not converged
     c_bands:  2 eigenvalues not converged
     c_bands:  5 eigenvalues not converged
     c_bands:  4 eigenvalues not converged
     c_bands:  4 eigenvalues not converged
     c_bands:  4 eigenvalues not converged
     c_bands:  4 eigenvalues not converged
     c_bands:  3 eigenvalues not converged
     c_bands:  2 eigenvalues not converged
     c_bands:  2 eigenvalues not converged
     c_bands:  4 eigenvalues not converged
     c_bands:  5 eigenvalues not converged
     c_bands:  3 eigenvalues not converged
     c_bands:  3 eigenvalues not converged
     c_bands:  2 eigenvalues not converged
     c_bands:  3 eigenvalues not converged
     c_bands:  4 eigenvalues not converged
     c_bands:  3 eigenvalues not converged
     c_bands:  2 eigenvalues not converged
     c_bands:  3 eigenvalues not converged
     c_bands:  3 eigenvalues not converged
     c_bands:  5 eigenvalues not converged
     c_bands:  5 eigenvalues not converged
     c_bands:  4 eigenvalues not converged
     c_bands:  5 eigenvalues not converged
     c_bands:  4 eigenvalues not converged
     c_bands:  5 eigenvalues not converged
     c_bands:  5 eigenvalues not converged
     c_bands:  3 eigenvalues not converged
     c_bands:  4 eigenvalues not converged
     c_bands:  5 eigenvalues not converged
     c_bands:  3 eigenvalues not converged
     c_bands:  5 eigenvalues not converged
     c_bands:  3 eigenvalues not converged
     c_bands:  1 eigenvalues not converged
     c_bands:  3 eigenvalues not converged
     c_bands:  4 eigenvalues not converged
     c_bands:  5 eigenvalues not converged
     c_bands:  4 eigenvalues not converged
     c_bands:  4 eigenvalues not converged
     c_bands:  3 eigenvalues not converged
     c_bands:  3 eigenvalues not converged
     c_bands:  3 eigenvalues not converged
     c_bands:  1 eigenvalues not converged
     c_bands:  3 eigenvalues not converged
     c_bands:  5 eigenvalues not converged
     c_bands:  4 eigenvalues not converged
     c_bands:  5 eigenvalues not converged
     c_bands:  4 eigenvalues not converged
     c_bands:  4 eigenvalues not converged
     c_bands:  5 eigenvalues not converged
     c_bands:  2 eigenvalues not converged
     c_bands:  4 eigenvalues not converged
     c_bands:  4 eigenvalues not converged
     c_bands:  5 eigenvalues not converged
     c_bands:  4 eigenvalues not converged
     c_bands:  5 eigenvalues not converged
     c_bands:  5 eigenvalues not converged
     c_bands:  5 eigenvalues not converged
     c_bands:  5 eigenvalues not converged
     c_bands:  5 eigenvalues not converged
     c_bands:  5 eigenvalues not converged
     c_bands:  5 eigenvalues not converged
     c_bands:  4 eigenvalues not converged
     c_bands:  5 eigenvalues not converged
     c_bands:  5 eigenvalues not converged
     c_bands:  4 eigenvalues not converged
     c_bands:  5 eigenvalues not converged
     c_bands:  4 eigenvalues not converged
     c_bands:  5 eigenvalues not converged
     c_bands:  5 eigenvalues not converged
     c_bands:  4 eigenvalues not converged
     c_bands:  4 eigenvalues not converged
     c_bands:  4 eigenvalues not converged
     c_bands:  2 eigenvalues not converged
     c_bands:  5 eigenvalues not converged
     c_bands:  5 eigenvalues not converged
     c_bands:  3 eigenvalues not converged
     c_bands:  4 eigenvalues not converged
     c_bands:  5 eigenvalues not converged
     c_bands:  4 eigenvalues not converged
     c_bands:  5 eigenvalues not converged
     c_bands:  5 eigenvalues not converged
     c_bands:  5 eigenvalues not converged
     c_bands:  4 eigenvalues not converged
     c_bands:  4 eigenvalues not converged
     c_bands:  5 eigenvalues not converged
     c_bands:  5 eigenvalues not converged
     c_bands:  4 eigenvalues not converged
     c_bands:  2 eigenvalues not converged
     c_bands:  5 eigenvalues not converged
     c_bands:  5 eigenvalues not converged
     c_bands:  5 eigenvalues not converged
     c_bands:  5 eigenvalues not converged
     c_bands:  5 eigenvalues not converged
     c_bands:  5 eigenvalues not converged
     c_bands:  5 eigenvalues not converged
     c_bands:  5 eigenvalues not converged
     c_bands:  4 eigenvalues not converged
     c_bands:  3 eigenvalues not converged
     c_bands:  4 eigenvalues not converged
     c_bands:  2 eigenvalues not converged
     c_bands:  4 eigenvalues not converged
     c_bands:  4 eigenvalues not converged
     c_bands:  3 eigenvalues not converged
     c_bands:  4 eigenvalues not converged
     c_bands:  4 eigenvalues not converged
     c_bands:  4 eigenvalues not converged
     c_bands:  2 eigenvalues not converged
     c_bands:  2 eigenvalues not converged
     ethr =  1.00E-06,  avg # of iterations = 14.5

     total cpu time spent up to now is     7027.9 secs

     total energy              =    -366.61925653 Ry
     Harris-Foulkes estimate   =    -374.22963219 Ry
     estimated scf accuracy    <       0.54077115 Ry

     iteration #  2     ecut=    50.00 Ry     beta= 0.70
     CG style diagonalization
     ethr =  8.45E-04,  avg # of iterations =  5.1

     total cpu time spent up to now is     7165.1 secs

     total energy              =    -367.25198289 Ry
     Harris-Foulkes estimate   =    -367.94923135 Ry
     estimated scf accuracy    <       2.01345234 Ry

     iteration #  3     ecut=    50.00 Ry     beta= 0.70
     CG style diagonalization
     ethr =  8.45E-04,  avg # of iterations =  4.0

     total cpu time spent up to now is     7275.2 secs

     total energy              =    -367.35811684 Ry
     Harris-Foulkes estimate   =    -367.41301527 Ry
     estimated scf accuracy    <       0.22658735 Ry

     iteration #  4     ecut=    50.00 Ry     beta= 0.70
     CG style diagonalization
     ethr =  3.54E-04,  avg # of iterations =  3.0

     total cpu time spent up to now is     7360.7 secs

     total energy              =    -367.34211468 Ry
     Harris-Foulkes estimate   =    -367.36633247 Ry
     estimated scf accuracy    <       0.09449183 Ry

     iteration #  5     ecut=    50.00 Ry     beta= 0.70
     CG style diagonalization
     ethr =  1.48E-04,  avg # of iterations =  3.3

     total cpu time spent up to now is     7452.8 secs

     total energy              =    -367.34490868 Ry
     Harris-Foulkes estimate   =    -367.35070592 Ry
     estimated scf accuracy    <       0.01819033 Ry

     iteration #  6     ecut=    50.00 Ry     beta= 0.70
     CG style diagonalization
     ethr =  2.84E-05,  avg # of iterations =  3.3

     total cpu time spent up to now is     7545.4 secs

     total energy              =    -367.34610047 Ry
     Harris-Foulkes estimate   =    -367.34656470 Ry
     estimated scf accuracy    <       0.00369613 Ry

     iteration #  7     ecut=    50.00 Ry     beta= 0.70
     CG style diagonalization
     ethr =  5.78E-06,  avg # of iterations =  3.3

     total cpu time spent up to now is     7637.9 secs

     total energy              =    -367.34606992 Ry
     Harris-Foulkes estimate   =    -367.34641410 Ry
     estimated scf accuracy    <       0.00237205 Ry

     iteration #  8     ecut=    50.00 Ry     beta= 0.70
     CG style diagonalization
     ethr =  3.71E-06,  avg # of iterations =  3.2

     total cpu time spent up to now is     7728.7 secs

     total energy              =    -367.34572052 Ry
     Harris-Foulkes estimate   =    -367.34622247 Ry
     estimated scf accuracy    <       0.00111702 Ry

     iteration #  9     ecut=    50.00 Ry     beta= 0.70
     CG style diagonalization
     ethr =  1.75E-06,  avg # of iterations =  3.7

     total cpu time spent up to now is     7831.7 secs

     total energy              =    -367.34590849 Ry
     Harris-Foulkes estimate   =    -367.34591880 Ry
     estimated scf accuracy    <       0.00001853 Ry

     iteration # 10     ecut=    50.00 Ry     beta= 0.70
     CG style diagonalization
     ethr =  2.89E-08,  avg # of iterations =  5.2

     total cpu time spent up to now is     7970.2 secs

     total energy              =    -367.34593101 Ry
     Harris-Foulkes estimate   =    -367.34594649 Ry
     estimated scf accuracy    <       0.00005219 Ry

     iteration # 11     ecut=    50.00 Ry     beta= 0.70
     CG style diagonalization
     ethr =  2.89E-08,  avg # of iterations =  3.7

     total cpu time spent up to now is     8072.0 secs

     total energy              =    -367.34592943 Ry
     Harris-Foulkes estimate   =    -367.34593561 Ry
     estimated scf accuracy    <       0.00001261 Ry

     iteration # 12     ecut=    50.00 Ry     beta= 0.70
     CG style diagonalization
     ethr =  1.97E-08,  avg # of iterations =  3.7

     total cpu time spent up to now is     8175.8 secs

     End of self-consistent calculation

     Number of k-points >= 100: set verbosity='high' to print the bands.

     highest occupied level (ev):     4.0586

!    total energy              =    -367.34593014 Ry
     Harris-Foulkes estimate   =    -367.34593227 Ry
     estimated scf accuracy    <       0.00000269 Ry

     The total energy is the sum of the following terms:

     one-electron contribution =    -161.91650305 Ry
     hartree contribution      =     108.49423720 Ry
     xc contribution           =     -75.10500618 Ry
     ewald contribution        =    -238.81865812 Ry

     convergence has been achieved in  12 iterations

     Forces acting on atoms (cartesian axes, Ry/au):

     atom    1 type  1   force =     0.00000000   -0.00000000    0.00000000
     atom    2 type  1   force =    -0.00000000   -0.00000000    0.00000000
     atom    3 type  2   force =    -0.00000000   -0.00000000    0.00000000
     atom    4 type  2   force =     0.00000000    0.00000000   -0.00000000
     atom    5 type  3   force =     0.03747542   -0.06490933   -0.00000000
     atom    6 type  3   force =    -0.07495084   -0.00000000    0.00000000
     atom    7 type  3   force =     0.03747542    0.06490933    0.00000000
     atom    8 type  3   force =     0.07495084    0.00000000   -0.00000000
     atom    9 type  3   force =    -0.03747542   -0.06490933   -0.00000000
     atom   10 type  3   force =    -0.03747542    0.06490933    0.00000000

     Total force =     0.183591     Total SCF correction =     0.003331


     Computing stress (Cartesian axis) and pressure

          total   stress  (Ry/bohr**3)                   (kbar)     P=  -33.20
  -0.00029366   0.00000000  -0.00000000        -43.20      0.00     -0.00
  -0.00000000  -0.00029366  -0.00000000         -0.00    -43.20     -0.00
  -0.00000000  -0.00000000  -0.00008978         -0.00     -0.00    -13.21


     BFGS Geometry Optimization

     number of scf cycles    =   1
     number of bfgs steps    =   0

     enthalpy new            =    -367.3459301399 Ry

     new trust radius        =       0.0749508391 bohr
     new conv_thr            =       0.0000100000 Ry

     new unit-cell volume =    914.70967 a.u.^3 (   135.54599 Ang^3 )
     density =      2.45232 g/cm^3

CELL_PARAMETERS (alat= 12.00000000)
   0.435436004  -0.251399094   0.805935412
  -0.000000000   0.502798188   0.805935412
  -0.435436004  -0.251399094   0.805935412

ATOMIC_POSITIONS (crystal)
Ca       0.500000000   0.500000000   0.500000000
Ca       0.000000000  -0.000000000   0.000000000
C        0.250000000   0.250000000   0.250000000
C        0.750000000   0.750000000   0.750000000
O        0.486757465   1.013242535   0.250000000
O        1.013242535   0.250000000   0.486757465
O        0.250000000   0.486757465   1.013242535
O       -0.013242535   0.750000000   0.513242535
O        0.750000000   0.513242535  -0.013242535
O        0.513242535  -0.013242535   0.750000000



     Writing output data file CCO_k.save/
     NEW-OLD atomic charge density approx. for the potential

     Check: negative core charge=   -0.000003
     extrapolated charge   62.90390, renormalised to   64.00000

     total cpu time spent up to now is     8181.2 secs

     Self-consistent Calculation

     iteration #  1     ecut=    50.00 Ry     beta= 0.70
     CG style diagonalization
     c_bands:  4 eigenvalues not converged
     c_bands:  5 eigenvalues not converged
     c_bands:  3 eigenvalues not converged
     c_bands:  3 eigenvalues not converged
     c_bands:  1 eigenvalues not converged
     c_bands:  4 eigenvalues not converged
     c_bands:  5 eigenvalues not converged
     c_bands:  3 eigenvalues not converged
     c_bands:  4 eigenvalues not converged
     c_bands:  3 eigenvalues not converged
     c_bands:  4 eigenvalues not converged
     c_bands:  4 eigenvalues not converged
     c_bands:  2 eigenvalues not converged
     c_bands:  2 eigenvalues not converged
     c_bands:  3 eigenvalues not converged
     c_bands:  5 eigenvalues not converged
     c_bands:  5 eigenvalues not converged
     c_bands:  4 eigenvalues not converged
     c_bands:  1 eigenvalues not converged
     c_bands:  3 eigenvalues not converged
     c_bands:  2 eigenvalues not converged
     c_bands:  4 eigenvalues not converged
     c_bands:  2 eigenvalues not converged
     c_bands:  5 eigenvalues not converged
     c_bands:  4 eigenvalues not converged
     c_bands:  3 eigenvalues not converged
     c_bands:  1 eigenvalues not converged
     c_bands:  1 eigenvalues not converged
     c_bands:  2 eigenvalues not converged
     c_bands:  4 eigenvalues not converged
     c_bands:  3 eigenvalues not converged
     c_bands:  4 eigenvalues not converged
     c_bands:  3 eigenvalues not converged
     c_bands:  1 eigenvalues not converged
     c_bands:  1 eigenvalues not converged
     c_bands:  4 eigenvalues not converged
     c_bands:  4 eigenvalues not converged
     c_bands:  5 eigenvalues not converged
     c_bands:  5 eigenvalues not converged
     c_bands:  5 eigenvalues not converged
     c_bands:  5 eigenvalues not converged
     c_bands:  2 eigenvalues not converged
     c_bands:  3 eigenvalues not converged
     c_bands:  4 eigenvalues not converged
     c_bands:  3 eigenvalues not converged
     c_bands:  2 eigenvalues not converged
     c_bands:  3 eigenvalues not converged
     c_bands:  5 eigenvalues not converged
     c_bands:  4 eigenvalues not converged
     c_bands:  3 eigenvalues not converged
     c_bands:  4 eigenvalues not converged
     c_bands:  3 eigenvalues not converged
     c_bands:  2 eigenvalues not converged
     c_bands:  2 eigenvalues not converged
     c_bands:  3 eigenvalues not converged
     c_bands:  5 eigenvalues not converged
     c_bands:  2 eigenvalues not converged
     c_bands:  4 eigenvalues not converged
     c_bands:  4 eigenvalues not converged
     c_bands:  3 eigenvalues not converged
     c_bands:  3 eigenvalues not converged
     c_bands:  1 eigenvalues not converged
     c_bands:  3 eigenvalues not converged
     c_bands:  5 eigenvalues not converged
     c_bands:  3 eigenvalues not converged
     c_bands:  5 eigenvalues not converged
     c_bands:  5 eigenvalues not converged
     c_bands:  2 eigenvalues not converged
     c_bands:  5 eigenvalues not converged
     c_bands:  3 eigenvalues not converged
     c_bands:  1 eigenvalues not converged
     c_bands:  1 eigenvalues not converged
     c_bands:  2 eigenvalues not converged
     c_bands:  5 eigenvalues not converged
     c_bands:  5 eigenvalues not converged
     c_bands:  4 eigenvalues not converged
     c_bands:  4 eigenvalues not converged
     c_bands:  3 eigenvalues not converged
     c_bands:  3 eigenvalues not converged
     c_bands:  4 eigenvalues not converged
     c_bands:  5 eigenvalues not converged
     c_bands:  5 eigenvalues not converged
     c_bands:  4 eigenvalues not converged
     c_bands:  4 eigenvalues not converged
     c_bands:  4 eigenvalues not converged
     c_bands:  4 eigenvalues not converged
     c_bands:  5 eigenvalues not converged
     c_bands:  5 eigenvalues not converged
     c_bands:  4 eigenvalues not converged
     c_bands:  5 eigenvalues not converged
     c_bands:  5 eigenvalues not converged
     c_bands:  3 eigenvalues not converged
     c_bands:  5 eigenvalues not converged
     c_bands:  3 eigenvalues not converged
     c_bands:  4 eigenvalues not converged
     c_bands:  4 eigenvalues not converged
     c_bands:  3 eigenvalues not converged
     c_bands:  5 eigenvalues not converged
     c_bands:  5 eigenvalues not converged
     c_bands:  4 eigenvalues not converged
     c_bands:  4 eigenvalues not converged
     c_bands:  2 eigenvalues not converged
     c_bands:  5 eigenvalues not converged
     c_bands:  4 eigenvalues not converged
     c_bands:  3 eigenvalues not converged
     c_bands:  4 eigenvalues not converged
[...]

     Forces acting on atoms (cartesian axes, Ry/au):

     atom    1 type  1   force =     0.00000000    0.00000000   -0.00000000
     atom    2 type  1   force =     0.00000000    0.00000000    0.00000000
     atom    3 type  2   force =     0.00000000    0.00000000    0.00000000
     atom    4 type  2   force =     0.00000000   -0.00000000   -0.00000000
     atom    5 type  3   force =    -0.00288366    0.00499465    0.00000000
     atom    6 type  3   force =     0.00576732   -0.00000000   -0.00000000
     atom    7 type  3   force =    -0.00288366   -0.00499465   -0.00000000
     atom    8 type  3   force =    -0.00576732    0.00000000    0.00000000
     atom    9 type  3   force =     0.00288366    0.00499465    0.00000000
     atom   10 type  3   force =     0.00288366   -0.00499465   -0.00000000

     Total force =     0.014127     Total SCF correction =     0.000578


     Computing stress (Cartesian axis) and pressure

          total   stress  (Ry/bohr**3)                   (kbar)     P=  -75.17
  -0.00077347   0.00000000   0.00000000       -113.78      0.00      0.00
   0.00000000  -0.00077347  -0.00000000          0.00   -113.78     -0.00
   0.00000000  -0.00000000   0.00001399          0.00     -0.00      2.06


     number of scf cycles    =   2
     number of bfgs steps    =   1

     enthalpy old            =    -367.3459301399 Ry
     enthalpy new            =    -367.3683380278 Ry

     CASE: enthalpy_new < enthalpy_old

     new trust radius        =       0.1958478390 bohr
     new conv_thr            =       0.0000005767 Ry

     new unit-cell volume =    854.71592 a.u.^3 (   126.65583 Ang^3 )
     density =      2.62445 g/cm^3

CELL_PARAMETERS (alat= 12.00000000)
   0.421337550  -0.243259348   0.804316729
  -0.000000000   0.486518695   0.804316729
  -0.421337550  -0.243259348   0.804316729

ATOMIC_POSITIONS (crystal)
Ca       0.500000000   0.500000000   0.500000000
Ca       0.000000000  -0.000000000   0.000000000
C        0.250000000   0.250000000   0.250000000
C        0.750000000   0.750000000   0.750000000
O        0.493806337   1.006193663   0.250000000
O        1.006193663   0.250000000   0.493806337
O        0.250000000   0.493806337   1.006193663
O       -0.006193663   0.750000000   0.506193663
O        0.750000000   0.506193663  -0.006193663
O        0.506193663  -0.006193663   0.750000000



     Writing output data file CCO_k.save/
     NEW-OLD atomic charge density approx. for the potential

     Check: negative core charge=   -0.000003
     extrapolated charge   59.50852, renormalised to   64.00000

     total cpu time spent up to now is     9257.3 secs

     Self-consistent Calculation

     iteration #  1     ecut=    50.00 Ry     beta= 0.70
     CG style diagonalization
     c_bands:  2 eigenvalues not converged
     c_bands:  5 eigenvalues not converged
     c_bands:  5 eigenvalues not converged
     c_bands:  3 eigenvalues not converged
     c_bands:  5 eigenvalues not converged
     c_bands:  4 eigenvalues not converged
     c_bands:  4 eigenvalues not converged
     c_bands:  5 eigenvalues not converged
     c_bands:  4 eigenvalues not converged
     c_bands:  4 eigenvalues not converged
     c_bands:  4 eigenvalues not converged
     c_bands:  5 eigenvalues not converged
     c_bands:  4 eigenvalues not converged
     c_bands:  2 eigenvalues not converged
     c_bands:  3 eigenvalues not converged
     c_bands:  4 eigenvalues not converged
     c_bands:  3 eigenvalues not converged
     c_bands:  5 eigenvalues not converged
     c_bands:  5 eigenvalues not converged
     c_bands:  5 eigenvalues not converged
     c_bands:  5 eigenvalues not converged
     c_bands:  3 eigenvalues not converged
     c_bands:  5 eigenvalues not converged
     c_bands:  2 eigenvalues not converged
     c_bands:  5 eigenvalues not converged
     c_bands:  3 eigenvalues not converged
     c_bands:  4 eigenvalues not converged
     c_bands:  4 eigenvalues not converged
     c_bands:  5 eigenvalues not converged
     c_bands:  4 eigenvalues not converged
     c_bands:  4 eigenvalues not converged
     c_bands:  4 eigenvalues not converged
     c_bands:  5 eigenvalues not converged
     c_bands:  5 eigenvalues not converged
     c_bands:  4 eigenvalues not converged
     c_bands:  4 eigenvalues not converged
     c_bands:  4 eigenvalues not converged
     c_bands:  4 eigenvalues not converged
     c_bands:  4 eigenvalues not converged
     c_bands:  5 eigenvalues not converged
     c_bands:  4 eigenvalues not converged
     c_bands:  5 eigenvalues not converged
     c_bands:  5 eigenvalues not converged
     c_bands:  5 eigenvalues not converged
     c_bands:  5 eigenvalues not converged
     c_bands:  4 eigenvalues not converged
     c_bands:  5 eigenvalues not converged
     c_bands:  5 eigenvalues not converged
     c_bands:  2 eigenvalues not converged
     c_bands:  5 eigenvalues not converged
     c_bands:  5 eigenvalues not converged
     c_bands:  5 eigenvalues not converged
     c_bands:  5 eigenvalues not converged
     c_bands:  5 eigenvalues not converged
     c_bands:  3 eigenvalues not converged
     c_bands:  4 eigenvalues not converged
     c_bands:  5 eigenvalues not converged
     c_bands:  4 eigenvalues not converged
     c_bands:  2 eigenvalues not converged
     c_bands:  2 eigenvalues not converged
     c_bands:  5 eigenvalues not converged
     c_bands:  5 eigenvalues not converged
     c_bands:  2 eigenvalues not converged
     c_bands:  5 eigenvalues not converged
     c_bands:  4 eigenvalues not converged
     c_bands:  3 eigenvalues not converged
     c_bands:  4 eigenvalues not converged
     c_bands:  2 eigenvalues not converged
     ethr =  1.00E-06,  avg # of iterations = 15.5

     total cpu time spent up to now is     9638.3 secs

     total energy              =    -366.45366882 Ry
     Harris-Foulkes estimate   =    -375.13266970 Ry
     estimated scf accuracy    <       0.64706097 Ry

     iteration #  2     ecut=    50.00 Ry     beta= 0.70
     CG style diagonalization
     ethr =  1.01E-03,  avg # of iterations =  5.2

     total cpu time spent up to now is     9776.8 secs

     total energy              =    -367.33116981 Ry
     Harris-Foulkes estimate   =    -368.15742432 Ry
     estimated scf accuracy    <       2.40893635 Ry

     iteration #  3     ecut=    50.00 Ry     beta= 0.70
     CG style diagonalization
     ethr =  1.01E-03,  avg # of iterations =  3.9

     total cpu time spent up to now is     9885.0 secs

     total energy              =    -367.42435108 Ry
     Harris-Foulkes estimate   =    -367.50214313 Ry
     estimated scf accuracy    <       0.31591599 Ry

     iteration #  4     ecut=    50.00 Ry     beta= 0.70
     CG style diagonalization
     ethr =  4.94E-04,  avg # of iterations =  3.0

     total cpu time spent up to now is     9970.1 secs

     total energy              =    -367.38286328 Ry
     Harris-Foulkes estimate   =    -367.43443895 Ry
     estimated scf accuracy    <       0.13445874 Ry

     iteration #  5     ecut=    50.00 Ry     beta= 0.70
     CG style diagonalization
     ethr =  2.10E-04,  avg # of iterations =  3.6

     total cpu time spent up to now is    10068.8 secs

     total energy              =    -367.40163594 Ry
     Harris-Foulkes estimate   =    -367.40311894 Ry
     estimated scf accuracy    <       0.00433314 Ry

     iteration #  6     ecut=    50.00 Ry     beta= 0.70
     CG style diagonalization
     ethr =  6.77E-06,  avg # of iterations =  4.0

     total cpu time spent up to now is    10177.5 secs

     total energy              =    -367.40288779 Ry
     Harris-Foulkes estimate   =    -367.40266646 Ry
     estimated scf accuracy    <       0.00179134 Ry

     iteration #  7     ecut=    50.00 Ry     beta= 0.70
     CG style diagonalization
     ethr =  2.80E-06,  avg # of iterations =  3.0

     total cpu time spent up to now is    10262.7 secs

     total energy              =    -367.40280590 Ry
     Harris-Foulkes estimate   =    -367.40294547 Ry
     estimated scf accuracy    <       0.00224115 Ry

     iteration #  8     ecut=    50.00 Ry     beta= 0.70
     CG style diagonalization
     ethr =  2.80E-06,  avg # of iterations =  3.2

     total cpu time spent up to now is    10353.6 secs

     total energy              =    -367.40205163 Ry
     Harris-Foulkes estimate   =    -367.40296782 Ry
     estimated scf accuracy    <       0.00262010 Ry

     iteration #  9     ecut=    50.00 Ry     beta= 0.70
     CG style diagonalization
     ethr =  2.80E-06,  avg # of iterations =  3.6

     total cpu time spent up to now is    10452.2 secs

     total energy              =    -367.40209944 Ry
     Harris-Foulkes estimate   =    -367.40224433 Ry
     estimated scf accuracy    <       0.00040095 Ry

     iteration # 10     ecut=    50.00 Ry     beta= 0.70
     CG style diagonalization
     ethr =  6.26E-07,  avg # of iterations =  3.6

     total cpu time spent up to now is    10553.5 secs

     total energy              =    -367.40214691 Ry
     Harris-Foulkes estimate   =    -367.40214851 Ry
     estimated scf accuracy    <       0.00002736 Ry

     iteration # 11     ecut=    50.00 Ry     beta= 0.70
     CG style diagonalization
     ethr =  4.28E-08,  avg # of iterations =  3.5

     total cpu time spent up to now is    10651.1 secs

     total energy              =    -367.40212813 Ry
     Harris-Foulkes estimate   =    -367.40215059 Ry
     estimated scf accuracy    <       0.00003906 Ry

     iteration # 12     ecut=    50.00 Ry     beta= 0.70
     CG style diagonalization
     ethr =  4.28E-08,  avg # of iterations =  4.2

     total cpu time spent up to now is    10765.6 secs

     total energy              =    -367.40213892 Ry
     Harris-Foulkes estimate   =    -367.40214049 Ry
     estimated scf accuracy    <       0.00000339 Ry

     iteration # 13     ecut=    50.00 Ry     beta= 0.70
     CG style diagonalization
     ethr =  5.30E-09,  avg # of iterations =  3.8

     total cpu time spent up to now is    10869.7 secs

     End of self-consistent calculation

     Number of k-points >= 100: set verbosity='high' to print the bands.

     highest occupied level (ev):     4.5279

!    total energy              =    -367.40213977 Ry
     Harris-Foulkes estimate   =    -367.40213980 Ry
     estimated scf accuracy    <       0.00000007 Ry

     The total energy is the sum of the following terms:

     one-electron contribution =    -142.48855462 Ry
     hartree contribution      =     100.75307751 Ry
     xc contribution           =     -75.12699362 Ry
     ewald contribution        =    -250.53966904 Ry

     convergence has been achieved in  13 iterations

     Forces acting on atoms (cartesian axes, Ry/au):

     atom    1 type  1   force =     0.00000000    0.00000000    0.00000000
     atom    2 type  1   force =     0.00000000    0.00000000    0.00000000
     atom    3 type  2   force =     0.00000000    0.00000000    0.00000000
     atom    4 type  2   force =    -0.00000000    0.00000000    0.00000000
     atom    5 type  3   force =    -0.00394394    0.00683111    0.00000000
     atom    6 type  3   force =     0.00788789    0.00000000   -0.00000000
     atom    7 type  3   force =    -0.00394394   -0.00683111   -0.00000000
     atom    8 type  3   force =    -0.00788789    0.00000000   -0.00000000
     atom    9 type  3   force =     0.00394394    0.00683111    0.00000000
     atom   10 type  3   force =     0.00394394   -0.00683111   -0.00000000

     Total force =     0.019321     Total SCF correction =     0.000191


     Computing stress (Cartesian axis) and pressure

          total   stress  (Ry/bohr**3)                   (kbar)     P=  -35.54
  -0.00045857   0.00000000   0.00000000        -67.46      0.00      0.00
   0.00000000  -0.00045857  -0.00000000          0.00    -67.46     -0.00
   0.00000000  -0.00000000   0.00019231          0.00     -0.00     28.29


     number of scf cycles    =   3
     number of bfgs steps    =   2

     enthalpy old            =    -367.3683380278 Ry
     enthalpy new            =    -367.4021397724 Ry

     CASE: enthalpy_new < enthalpy_old

     new trust radius        =       0.2260126119 bohr
     new conv_thr            =       0.0000007888 Ry

     new unit-cell volume =    795.03229 a.u.^3 (   117.81163 Ang^3 )
     density =      2.82147 g/cm^3

CELL_PARAMETERS (alat= 12.00000000)
   0.405051267  -0.233856458   0.809525282
  -0.000000000   0.467712917   0.809525282
  -0.405051267  -0.233856458   0.809525282

ATOMIC_POSITIONS (crystal)
Ca       0.500000000   0.500000000   0.500000000
Ca      -0.000000000  -0.000000000   0.000000000
C        0.250000000   0.250000000   0.250000000
C        0.750000000   0.750000000   0.750000000
O        0.501355629   0.998644371   0.250000000
O        0.998644371   0.250000000   0.501355629
O        0.250000000   0.501355629   0.998644371
O        0.001355629   0.750000000   0.498644371
O        0.750000000   0.498644371   0.001355629
O        0.498644371   0.001355629   0.750000000



     Writing output data file CCO_k.save/
     NEW-OLD atomic charge density approx. for the potential

     Check: negative core charge=   -0.000003
     extrapolated charge   59.19630, renormalised to   64.00000

     total cpu time spent up to now is    10875.0 secs

     Self-consistent Calculation

     iteration #  1     ecut=    50.00 Ry     beta= 0.70
     CG style diagonalization
     c_bands:  2 eigenvalues not converged
     c_bands:  4 eigenvalues not converged
     c_bands:  5 eigenvalues not converged
     c_bands:  5 eigenvalues not converged
     c_bands:  4 eigenvalues not converged
     c_bands:  5 eigenvalues not converged
     c_bands:  3 eigenvalues not converged
     c_bands:  3 eigenvalues not converged
     c_bands:  4 eigenvalues not converged
     c_bands:  5 eigenvalues not converged
     c_bands:  5 eigenvalues not converged
     c_bands:  4 eigenvalues not converged
     c_bands:  5 eigenvalues not converged
     c_bands:  5 eigenvalues not converged
     c_bands:  4 eigenvalues not converged
     c_bands:  4 eigenvalues not converged
     c_bands:  4 eigenvalues not converged
     c_bands:  5 eigenvalues not converged
     c_bands:  4 eigenvalues not converged
     c_bands:  4 eigenvalues not converged
     c_bands:  5 eigenvalues not converged
     c_bands:  4 eigenvalues not converged
     c_bands:  5 eigenvalues not converged
     c_bands:  5 eigenvalues not converged
     c_bands:  5 eigenvalues not converged
     c_bands:  4 eigenvalues not converged
     c_bands:  5 eigenvalues not converged
     c_bands:  4 eigenvalues not converged
     c_bands:  4 eigenvalues not converged
     c_bands:  5 eigenvalues not converged
     c_bands:  2 eigenvalues not converged
     c_bands:  3 eigenvalues not converged
     c_bands:  5 eigenvalues not converged
     c_bands:  3 eigenvalues not converged
     c_bands:  5 eigenvalues not converged
     c_bands:  4 eigenvalues not converged
     c_bands:  3 eigenvalues not converged
     c_bands:  5 eigenvalues not converged
     c_bands:  1 eigenvalues not converged
     c_bands:  4 eigenvalues not converged
     c_bands:  4 eigenvalues not converged
     c_bands:  1 eigenvalues not converged
     c_bands:  2 eigenvalues not converged
     c_bands:  1 eigenvalues not converged
     ethr =  1.00E-06,  avg # of iterations = 16.5

     total cpu time spent up to now is    11280.2 secs

     total energy              =    -366.40472351 Ry
     Harris-Foulkes estimate   =    -375.09019004 Ry
     estimated scf accuracy    <       0.69008283 Ry

     iteration #  2     ecut=    50.00 Ry     beta= 0.70
     CG style diagonalization
     ethr =  1.08E-03,  avg # of iterations =  5.1

     total cpu time spent up to now is    11416.9 secs

     total energy              =    -367.34624906 Ry
     Harris-Foulkes estimate   =    -368.17126684 Ry
     estimated scf accuracy    <       2.36079510 Ry

     iteration #  3     ecut=    50.00 Ry     beta= 0.70
     CG style diagonalization
     ethr =  1.08E-03,  avg # of iterations =  3.8

     total cpu time spent up to now is    11521.3 secs

     total energy              =    -367.43736078 Ry
     Harris-Foulkes estimate   =    -367.51307631 Ry
     estimated scf accuracy    <       0.29508880 Ry

     iteration #  4     ecut=    50.00 Ry     beta= 0.70
     CG style diagonalization
     ethr =  4.61E-04,  avg # of iterations =  3.0

     total cpu time spent up to now is    11606.2 secs

     total energy              =    -367.39839063 Ry
     Harris-Foulkes estimate   =    -367.44686937 Ry
     estimated scf accuracy    <       0.12719693 Ry

     iteration #  5     ecut=    50.00 Ry     beta= 0.70
     CG style diagonalization
     ethr =  1.99E-04,  avg # of iterations =  3.6

     total cpu time spent up to now is    11704.8 secs

     total energy              =    -367.41330305 Ry
     Harris-Foulkes estimate   =    -367.41466775 Ry
     estimated scf accuracy    <       0.00603438 Ry

     iteration #  6     ecut=    50.00 Ry     beta= 0.70
     CG style diagonalization
     ethr =  9.43E-06,  avg # of iterations =  3.6

     total cpu time spent up to now is    11804.8 secs

     total energy              =    -367.41368055 Ry
     Harris-Foulkes estimate   =    -367.41413606 Ry
     estimated scf accuracy    <       0.00473332 Ry

     iteration #  7     ecut=    50.00 Ry     beta= 0.70
     CG style diagonalization
     ethr =  7.40E-06,  avg # of iterations =  3.0

     total cpu time spent up to now is    11889.6 secs

     total energy              =    -367.41230726 Ry
     Harris-Foulkes estimate   =    -367.41378789 Ry
     estimated scf accuracy    <       0.00338035 Ry

     iteration #  8     ecut=    50.00 Ry     beta= 0.70
     CG style diagonalization
     ethr =  5.28E-06,  avg # of iterations =  3.6

     total cpu time spent up to now is    11990.1 secs

     total energy              =    -367.41278885 Ry
     Harris-Foulkes estimate   =    -367.41283274 Ry
     estimated scf accuracy    <       0.00008412 Ry

     iteration #  9     ecut=    50.00 Ry     beta= 0.70
     CG style diagonalization
     ethr =  1.31E-07,  avg # of iterations =  4.5

     total cpu time spent up to now is    12112.4 secs

     total energy              =    -367.41285164 Ry
     Harris-Foulkes estimate   =    -367.41285388 Ry
     estimated scf accuracy    <       0.00001712 Ry

     iteration # 10     ecut=    50.00 Ry     beta= 0.70
     CG style diagonalization
     ethr =  2.67E-08,  avg # of iterations =  3.2

     total cpu time spent up to now is    12202.9 secs

     total energy              =    -367.41285076 Ry
     Harris-Foulkes estimate   =    -367.41285320 Ry
     estimated scf accuracy    <       0.00001114 Ry

     iteration # 11     ecut=    50.00 Ry     beta= 0.70
     CG style diagonalization
     ethr =  1.74E-08,  avg # of iterations =  4.0

     total cpu time spent up to now is    12312.9 secs

     total energy              =    -367.41284851 Ry
     Harris-Foulkes estimate   =    -367.41285385 Ry
     estimated scf accuracy    <       0.00000973 Ry

     iteration # 12     ecut=    50.00 Ry     beta= 0.70
     CG style diagonalization
     ethr =  1.52E-08,  avg # of iterations =  3.7

     total cpu time spent up to now is    12415.4 secs

     total energy              =    -367.41285068 Ry
     Harris-Foulkes estimate   =    -367.41285080 Ry
     estimated scf accuracy    <       0.00000210 Ry

     iteration # 13     ecut=    50.00 Ry     beta= 0.70
     CG style diagonalization
     ethr =  3.28E-09,  avg # of iterations =  3.2

     total cpu time spent up to now is    12504.2 secs

     total energy              =    -367.41285091 Ry
     Harris-Foulkes estimate   =    -367.41285082 Ry
     estimated scf accuracy    <       0.00000185 Ry

     iteration # 14     ecut=    50.00 Ry     beta= 0.70
     CG style diagonalization
