
     Program PWSCF v.6.4.1 starts on  2May2022 at 19:30:50 

     This program is part of the open-source Quantum ESPRESSO suite
     for quantum simulation of materials; please cite
         "P. Giannozzi et al., J. Phys.:Condens. Matter 21 395502 (2009);
         "P. Giannozzi et al., J. Phys.:Condens. Matter 29 465901 (2017);
          URL http://www.quantum-espresso.org", 
     in publications or presentations arising from this work. More details at
     http://www.quantum-espresso.org/quote

     Parallel version (MPI & OpenMP), running on     300 processor cores
     Number of MPI processes:               300
     Threads/MPI process:                     1

     MPI processes distributed on     5 nodes
     R & G space division:  proc/nbgrp/npool/nimage =     300
     Waiting for input...
     Reading input from standard input

     Current dimensions of program PWSCF are:
     Max number of different atomic species (ntypx) = 10
     Max number of k-points (npk) =  40000
     Max angular momentum in pseudopotentials (lmaxx) =  3

     Subspace diagonalization in iterative solution of the eigenvalue problem:
     one sub-group per band group will be used
     scalapack distributed-memory algorithm (size of sub-group: 12* 12 procs)

 
     Parallelization info
     --------------------
     sticks:   dense  smooth     PW     G-vecs:    dense   smooth      PW
     Min           5       5      1                  131      131      18
     Max           6       6      2                  141      141      26
     Sum        1703    1703    509                40837    40837    6765
 


     bravais-lattice index     =            5
     lattice parameter (alat)  =      12.1620  a.u.
     unit-cell volume          =     854.7720 (a.u.)^3
     number of atoms/cell      =           10
     number of atomic types    =            3
     number of electrons       =        64.00
     number of Kohn-Sham states=           32
     kinetic-energy cutoff     =      50.0000  Ry
     charge density cutoff     =     200.0000  Ry
     convergence threshold     =      1.0E-05
     mixing beta               =       0.7000
     number of iterations used =            8  plain     mixing
     Exchange-correlation      = SLA  PW   PBE  PBE ( 1  4  3  4 0 0)
     nstep                     =           50


     celldm(1)=  12.162000  celldm(2)=   0.000000  celldm(3)=   0.000000
     celldm(4)=   0.692300  celldm(5)=   0.000000  celldm(6)=   0.000000

     crystal axes: (cart. coord. in units of alat)
               a(1) = (   0.392237  -0.226458   0.891553 )  
               a(2) = (   0.000000   0.452916   0.891553 )  
               a(3) = (  -0.392237  -0.226458   0.891553 )  

     reciprocal axes: (cart. coord. in units 2 pi/alat)
               b(1) = (  1.274739 -0.735971  0.373879 )  
               b(2) = (  0.000000  1.471942  0.373879 )  
               b(3) = ( -1.274739 -0.735971  0.373879 )  


     PseudoPot. # 1 for Ca read from file:
     ./Ca_PBE.UPF
     MD5 check sum: 403a4c14b9e4d4dfdc3024c9a3812218
     Pseudo is Ultrasoft + core correction, Zval = 10.0
     Generated by new atomic code, or converted to UPF format
     Using radial grid of  845 points,  6 beta functions with: 
                l(1) =   0
                l(2) =   0
                l(3) =   1
                l(4) =   1
                l(5) =   2
                l(6) =   2
     Q(r) pseudized with  8 coefficients,  rinner =    1.500   1.500   1.500
                                                       1.500   1.500

     PseudoPot. # 2 for C  read from file:
     ./C_PBE.UPF
     MD5 check sum: d1aef80898a10debaa0f26306b886e00
     Pseudo is Ultrasoft + core correction, Zval =  4.0
     Generated by new atomic code, or converted to UPF format
     Using radial grid of  721 points,  4 beta functions with: 
                l(1) =   0
                l(2) =   0
                l(3) =   1
                l(4) =   1
     Q(r) pseudized with  8 coefficients,  rinner =    1.100   1.100   1.100


     PseudoPot. # 3 for O  read from file:
     ./O_PBE.UPF
     MD5 check sum: 734c27235a0248c51dbae37a1fbe46ec
     Pseudo is Ultrasoft + core correction, Zval =  6.0
     Generated by new atomic code, or converted to UPF format
     Using radial grid of  737 points,  5 beta functions with: 
                l(1) =   0
                l(2) =   0
                l(3) =   1
                l(4) =   1
                l(5) =   2
     Q(r) pseudized with  8 coefficients,  rinner =    0.900   0.900   0.900
                                                       0.900   0.900

     atomic species   valence    mass     pseudopotential
        Ca            10.00    40.07800     Ca( 1.00)
        C              4.00    12.01070     C ( 1.00)
        O              6.00    16.00000     O ( 1.00)

     12 Sym. Ops., with inversion, found ( 6 have fractional translation)



   Cartesian axes

     site n.     atom                  positions (alat units)
         1           Ca  tau(   1) = (   0.0000000  -0.0000000   1.3373294  )
         2           Ca  tau(   2) = (   0.0000000   0.0000000   0.0000000  )
         3           C   tau(   3) = (   0.0000000  -0.0000000   0.6686647  )
         4           C   tau(   4) = (   0.0000000  -0.0000000   2.0059941  )
         5           O   tau(   5) = (   0.1007658   0.2783849   1.5602177  )
         6           O   tau(   6) = (   0.1907055  -0.2264582   1.5602177  )
         7           O   tau(   7) = (  -0.2914713  -0.0519267   1.5602177  )
         8           O   tau(   8) = (  -0.1907055   0.2264582   1.1144412  )
         9           O   tau(   9) = (   0.2914713   0.0519267   1.1144412  )
        10           O   tau(  10) = (  -0.1007658  -0.2783849   1.1144412  )

     number of k points=   116

     Number of k-points >= 100: set verbosity='high' to print them.

     Dense  grid:    40837 G-vectors     FFT dimensions: (  60,  60,  60)

     Estimated max dynamical RAM per process >      14.99 MB

     Estimated total dynamical RAM >       4.39 GB
     Message from routine sym_rho_init:
     some processors have no G-vectors for symmetrization
     Message from routine sym_rho_init:
     some processors have no G-vectors for symmetrization
     Message from routine sym_rho_init:
     some processors have no G-vectors for symmetrization
     Message from routine sym_rho_init:
     some processors have no G-vectors for symmetrization
     Message from routine sym_rho_init:
     some processors have no G-vectors for symmetrization
     Message from routine sym_rho_init:
     some processors have no G-vectors for symmetrization
     Message from routine sym_rho_init:
     some processors have no G-vectors for symmetrization
     Message from routine sym_rho_init:
     some processors have no G-vectors for symmetrization
     Message from routine sym_rho_init:
     some processors have no G-vectors for symmetrization
     Message from routine sym_rho_init:
     some processors have no G-vectors for symmetrization
     Message from routine sym_rho_init:
     some processors have no G-vectors for symmetrization
     Message from routine sym_rho_init:
     some processors have no G-vectors for symmetrization
     Message from routine sym_rho_init:
     some processors have no G-vectors for symmetrization
     Message from routine sym_rho_init:
     some processors have no G-vectors for symmetrization
     Message from routine sym_rho_init:
     some processors have no G-vectors for symmetrization
     Message from routine sym_rho_init:
     some processors have no G-vectors for symmetrization
     Message from routine sym_rho_init:
     some processors have no G-vectors for symmetrization
     Message from routine sym_rho_init:
     some processors have no G-vectors for symmetrization
     Message from routine sym_rho_init:
     some processors have no G-vectors for symmetrization
     Message from routine sym_rho_init:
     some processors have no G-vectors for symmetrization
     Message from routine sym_rho_init:
     some processors have no G-vectors for symmetrization
     Message from routine sym_rho_init:
     some processors have no G-vectors for symmetrization
     Message from routine sym_rho_init:
     some processors have no G-vectors for symmetrization
     Message from routine sym_rho_init:
     some processors have no G-vectors for symmetrization
     Message from routine sym_rho_init:
     some processors have no G-vectors for symmetrization
     Message from routine sym_rho_init:
     some processors have no G-vectors for symmetrization
     Message from routine sym_rho_init:
     some processors have no G-vectors for symmetrization
     Message from routine sym_rho_init:
     some processors have no G-vectors for symmetrization
     Message from routine sym_rho_init:
     some processors have no G-vectors for symmetrization
     Message from routine sym_rho_init:
     some processors have no G-vectors for symmetrization
     Message from routine sym_rho_init:
     some processors have no G-vectors for symmetrization
     Message from routine sym_rho_init:
     some processors have no G-vectors for symmetrization
     Message from routine sym_rho_init:
     some processors have no G-vectors for symmetrization
     Message from routine sym_rho_init:
     some processors have no G-vectors for symmetrization
     Message from routine sym_rho_init:
     some processors have no G-vectors for symmetrization
     Message from routine sym_rho_init:
     some processors have no G-vectors for symmetrization
     Message from routine sym_rho_init:
     some processors have no G-vectors for symmetrization
     Message from routine sym_rho_init:
     some processors have no G-vectors for symmetrization
     Message from routine sym_rho_init:
     some processors have no G-vectors for symmetrization
     Message from routine sym_rho_init:
     some processors have no G-vectors for symmetrization
     Message from routine sym_rho_init:
     some processors have no G-vectors for symmetrization
     Message from routine sym_rho_init:
     some processors have no G-vectors for symmetrization
     Message from routine sym_rho_init:
     some processors have no G-vectors for symmetrization
     Message from routine sym_rho_init:
     some processors have no G-vectors for symmetrization
     Message from routine sym_rho_init:
     some processors have no G-vectors for symmetrization
     Message from routine sym_rho_init:
     some processors have no G-vectors for symmetrization
     Message from routine sym_rho_init:
     some processors have no G-vectors for symmetrization
     Message from routine sym_rho_init:
     some processors have no G-vectors for symmetrization
     Message from routine sym_rho_init:
     some processors have no G-vectors for symmetrization
     Message from routine sym_rho_init:
     some processors have no G-vectors for symmetrization
     Message from routine sym_rho_init:
     some processors have no G-vectors for symmetrization
     Message from routine sym_rho_init:
     some processors have no G-vectors for symmetrization
     Message from routine sym_rho_init:
     some processors have no G-vectors for symmetrization
     Message from routine sym_rho_init:
     some processors have no G-vectors for symmetrization
     Message from routine sym_rho_init:
     some processors have no G-vectors for symmetrization
     Message from routine sym_rho_init:
     some processors have no G-vectors for symmetrization
     Message from routine sym_rho_init:
     some processors have no G-vectors for symmetrization
     Message from routine sym_rho_init:
     some processors have no G-vectors for symmetrization
     Message from routine sym_rho_init:
     some processors have no G-vectors for symmetrization
     Message from routine sym_rho_init:
     some processors have no G-vectors for symmetrization
     Message from routine sym_rho_init:
     some processors have no G-vectors for symmetrization
     Message from routine sym_rho_init:
     some processors have no G-vectors for symmetrization
     Message from routine sym_rho_init:
     some processors have no G-vectors for symmetrization
     Message from routine sym_rho_init:
     some processors have no G-vectors for symmetrization
     Message from routine sym_rho_init:
     some processors have no G-vectors for symmetrization
     Message from routine sym_rho_init:
     some processors have no G-vectors for symmetrization
     Message from routine sym_rho_init:
     some processors have no G-vectors for symmetrization
     Message from routine sym_rho_init:
     some processors have no G-vectors for symmetrization
     Message from routine sym_rho_init:
     some processors have no G-vectors for symmetrization
     Message from routine sym_rho_init:
     some processors have no G-vectors for symmetrization
     Message from routine sym_rho_init:
     some processors have no G-vectors for symmetrization
     Message from routine sym_rho_init:
     some processors have no G-vectors for symmetrization
     Message from routine sym_rho_init:
     some processors have no G-vectors for symmetrization
     Message from routine sym_rho_init:
     some processors have no G-vectors for symmetrization
     Message from routine sym_rho_init:
     some processors have no G-vectors for symmetrization
     Message from routine sym_rho_init:
     some processors have no G-vectors for symmetrization
     Message from routine sym_rho_init:
     some processors have no G-vectors for symmetrization
     Message from routine sym_rho_init:
     some processors have no G-vectors for symmetrization
     Message from routine sym_rho_init:
     some processors have no G-vectors for symmetrization
     Message from routine sym_rho_init:
     some processors have no G-vectors for symmetrization
     Message from routine sym_rho_init:
     some processors have no G-vectors for symmetrization
     Message from routine sym_rho_init:
     some processors have no G-vectors for symmetrization
     Message from routine sym_rho_init:
     some processors have no G-vectors for symmetrization
     Message from routine sym_rho_init:
     some processors have no G-vectors for symmetrization
     Message from routine sym_rho_init:
     some processors have no G-vectors for symmetrization
     Message from routine sym_rho_init:
     some processors have no G-vectors for symmetrization
     Message from routine sym_rho_init:
     some processors have no G-vectors for symmetrization
     Message from routine sym_rho_init:
     some processors have no G-vectors for symmetrization
     Message from routine sym_rho_init:
     some processors have no G-vectors for symmetrization
     Message from routine sym_rho_init:
     some processors have no G-vectors for symmetrization
     Message from routine sym_rho_init:
     some processors have no G-vectors for symmetrization
     Message from routine sym_rho_init:
     some processors have no G-vectors for symmetrization
     Message from routine sym_rho_init:
     some processors have no G-vectors for symmetrization
     Message from routine sym_rho_init:
     some processors have no G-vectors for symmetrization
     Message from routine sym_rho_init:
     some processors have no G-vectors for symmetrization
     Message from routine sym_rho_init:
     some processors have no G-vectors for symmetrization
     Message from routine sym_rho_init:
     some processors have no G-vectors for symmetrization
     Message from routine sym_rho_init:
     some processors have no G-vectors for symmetrization
     Message from routine sym_rho_init:
     some processors have no G-vectors for symmetrization
     Message from routine sym_rho_init:
     some processors have no G-vectors for symmetrization
     Message from routine sym_rho_init:
     some processors have no G-vectors for symmetrization
     Message from routine sym_rho_init:
     some processors have no G-vectors for symmetrization
     Message from routine sym_rho_init:
     some processors have no G-vectors for symmetrization
     Message from routine sym_rho_init:
     some processors have no G-vectors for symmetrization
     Message from routine sym_rho_init:
     some processors have no G-vectors for symmetrization
     Message from routine sym_rho_init:
     some processors have no G-vectors for symmetrization
     Message from routine sym_rho_init:
     some processors have no G-vectors for symmetrization
     Message from routine sym_rho_init:
     some processors have no G-vectors for symmetrization
     Message from routine sym_rho_init:
     some processors have no G-vectors for symmetrization
     Message from routine sym_rho_init:
     some processors have no G-vectors for symmetrization
     Message from routine sym_rho_init:
     some processors have no G-vectors for symmetrization
     Message from routine sym_rho_init:
     some processors have no G-vectors for symmetrization
     Message from routine sym_rho_init:
     some processors have no G-vectors for symmetrization
     Message from routine sym_rho_init:
     some processors have no G-vectors for symmetrization
     Message from routine sym_rho_init:
     some processors have no G-vectors for symmetrization
     Message from routine sym_rho_init:
     some processors have no G-vectors for symmetrization
     Message from routine sym_rho_init:
     some processors have no G-vectors for symmetrization
     Message from routine sym_rho_init:
     some processors have no G-vectors for symmetrization
     Message from routine sym_rho_init:
     some processors have no G-vectors for symmetrization
     Message from routine sym_rho_init:
     some processors have no G-vectors for symmetrization
     Message from routine sym_rho_init:
     some processors have no G-vectors for symmetrization
     Message from routine sym_rho_init:
     some processors have no G-vectors for symmetrization
     Message from routine sym_rho_init:
     some processors have no G-vectors for symmetrization
     Message from routine sym_rho_init:
     some processors have no G-vectors for symmetrization
     Message from routine sym_rho_init:
     some processors have no G-vectors for symmetrization
     Message from routine sym_rho_init:
     some processors have no G-vectors for symmetrization
     Message from routine sym_rho_init:
     some processors have no G-vectors for symmetrization
     Message from routine sym_rho_init:
     some processors have no G-vectors for symmetrization
     Message from routine sym_rho_init:
     some processors have no G-vectors for symmetrization
     Message from routine sym_rho_init:
     some processors have no G-vectors for symmetrization
     Message from routine sym_rho_init:
     some processors have no G-vectors for symmetrization
     Message from routine sym_rho_init:
     some processors have no G-vectors for symmetrization
     Message from routine sym_rho_init:
     some processors have no G-vectors for symmetrization
     Message from routine sym_rho_init:
     some processors have no G-vectors for symmetrization
     Message from routine sym_rho_init:
     some processors have no G-vectors for symmetrization
     Message from routine sym_rho_init:
     some processors have no G-vectors for symmetrization
     Message from routine sym_rho_init:
     some processors have no G-vectors for symmetrization
     Message from routine sym_rho_init:
     some processors have no G-vectors for symmetrization
     Message from routine sym_rho_init:
     some processors have no G-vectors for symmetrization
     Message from routine sym_rho_init:
     some processors have no G-vectors for symmetrization
     Message from routine sym_rho_init:
     some processors have no G-vectors for symmetrization
     Message from routine sym_rho_init:
     some processors have no G-vectors for symmetrization
     Message from routine sym_rho_init:
     some processors have no G-vectors for symmetrization
     Message from routine sym_rho_init:
     some processors have no G-vectors for symmetrization
     Message from routine sym_rho_init:
     some processors have no G-vectors for symmetrization
     Message from routine sym_rho_init:
     some processors have no G-vectors for symmetrization
     Message from routine sym_rho_init:
     some processors have no G-vectors for symmetrization
     Message from routine sym_rho_init:
     some processors have no G-vectors for symmetrization
     Message from routine sym_rho_init:
     some processors have no G-vectors for symmetrization
     Message from routine sym_rho_init:
     some processors have no G-vectors for symmetrization
     Message from routine sym_rho_init:
     some processors have no G-vectors for symmetrization
     Message from routine sym_rho_init:
     some processors have no G-vectors for symmetrization
     Message from routine sym_rho_init:
     some processors have no G-vectors for symmetrization
     Message from routine sym_rho_init:
     some processors have no G-vectors for symmetrization
     Message from routine sym_rho_init:
     some processors have no G-vectors for symmetrization
     Message from routine sym_rho_init:
     some processors have no G-vectors for symmetrization
     Message from routine sym_rho_init:
     some processors have no G-vectors for symmetrization
     Message from routine sym_rho_init:
     some processors have no G-vectors for symmetrization
     Message from routine sym_rho_init:
     some processors have no G-vectors for symmetrization
     Message from routine sym_rho_init:
     some processors have no G-vectors for symmetrization
     Message from routine sym_rho_init:
     some processors have no G-vectors for symmetrization
     Message from routine sym_rho_init:
     some processors have no G-vectors for symmetrization
     Message from routine sym_rho_init:
     some processors have no G-vectors for symmetrization
     Message from routine sym_rho_init:
     some processors have no G-vectors for symmetrization
     Message from routine sym_rho_init:
     some processors have no G-vectors for symmetrization
     Message from routine sym_rho_init:
     some processors have no G-vectors for symmetrization
     Message from routine sym_rho_init:
     some processors have no G-vectors for symmetrization
     Message from routine sym_rho_init:
     some processors have no G-vectors for symmetrization
     Message from routine sym_rho_init:
     some processors have no G-vectors for symmetrization
     Message from routine sym_rho_init:
     some processors have no G-vectors for symmetrization
     Message from routine sym_rho_init:
     some processors have no G-vectors for symmetrization
     Message from routine sym_rho_init:
     some processors have no G-vectors for symmetrization
     Message from routine sym_rho_init:
     some processors have no G-vectors for symmetrization
     Message from routine sym_rho_init:
     some processors have no G-vectors for symmetrization
     Message from routine sym_rho_init:
     some processors have no G-vectors for symmetrization
     Message from routine sym_rho_init:
     some processors have no G-vectors for symmetrization
     Message from routine sym_rho_init:
     some processors have no G-vectors for symmetrization
     Message from routine sym_rho_init:
     some processors have no G-vectors for symmetrization
     Message from routine sym_rho_init:
     some processors have no G-vectors for symmetrization
     Message from routine sym_rho_init:
     some processors have no G-vectors for symmetrization
     Message from routine sym_rho_init:
     some processors have no G-vectors for symmetrization
     Message from routine sym_rho_init:
     some processors have no G-vectors for symmetrization
     Message from routine sym_rho_init:
     some processors have no G-vectors for symmetrization
     Message from routine sym_rho_init:
     some processors have no G-vectors for symmetrization
     Message from routine sym_rho_init:
     some processors have no G-vectors for symmetrization
     Message from routine sym_rho_init:
     some processors have no G-vectors for symmetrization
     Message from routine sym_rho_init:
     some processors have no G-vectors for symmetrization
     Message from routine sym_rho_init:
     some processors have no G-vectors for symmetrization
     Message from routine sym_rho_init:
     some processors have no G-vectors for symmetrization
     Message from routine sym_rho_init:
     some processors have no G-vectors for symmetrization
     Message from routine sym_rho_init:
     some processors have no G-vectors for symmetrization
     Message from routine sym_rho_init:
     some processors have no G-vectors for symmetrization
     Message from routine sym_rho_init:
     some processors have no G-vectors for symmetrization
     Message from routine sym_rho_init:
     some processors have no G-vectors for symmetrization
     Message from routine sym_rho_init:
     some processors have no G-vectors for symmetrization
     Message from routine sym_rho_init:
     some processors have no G-vectors for symmetrization
     Message from routine sym_rho_init:
     some processors have no G-vectors for symmetrization
     Message from routine sym_rho_init:
     some processors have no G-vectors for symmetrization
     Message from routine sym_rho_init:
     some processors have no G-vectors for symmetrization
     Message from routine sym_rho_init:
     some processors have no G-vectors for symmetrization

     Check: negative core charge=   -0.000003

     Initial potential from superposition of free atoms

     starting charge   63.98899, renormalised to   64.00000
     Starting wfcs are   52 randomized atomic wfcs

     total cpu time spent up to now is       23.7 secs

     Self-consistent Calculation

     iteration #  1     ecut=    50.00 Ry     beta= 0.70
     CG style diagonalization
     ethr =  1.00E-02,  avg # of iterations =  2.7

     total cpu time spent up to now is       57.3 secs

     total energy              =    -366.66927160 Ry
     Harris-Foulkes estimate   =    -367.89235510 Ry
     estimated scf accuracy    <       1.75360316 Ry

     iteration #  2     ecut=    50.00 Ry     beta= 0.70
     CG style diagonalization
     ethr =  2.74E-03,  avg # of iterations =  4.4

     total cpu time spent up to now is      116.1 secs

     total energy              =    -367.10035091 Ry
     Harris-Foulkes estimate   =    -367.91429030 Ry
     estimated scf accuracy    <       1.67434601 Ry

     iteration #  3     ecut=    50.00 Ry     beta= 0.70
     CG style diagonalization
     ethr =  2.62E-03,  avg # of iterations =  3.8

     total cpu time spent up to now is      167.8 secs

     total energy              =    -367.41849815 Ry
     Harris-Foulkes estimate   =    -367.42050877 Ry
     estimated scf accuracy    <       0.01101747 Ry

     iteration #  4     ecut=    50.00 Ry     beta= 0.70
     CG style diagonalization
     ethr =  1.72E-05,  avg # of iterations =  4.4

     total cpu time spent up to now is      227.2 secs

     total energy              =    -367.42989742 Ry
     Harris-Foulkes estimate   =    -367.43092667 Ry
     estimated scf accuracy    <       0.00277248 Ry

     iteration #  5     ecut=    50.00 Ry     beta= 0.70
     CG style diagonalization
     ethr =  4.33E-06,  avg # of iterations =  3.6

     total cpu time spent up to now is      276.9 secs

     total energy              =    -367.43031260 Ry
     Harris-Foulkes estimate   =    -367.43034561 Ry
     estimated scf accuracy    <       0.00014918 Ry

     iteration #  6     ecut=    50.00 Ry     beta= 0.70
     CG style diagonalization
     ethr =  2.33E-07,  avg # of iterations =  4.1

     total cpu time spent up to now is      332.9 secs

     total energy              =    -367.43035183 Ry
     Harris-Foulkes estimate   =    -367.43036520 Ry
     estimated scf accuracy    <       0.00002285 Ry

     iteration #  7     ecut=    50.00 Ry     beta= 0.70
     CG style diagonalization
     ethr =  3.57E-08,  avg # of iterations =  4.1

     total cpu time spent up to now is      388.5 secs

     End of self-consistent calculation

     Number of k-points >= 100: set verbosity='high' to print the bands.

     highest occupied level (ev):     4.4874

!    total energy              =    -367.43036037 Ry
     Harris-Foulkes estimate   =    -367.43036338 Ry
     estimated scf accuracy    <       0.00000473 Ry

     The total energy is the sum of the following terms:

     one-electron contribution =    -148.11933963 Ry
     hartree contribution      =     103.42497171 Ry
     xc contribution           =     -75.26262958 Ry
     ewald contribution        =    -247.47336287 Ry

     convergence has been achieved in   7 iterations

     Forces acting on atoms (cartesian axes, Ry/au):

     atom    1 type  1   force =    -0.00000000   -0.00000000    0.00000000
     atom    2 type  1   force =     0.00000000    0.00000000    0.00000000
     atom    3 type  2   force =    -0.00000000    0.00000000    0.00000000
     atom    4 type  2   force =     0.00000000    0.00000000    0.00000000
     atom    5 type  3   force =     0.00003647   -0.00006316   -0.00000000
     atom    6 type  3   force =    -0.00007293   -0.00000000    0.00000000
     atom    7 type  3   force =     0.00003647    0.00006316    0.00000000
     atom    8 type  3   force =     0.00007293    0.00000000   -0.00000000
     atom    9 type  3   force =    -0.00003647   -0.00006316   -0.00000000
     atom   10 type  3   force =    -0.00003647    0.00006316    0.00000000

     Total force =     0.000179     Total SCF correction =     0.000160
     SCF correction compared to forces is large: reduce conv_thr to get better values


     Computing stress (Cartesian axis) and pressure

          total   stress  (Ry/bohr**3)                   (kbar)     P=   -4.89
  -0.00003447   0.00000000   0.00000000         -5.07      0.00      0.00
  -0.00000000  -0.00003447  -0.00000000         -0.00     -5.07     -0.00
   0.00000000  -0.00000000  -0.00003071          0.00     -0.00     -4.52


     BFGS Geometry Optimization

     number of scf cycles    =   1
     number of bfgs steps    =   0

     enthalpy new            =    -367.4303603686 Ry

     new trust radius        =       0.0050386213 bohr
     new conv_thr            =       0.0000100000 Ry

     new unit-cell volume =    852.64438 a.u.^3 (   126.34886 Ang^3 )
     density =      2.63083 g/cm^3

CELL_PARAMETERS (alat= 12.16200000)
   0.391899182  -0.226263098   0.890868494
   0.000000000   0.452526196   0.890868494
  -0.391899182  -0.226263098   0.890868494

ATOMIC_POSITIONS (crystal)
Ca       0.500000000   0.500000000   0.500000000
Ca       0.000000000   0.000000000   0.000000000
C        0.250000000   0.250000000   0.250000000
C        0.750000000   0.750000000   0.750000000
O        0.506907889   0.993092111   0.250000000
O        0.993092111   0.250000000   0.506907889
O        0.250000000   0.506907889   0.993092111
O        0.006907889   0.750000000   0.493092111
O        0.750000000   0.493092111   0.006907889
O        0.493092111   0.006907889   0.750000000



     Writing output data file CCO_k.save/
     NEW-OLD atomic charge density approx. for the potential

     Check: negative core charge=   -0.000003
     extrapolated charge   63.84033, renormalised to   64.00000

     total cpu time spent up to now is      391.3 secs

     Self-consistent Calculation

     iteration #  1     ecut=    50.00 Ry     beta= 0.70
     CG style diagonalization
     c_bands:  1 eigenvalues not converged
     ethr =  1.00E-06,  avg # of iterations =  3.6

     total cpu time spent up to now is      436.0 secs

     total energy              =    -367.42878046 Ry
     Harris-Foulkes estimate   =    -367.71571996 Ry
     estimated scf accuracy    <       0.00118225 Ry

     iteration #  2     ecut=    50.00 Ry     beta= 0.70
     CG style diagonalization
     ethr =  1.85E-06,  avg # of iterations =  4.9

     total cpu time spent up to now is      503.4 secs

     total energy              =    -367.43023305 Ry
     Harris-Foulkes estimate   =    -367.43150210 Ry
     estimated scf accuracy    <       0.00347163 Ry

     iteration #  3     ecut=    50.00 Ry     beta= 0.70
     CG style diagonalization
     ethr =  1.85E-06,  avg # of iterations =  3.8

     total cpu time spent up to now is      558.5 secs

     total energy              =    -367.43039406 Ry
     Harris-Foulkes estimate   =    -367.43049472 Ry
     estimated scf accuracy    <       0.00039909 Ry

     iteration #  4     ecut=    50.00 Ry     beta= 0.70
     CG style diagonalization
     ethr =  6.24E-07,  avg # of iterations =  3.0

     total cpu time spent up to now is      602.6 secs

     total energy              =    -367.43035954 Ry
     Harris-Foulkes estimate   =    -367.43040666 Ry
     estimated scf accuracy    <       0.00017347 Ry

     iteration #  5     ecut=    50.00 Ry     beta= 0.70
     CG style diagonalization
     ethr =  2.71E-07,  avg # of iterations =  3.1

     total cpu time spent up to now is      648.9 secs

     total energy              =    -367.43035249 Ry
     Harris-Foulkes estimate   =    -367.43036889 Ry
     estimated scf accuracy    <       0.00004952 Ry

     iteration #  6     ecut=    50.00 Ry     beta= 0.70
     CG style diagonalization
     ethr =  7.74E-08,  avg # of iterations =  3.4

     total cpu time spent up to now is      697.9 secs

     End of self-consistent calculation

     Number of k-points >= 100: set verbosity='high' to print the bands.

     highest occupied level (ev):     4.5152

!    total energy              =    -367.43035243 Ry
     Harris-Foulkes estimate   =    -367.43035747 Ry
     estimated scf accuracy    <       0.00000636 Ry

     The total energy is the sum of the following terms:

     one-electron contribution =    -147.80065688 Ry
     hartree contribution      =     103.32370643 Ry
     xc contribution           =     -75.27569629 Ry
     ewald contribution        =    -247.67770569 Ry

     convergence has been achieved in   6 iterations

     Forces acting on atoms (cartesian axes, Ry/au):

     atom    1 type  1   force =    -0.00000000    0.00000000   -0.00000000
     atom    2 type  1   force =     0.00000000    0.00000000    0.00000000
     atom    3 type  2   force =     0.00000000   -0.00000000   -0.00000000
     atom    4 type  2   force =    -0.00000000   -0.00000000   -0.00000000
     atom    5 type  3   force =     0.00087568   -0.00151672   -0.00000000
     atom    6 type  3   force =    -0.00175136    0.00000000   -0.00000000
     atom    7 type  3   force =     0.00087568    0.00151672    0.00000000
     atom    8 type  3   force =     0.00175136   -0.00000000    0.00000000
     atom    9 type  3   force =    -0.00087568   -0.00151672   -0.00000000
     atom   10 type  3   force =    -0.00087568    0.00151672    0.00000000

     Total force =     0.004290     Total SCF correction =     0.001754
     SCF correction compared to forces is large: reduce conv_thr to get better values


     Computing stress (Cartesian axis) and pressure

          total   stress  (Ry/bohr**3)                   (kbar)     P=   -2.06
  -0.00000850   0.00000000  -0.00000000         -1.25      0.00     -0.00
   0.00000000  -0.00000850  -0.00000000          0.00     -1.25     -0.00
  -0.00000000  -0.00000000  -0.00002507         -0.00     -0.00     -3.69


     number of scf cycles    =   2
     number of bfgs steps    =   1

     enthalpy old            =    -367.4303603686 Ry
     enthalpy new            =    -367.4303524267 Ry

     CASE: enthalpy_new > enthalpy_old

     new trust radius        =       0.0022648544 bohr
     new conv_thr            =       0.0000100000 Ry

     new unit-cell volume =    853.81481 a.u.^3 (   126.52230 Ang^3 )
     density =      2.62722 g/cm^3

CELL_PARAMETERS (alat= 12.16200000)
   0.392085188  -0.226370489   0.891245171
   0.000000000   0.452740978   0.891245171
  -0.392085188  -0.226370489   0.891245171

ATOMIC_POSITIONS (crystal)
Ca       0.500000000   0.500000000   0.500000000
Ca       0.000000000   0.000000000   0.000000000
C        0.250000000   0.250000000   0.250000000
C        0.750000000   0.750000000   0.750000000
O        0.506903682   0.993096318   0.250000000
O        0.993096318   0.250000000   0.506903682
O        0.250000000   0.506903682   0.993096318
O        0.006903682   0.750000000   0.493096318
O        0.750000000   0.493096318   0.006903682
O        0.493096318   0.006903682   0.750000000



     Writing output data file CCO_k.save/
     NEW-OLD atomic charge density approx. for the potential

     Check: negative core charge=   -0.000003
     extrapolated charge   64.08772, renormalised to   64.00000

     total cpu time spent up to now is      700.6 secs

     Self-consistent Calculation

     iteration #  1     ecut=    50.00 Ry     beta= 0.70
     CG style diagonalization
     ethr =  1.00E-06,  avg # of iterations =  2.5

     total cpu time spent up to now is      732.2 secs

     total energy              =    -367.43001375 Ry
     Harris-Foulkes estimate   =    -367.27350869 Ry
     estimated scf accuracy    <       0.00019568 Ry

     iteration #  2     ecut=    50.00 Ry     beta= 0.70
     CG style diagonalization
     ethr =  3.06E-07,  avg # of iterations =  5.2

     total cpu time spent up to now is      803.6 secs

     total energy              =    -367.43036671 Ry
     Harris-Foulkes estimate   =    -367.43062324 Ry
     estimated scf accuracy    <       0.00076890 Ry

     iteration #  3     ecut=    50.00 Ry     beta= 0.70
     CG style diagonalization
     ethr =  3.06E-07,  avg # of iterations =  3.8

     total cpu time spent up to now is      858.3 secs

     total energy              =    -367.43037971 Ry
     Harris-Foulkes estimate   =    -367.43041232 Ry
     estimated scf accuracy    <       0.00013258 Ry

     iteration #  4     ecut=    50.00 Ry     beta= 0.70
     CG style diagonalization
     ethr =  2.07E-07,  avg # of iterations =  3.0

     total cpu time spent up to now is      902.9 secs

     total energy              =    -367.43036382 Ry
     Harris-Foulkes estimate   =    -367.43038293 Ry
     estimated scf accuracy    <       0.00005764 Ry

     iteration #  5     ecut=    50.00 Ry     beta= 0.70
     CG style diagonalization
     ethr =  9.01E-08,  avg # of iterations =  3.3

     total cpu time spent up to now is      950.5 secs

     End of self-consistent calculation

     Number of k-points >= 100: set verbosity='high' to print the bands.

     highest occupied level (ev):     4.4901

!    total energy              =    -367.43036174 Ry
     Harris-Foulkes estimate   =    -367.43036844 Ry
     estimated scf accuracy    <       0.00000846 Ry

     The total energy is the sum of the following terms:

     one-electron contribution =    -148.01176874 Ry
     hartree contribution      =     103.42622505 Ry
     xc contribution           =     -75.27960924 Ry
     ewald contribution        =    -247.56520882 Ry

     convergence has been achieved in   5 iterations

     Forces acting on atoms (cartesian axes, Ry/au):

     atom    1 type  1   force =     0.00000000    0.00000000    0.00000000
     atom    2 type  1   force =     0.00000000    0.00000000    0.00000000
     atom    3 type  2   force =     0.00000000    0.00000000    0.00000000
     atom    4 type  2   force =    -0.00000000   -0.00000000   -0.00000000
     atom    5 type  3   force =     0.00063499   -0.00109984   -0.00000000
     atom    6 type  3   force =    -0.00126999   -0.00000000    0.00000000
     atom    7 type  3   force =     0.00063499    0.00109984    0.00000000
     atom    8 type  3   force =     0.00126999   -0.00000000    0.00000000
     atom    9 type  3   force =    -0.00063499   -0.00109984   -0.00000000
     atom   10 type  3   force =    -0.00063499    0.00109984    0.00000000

     Total force =     0.003111     Total SCF correction =     0.003159
     SCF correction compared to forces is large: reduce conv_thr to get better values


     Computing stress (Cartesian axis) and pressure

          total   stress  (Ry/bohr**3)                   (kbar)     P=    5.35
   0.00003381  -0.00000000  -0.00000000          4.97     -0.00     -0.00
  -0.00000000   0.00003381   0.00000000         -0.00      4.97      0.00
  -0.00000000   0.00000000   0.00004157         -0.00      0.00      6.11


     number of scf cycles    =   3
     number of bfgs steps    =   1

     enthalpy old            =    -367.4303603686 Ry
     enthalpy new            =    -367.4303617435 Ry

     CASE: enthalpy_new < enthalpy_old

     new trust radius        =       0.0014512628 bohr
     new conv_thr            =       0.0000001000 Ry

     new unit-cell volume =    854.23920 a.u.^3 (   126.58519 Ang^3 )
     density =      2.62592 g/cm^3

CELL_PARAMETERS (alat= 12.16200000)
   0.392133934  -0.226398632   0.891466496
   0.000000000   0.452797265   0.891466496
  -0.392133934  -0.226398632   0.891466496

ATOMIC_POSITIONS (crystal)
Ca       0.500000000   0.500000000   0.500000000
Ca       0.000000000   0.000000000   0.000000000
C        0.250000000   0.250000000   0.250000000
C        0.750000000   0.750000000   0.750000000
O        0.506970227   0.993029773   0.250000000
O        0.993029773   0.250000000   0.506970227
O        0.250000000   0.506970227   0.993029773
O        0.006970227   0.750000000   0.493029773
O        0.750000000   0.493029773   0.006970227
O        0.493029773   0.006970227   0.750000000



     Writing output data file CCO_k.save/
     NEW-OLD atomic charge density approx. for the potential

     Check: negative core charge=   -0.000003
     extrapolated charge   64.03179, renormalised to   64.00000

     total cpu time spent up to now is      953.8 secs

     Self-consistent Calculation

     iteration #  1     ecut=    50.00 Ry     beta= 0.70
     CG style diagonalization
     ethr =  1.00E-06,  avg # of iterations =  2.7

     total cpu time spent up to now is      987.8 secs

     total energy              =    -367.43024281 Ry
     Harris-Foulkes estimate   =    -367.37352437 Ry
     estimated scf accuracy    <       0.00013095 Ry

     iteration #  2     ecut=    50.00 Ry     beta= 0.70
     CG style diagonalization
     ethr =  2.05E-07,  avg # of iterations =  4.7

     total cpu time spent up to now is     1053.8 secs

     total energy              =    -367.43034691 Ry
     Harris-Foulkes estimate   =    -367.43044512 Ry
     estimated scf accuracy    <       0.00023749 Ry

     iteration #  3     ecut=    50.00 Ry     beta= 0.70
     CG style diagonalization
     ethr =  2.05E-07,  avg # of iterations =  3.7

     total cpu time spent up to now is     1105.1 secs

     total energy              =    -367.43036771 Ry
     Harris-Foulkes estimate   =    -367.43037124 Ry
     estimated scf accuracy    <       0.00001310 Ry

     iteration #  4     ecut=    50.00 Ry     beta= 0.70
     CG style diagonalization
     ethr =  2.05E-08,  avg # of iterations =  3.2

     total cpu time spent up to now is     1150.8 secs

     total energy              =    -367.43036715 Ry
     Harris-Foulkes estimate   =    -367.43036851 Ry
     estimated scf accuracy    <       0.00000638 Ry

     iteration #  5     ecut=    50.00 Ry     beta= 0.70
     CG style diagonalization
     ethr =  9.97E-09,  avg # of iterations =  3.0

     total cpu time spent up to now is     1193.4 secs

     total energy              =    -367.43036607 Ry
     Harris-Foulkes estimate   =    -367.43036739 Ry
     estimated scf accuracy    <       0.00000270 Ry

     iteration #  6     ecut=    50.00 Ry     beta= 0.70
     CG style diagonalization
     ethr =  4.22E-09,  avg # of iterations =  3.6

     total cpu time spent up to now is     1243.0 secs

     End of self-consistent calculation

     Number of k-points >= 100: set verbosity='high' to print the bands.

     highest occupied level (ev):     4.4900

!    total energy              =    -367.43036663 Ry
     Harris-Foulkes estimate   =    -367.43036665 Ry
     estimated scf accuracy    <       0.00000003 Ry

     The total energy is the sum of the following terms:

     one-electron contribution =    -148.01630544 Ry
     hartree contribution      =     103.39948902 Ry
     xc contribution           =     -75.26822062 Ry
     ewald contribution        =    -247.54532959 Ry

     convergence has been achieved in   6 iterations

     Forces acting on atoms (cartesian axes, Ry/au):

     atom    1 type  1   force =     0.00000000    0.00000000    0.00000000
     atom    2 type  1   force =     0.00000000    0.00000000    0.00000000
     atom    3 type  2   force =     0.00000000   -0.00000000   -0.00000000
     atom    4 type  2   force =    -0.00000000   -0.00000000   -0.00000000
     atom    5 type  3   force =    -0.00009219    0.00015968    0.00000000
     atom    6 type  3   force =     0.00018438   -0.00000000   -0.00000000
     atom    7 type  3   force =    -0.00009219   -0.00015968   -0.00000000
     atom    8 type  3   force =    -0.00018438    0.00000000    0.00000000
     atom    9 type  3   force =     0.00009219    0.00015968    0.00000000
     atom   10 type  3   force =     0.00009219   -0.00015968   -0.00000000

     Total force =     0.000452     Total SCF correction =     0.000528
     SCF correction compared to forces is large: reduce conv_thr to get better values


     Computing stress (Cartesian axis) and pressure

          total   stress  (Ry/bohr**3)                   (kbar)     P=   -1.06
  -0.00001049   0.00000000  -0.00000000         -1.54      0.00     -0.00
   0.00000000  -0.00001049  -0.00000000          0.00     -1.54     -0.00
   0.00000000  -0.00000000  -0.00000059          0.00     -0.00     -0.09


     number of scf cycles    =   4
     number of bfgs steps    =   2

     enthalpy old            =    -367.4303617435 Ry
     enthalpy new            =    -367.4303666288 Ry

     CASE: enthalpy_new < enthalpy_old

     new trust radius        =       0.0007836897 bohr
     new conv_thr            =       0.0000001000 Ry

     new unit-cell volume =    854.17630 a.u.^3 (   126.57587 Ang^3 )
     density =      2.62611 g/cm^3

CELL_PARAMETERS (alat= 12.16200000)
   0.392093212  -0.226375122   0.891586013
   0.000000000   0.452750243   0.891586013
  -0.392093212  -0.226375122   0.891586013

ATOMIC_POSITIONS (crystal)
Ca       0.500000000   0.500000000   0.500000000
Ca       0.000000000   0.000000000   0.000000000
C        0.250000000   0.250000000   0.250000000
C        0.750000000   0.750000000   0.750000000
O        0.506969928   0.993030072   0.250000000
O        0.993030072   0.250000000   0.506969928
O        0.250000000   0.506969928   0.993030072
O        0.006969928   0.750000000   0.493030072
O        0.750000000   0.493030072   0.006969928
O        0.493030072   0.006969928   0.750000000



     Writing output data file CCO_k.save/
     NEW-OLD atomic charge density approx. for the potential

     Check: negative core charge=   -0.000003
     extrapolated charge   63.99529, renormalised to   64.00000

     total cpu time spent up to now is     1245.8 secs

     Self-consistent Calculation

     iteration #  1     ecut=    50.00 Ry     beta= 0.70
     CG style diagonalization
     ethr =  1.00E-06,  avg # of iterations =  2.0

     Threshold (ethr) on eigenvalues was too large:
     Diagonalizing with lowered threshold

     CG style diagonalization
     ethr =  1.64E-09,  avg # of iterations =  4.1

     total cpu time spent up to now is     1322.1 secs

     total energy              =    -367.43036636 Ry
     Harris-Foulkes estimate   =    -367.43879816 Ry
     estimated scf accuracy    <       0.00000182 Ry

     iteration #  2     ecut=    50.00 Ry     beta= 0.70
     CG style diagonalization
     ethr =  2.84E-09,  avg # of iterations =  4.8

     total cpu time spent up to now is     1387.9 secs

     total energy              =    -367.43036800 Ry
     Harris-Foulkes estimate   =    -367.43036948 Ry
     estimated scf accuracy    <       0.00000368 Ry

     iteration #  3     ecut=    50.00 Ry     beta= 0.70
     CG style diagonalization
     ethr =  2.84E-09,  avg # of iterations =  3.7

     total cpu time spent up to now is     1443.2 secs

     total energy              =    -367.43036825 Ry
     Harris-Foulkes estimate   =    -367.43036834 Ry
     estimated scf accuracy    <       0.00000028 Ry

     iteration #  4     ecut=    50.00 Ry     beta= 0.70
     CG style diagonalization
     ethr =  4.35E-10,  avg # of iterations =  3.2

     total cpu time spent up to now is     1491.6 secs

     End of self-consistent calculation

     Number of k-points >= 100: set verbosity='high' to print the bands.

     highest occupied level (ev):     4.4916

!    total energy              =    -367.43036820 Ry
     Harris-Foulkes estimate   =    -367.43036827 Ry
     estimated scf accuracy    <       0.00000008 Ry

     The total energy is the sum of the following terms:

     one-electron contribution =    -148.02676832 Ry
     hartree contribution      =     103.40571276 Ry
     xc contribution           =     -75.26919980 Ry
     ewald contribution        =    -247.54011285 Ry

     convergence has been achieved in   4 iterations

     Forces acting on atoms (cartesian axes, Ry/au):

     atom    1 type  1   force =    -0.00000000    0.00000000   -0.00000000
     atom    2 type  1   force =     0.00000000   -0.00000000   -0.00000000
     atom    3 type  2   force =     0.00000000   -0.00000000   -0.00000000
     atom    4 type  2   force =     0.00000000   -0.00000000   -0.00000000
     atom    5 type  3   force =     0.00001545   -0.00002677   -0.00000000
     atom    6 type  3   force =    -0.00003091    0.00000000   -0.00000000
     atom    7 type  3   force =     0.00001545    0.00002677    0.00000000
     atom    8 type  3   force =     0.00003091   -0.00000000   -0.00000000
     atom    9 type  3   force =    -0.00001545   -0.00002677   -0.00000000
     atom   10 type  3   force =    -0.00001545    0.00002677    0.00000000

     Total force =     0.000076     Total SCF correction =     0.000297
     SCF correction compared to forces is large: reduce conv_thr to get better values


     Computing stress (Cartesian axis) and pressure

          total   stress  (Ry/bohr**3)                   (kbar)     P=   -1.04
  -0.00000928  -0.00000000  -0.00000000         -1.36     -0.00     -0.00
  -0.00000000  -0.00000928  -0.00000000         -0.00     -1.36     -0.00
  -0.00000000  -0.00000000  -0.00000257         -0.00     -0.00     -0.38


     number of scf cycles    =   5
     number of bfgs steps    =   3

     enthalpy old            =    -367.4303666288 Ry
     enthalpy new            =    -367.4303682025 Ry

     CASE: enthalpy_new < enthalpy_old

     new trust radius        =       0.0011753336 bohr
     new conv_thr            =       0.0000001000 Ry

     new unit-cell volume =    854.01176 a.u.^3 (   126.55148 Ang^3 )
     density =      2.62662 g/cm^3

CELL_PARAMETERS (alat= 12.16200000)
   0.392016037  -0.226330564   0.891765289
   0.000000000   0.452661129   0.891765289
  -0.392016037  -0.226330564   0.891765289

ATOMIC_POSITIONS (crystal)
Ca       0.500000000   0.500000000   0.500000000
Ca       0.000000000   0.000000000  -0.000000000
C        0.250000000   0.250000000   0.250000000
C        0.750000000   0.750000000   0.750000000
O        0.506995960   0.993004040   0.250000000
O        0.993004040   0.250000000   0.506995960
O        0.250000000   0.506995960   0.993004040
O        0.006995960   0.750000000   0.493004040
O        0.750000000   0.493004040   0.006995960
O        0.493004040   0.006995960   0.750000000



     Writing output data file CCO_k.save/
     NEW-OLD atomic charge density approx. for the potential

     Check: negative core charge=   -0.000003
     extrapolated charge   63.98767, renormalised to   64.00000

     total cpu time spent up to now is     1494.8 secs

     Self-consistent Calculation

     iteration #  1     ecut=    50.00 Ry     beta= 0.70
     CG style diagonalization
     ethr =  1.00E-06,  avg # of iterations =  2.0

     Threshold (ethr) on eigenvalues was too large:
     Diagonalizing with lowered threshold

     CG style diagonalization
     c_bands:  1 eigenvalues not converged
     c_bands:  1 eigenvalues not converged
     c_bands:  1 eigenvalues not converged
     ethr =  7.16E-09,  avg # of iterations =  3.6

     total cpu time spent up to now is     1567.7 secs

     total energy              =    -367.43035990 Ry
     Harris-Foulkes estimate   =    -367.45242241 Ry
     estimated scf accuracy    <       0.00000832 Ry

     iteration #  2     ecut=    50.00 Ry     beta= 0.70
     CG style diagonalization
     ethr =  1.30E-08,  avg # of iterations =  5.0

     total cpu time spent up to now is     1638.1 secs

     total energy              =    -367.43036906 Ry
     Harris-Foulkes estimate   =    -367.43037790 Ry
     estimated scf accuracy    <       0.00002403 Ry

     iteration #  3     ecut=    50.00 Ry     beta= 0.70
     CG style diagonalization
     ethr =  1.30E-08,  avg # of iterations =  3.8

     total cpu time spent up to now is     1693.2 secs

     total energy              =    -367.43037043 Ry
     Harris-Foulkes estimate   =    -367.43037101 Ry
     estimated scf accuracy    <       0.00000245 Ry

     iteration #  4     ecut=    50.00 Ry     beta= 0.70
     CG style diagonalization
     ethr =  3.83E-09,  avg # of iterations =  3.0

     total cpu time spent up to now is     1739.4 secs

     total energy              =    -367.43037013 Ry
     Harris-Foulkes estimate   =    -367.43037050 Ry
     estimated scf accuracy    <       0.00000115 Ry

     iteration #  5     ecut=    50.00 Ry     beta= 0.70
     CG style diagonalization
     ethr =  1.80E-09,  avg # of iterations =  3.3

     total cpu time spent up to now is     1787.5 secs

     total energy              =    -367.43037015 Ry
     Harris-Foulkes estimate   =    -367.43037023 Ry
     estimated scf accuracy    <       0.00000017 Ry

     iteration #  6     ecut=    50.00 Ry     beta= 0.70
     CG style diagonalization
     ethr =  2.59E-10,  avg # of iterations =  3.6

     total cpu time spent up to now is     1840.0 secs

     End of self-consistent calculation

     Number of k-points >= 100: set verbosity='high' to print the bands.

     highest occupied level (ev):     4.4934

!    total energy              =    -367.43037018 Ry
     Harris-Foulkes estimate   =    -367.43037018 Ry
     estimated scf accuracy    <          1.9E-09 Ry

     The total energy is the sum of the following terms:

     one-electron contribution =    -148.01913384 Ry
     hartree contribution      =     103.40791437 Ry
     xc contribution           =     -75.27128772 Ry
     ewald contribution        =    -247.54786299 Ry

     convergence has been achieved in   6 iterations

     Forces acting on atoms (cartesian axes, Ry/au):

     atom    1 type  1   force =     0.00000000    0.00000000    0.00000000
     atom    2 type  1   force =    -0.00000000   -0.00000000   -0.00000000
     atom    3 type  2   force =    -0.00000000   -0.00000000   -0.00000000
     atom    4 type  2   force =     0.00000000   -0.00000000   -0.00000000
     atom    5 type  3   force =     0.00014843   -0.00025709   -0.00000000
     atom    6 type  3   force =    -0.00029687    0.00000000    0.00000000
     atom    7 type  3   force =     0.00014843    0.00025709    0.00000000
     atom    8 type  3   force =     0.00029687   -0.00000000   -0.00000000
     atom    9 type  3   force =    -0.00014843   -0.00025709   -0.00000000
     atom   10 type  3   force =    -0.00014843    0.00025709    0.00000000

     Total force =     0.000727     Total SCF correction =     0.000024


     Computing stress (Cartesian axis) and pressure

          total   stress  (Ry/bohr**3)                   (kbar)     P=   -0.22
  -0.00000274  -0.00000000  -0.00000000         -0.40     -0.00     -0.00
  -0.00000000  -0.00000274  -0.00000000         -0.00     -0.40     -0.00
  -0.00000000  -0.00000000   0.00000090         -0.00     -0.00      0.13


     bfgs converged in   6 scf cycles and   4 bfgs steps
     (criteria: energy <  1.0E-04 Ry, force <  1.0E-03Ry/Bohr, cell <  5.0E-01kbar)

     End of BFGS Geometry Optimization

     Final enthalpy =    -367.4303701788 Ry
Begin final coordinates
     new unit-cell volume =    854.01176 a.u.^3 (   126.55148 Ang^3 )
     density =      2.62662 g/cm^3

CELL_PARAMETERS (alat= 12.16200000)
   0.392016037  -0.226330564   0.891765289
   0.000000000   0.452661129   0.891765289
  -0.392016037  -0.226330564   0.891765289

ATOMIC_POSITIONS (crystal)
Ca       0.500000000   0.500000000   0.500000000
Ca       0.000000000   0.000000000  -0.000000000
C        0.250000000   0.250000000   0.250000000
C        0.750000000   0.750000000   0.750000000
O        0.506995960   0.993004040   0.250000000
O        0.993004040   0.250000000   0.506995960
O        0.250000000   0.506995960   0.993004040
O        0.006995960   0.750000000   0.493004040
O        0.750000000   0.493004040   0.006995960
O        0.493004040   0.006995960   0.750000000
End final coordinates



     Writing output data file CCO_k.save/

     A final scf calculation at the relaxed structure.
     The G-vectors are recalculated for the final unit cell
     Results may differ from those at the preceding step.
 
     Parallelization info
     --------------------
     sticks:   dense  smooth     PW     G-vecs:    dense   smooth      PW
     Min           5       5      1                  131      131      18
     Max           6       6      2                  141      141      26
     Sum        1703    1703    509                40837    40837    6753
 


     bravais-lattice index     =            5
     lattice parameter (alat)  =      12.1620  a.u.
     unit-cell volume          =     854.0118 (a.u.)^3
     number of atoms/cell      =           10
     number of atomic types    =            3
     number of electrons       =        64.00
     number of Kohn-Sham states=           32
     kinetic-energy cutoff     =      50.0000  Ry
     charge density cutoff     =     200.0000  Ry
     convergence threshold     =      1.0E-07
     mixing beta               =       0.7000
     number of iterations used =            8  plain     mixing
     Exchange-correlation      = SLA  PW   PBE  PBE ( 1  4  3  4 0 0)

     celldm(1)=  12.162000  celldm(2)=   0.000000  celldm(3)=   0.000000
     celldm(4)=   0.692300  celldm(5)=   0.000000  celldm(6)=   0.000000

     crystal axes: (cart. coord. in units of alat)
               a(1) = (   0.392016  -0.226331   0.891765 )  
               a(2) = (   0.000000   0.452661   0.891765 )  
               a(3) = (  -0.392016  -0.226331   0.891765 )  

     reciprocal axes: (cart. coord. in units 2 pi/alat)
               b(1) = (  1.275458 -0.736386  0.373790 )  
               b(2) = ( -0.000000  1.472772  0.373790 )  
               b(3) = ( -1.275458 -0.736386  0.373790 )  


     PseudoPot. # 1 for Ca read from file:
     ./Ca_PBE.UPF
     MD5 check sum: 403a4c14b9e4d4dfdc3024c9a3812218
     Pseudo is Ultrasoft + core correction, Zval = 10.0
     Generated by new atomic code, or converted to UPF format
     Using radial grid of  845 points,  6 beta functions with: 
                l(1) =   0
                l(2) =   0
                l(3) =   1
                l(4) =   1
                l(5) =   2
                l(6) =   2
     Q(r) pseudized with  8 coefficients,  rinner =    1.500   1.500   1.500
                                                       1.500   1.500

     PseudoPot. # 2 for C  read from file:
     ./C_PBE.UPF
     MD5 check sum: d1aef80898a10debaa0f26306b886e00
     Pseudo is Ultrasoft + core correction, Zval =  4.0
     Generated by new atomic code, or converted to UPF format
     Using radial grid of  721 points,  4 beta functions with: 
                l(1) =   0
                l(2) =   0
                l(3) =   1
                l(4) =   1
     Q(r) pseudized with  8 coefficients,  rinner =    1.100   1.100   1.100


     PseudoPot. # 3 for O  read from file:
     ./O_PBE.UPF
     MD5 check sum: 734c27235a0248c51dbae37a1fbe46ec
     Pseudo is Ultrasoft + core correction, Zval =  6.0
     Generated by new atomic code, or converted to UPF format
     Using radial grid of  737 points,  5 beta functions with: 
                l(1) =   0
                l(2) =   0
                l(3) =   1
                l(4) =   1
                l(5) =   2
     Q(r) pseudized with  8 coefficients,  rinner =    0.900   0.900   0.900
                                                       0.900   0.900

     atomic species   valence    mass     pseudopotential
        Ca            10.00    40.07800     Ca( 1.00)
        C              4.00    12.01070     C ( 1.00)
        O              6.00    16.00000     O ( 1.00)

     12 Sym. Ops., with inversion, found ( 6 have fractional translation)



   Cartesian axes

     site n.     atom                  positions (alat units)
         1           Ca  tau(   1) = (   0.0000000  -0.0000000   1.3376479  )
         2           Ca  tau(   2) = (   0.0000000   0.0000000  -0.0000000  )
         3           C   tau(   3) = (   0.0000000  -0.0000000   0.6688240  )
         4           C   tau(   4) = (  -0.0000000  -0.0000000   2.0064719  )
         5           O   tau(   5) = (   0.1007465   0.2781630   1.5605893  )
         6           O   tau(   6) = (   0.1905230  -0.2263306   1.5605893  )
         7           O   tau(   7) = (  -0.2912695  -0.0518324   1.5605893  )
         8           O   tau(   8) = (  -0.1905230   0.2263306   1.1147066  )
         9           O   tau(   9) = (   0.2912695   0.0518324   1.1147066  )
        10           O   tau(  10) = (  -0.1007465  -0.2781630   1.1147066  )

     number of k points=   116

     Number of k-points >= 100: set verbosity='high' to print them.

     Dense  grid:    40837 G-vectors     FFT dimensions: (  60,  60,  60)

     Estimated max dynamical RAM per process >      14.94 MB

     Estimated total dynamical RAM >       4.38 GB
     Message from routine sym_rho_init:
     some processors have no G-vectors for symmetrization
     Message from routine sym_rho_init:
     some processors have no G-vectors for symmetrization
     Message from routine sym_rho_init:
     some processors have no G-vectors for symmetrization
     Message from routine sym_rho_init:
     some processors have no G-vectors for symmetrization
     Message from routine sym_rho_init:
     some processors have no G-vectors for symmetrization
     Message from routine sym_rho_init:
     some processors have no G-vectors for symmetrization
     Message from routine sym_rho_init:
     some processors have no G-vectors for symmetrization
     Message from routine sym_rho_init:
     some processors have no G-vectors for symmetrization
     Message from routine sym_rho_init:
     some processors have no G-vectors for symmetrization
     Message from routine sym_rho_init:
     some processors have no G-vectors for symmetrization
     Message from routine sym_rho_init:
     some processors have no G-vectors for symmetrization
     Message from routine sym_rho_init:
     some processors have no G-vectors for symmetrization
     Message from routine sym_rho_init:
     some processors have no G-vectors for symmetrization
     Message from routine sym_rho_init:
     some processors have no G-vectors for symmetrization
     Message from routine sym_rho_init:
     some processors have no G-vectors for symmetrization
     Message from routine sym_rho_init:
     some processors have no G-vectors for symmetrization
     Message from routine sym_rho_init:
     some processors have no G-vectors for symmetrization
     Message from routine sym_rho_init:
     some processors have no G-vectors for symmetrization
     Message from routine sym_rho_init:
     some processors have no G-vectors for symmetrization
     Message from routine sym_rho_init:
     some processors have no G-vectors for symmetrization
     Message from routine sym_rho_init:
     some processors have no G-vectors for symmetrization
     Message from routine sym_rho_init:
     some processors have no G-vectors for symmetrization
     Message from routine sym_rho_init:
     some processors have no G-vectors for symmetrization
     Message from routine sym_rho_init:
     some processors have no G-vectors for symmetrization
     Message from routine sym_rho_init:
     some processors have no G-vectors for symmetrization
     Message from routine sym_rho_init:
     some processors have no G-vectors for symmetrization
     Message from routine sym_rho_init:
     some processors have no G-vectors for symmetrization
     Message from routine sym_rho_init:
     some processors have no G-vectors for symmetrization
     Message from routine sym_rho_init:
     some processors have no G-vectors for symmetrization
     Message from routine sym_rho_init:
     some processors have no G-vectors for symmetrization
     Message from routine sym_rho_init:
     some processors have no G-vectors for symmetrization
     Message from routine sym_rho_init:
     some processors have no G-vectors for symmetrization
     Message from routine sym_rho_init:
     some processors have no G-vectors for symmetrization
     Message from routine sym_rho_init:
     some processors have no G-vectors for symmetrization
     Message from routine sym_rho_init:
     some processors have no G-vectors for symmetrization
     Message from routine sym_rho_init:
     some processors have no G-vectors for symmetrization
     Message from routine sym_rho_init:
     some processors have no G-vectors for symmetrization
     Message from routine sym_rho_init:
     some processors have no G-vectors for symmetrization
     Message from routine sym_rho_init:
     some processors have no G-vectors for symmetrization
     Message from routine sym_rho_init:
     some processors have no G-vectors for symmetrization
     Message from routine sym_rho_init:
     some processors have no G-vectors for symmetrization
     Message from routine sym_rho_init:
     some processors have no G-vectors for symmetrization
     Message from routine sym_rho_init:
     some processors have no G-vectors for symmetrization
     Message from routine sym_rho_init:
     some processors have no G-vectors for symmetrization
     Message from routine sym_rho_init:
     some processors have no G-vectors for symmetrization
     Message from routine sym_rho_init:
     some processors have no G-vectors for symmetrization
     Message from routine sym_rho_init:
     some processors have no G-vectors for symmetrization
     Message from routine sym_rho_init:
     some processors have no G-vectors for symmetrization
     Message from routine sym_rho_init:
     some processors have no G-vectors for symmetrization
     Message from routine sym_rho_init:
     some processors have no G-vectors for symmetrization
     Message from routine sym_rho_init:
     some processors have no G-vectors for symmetrization
     Message from routine sym_rho_init:
     some processors have no G-vectors for symmetrization
     Message from routine sym_rho_init:
     some processors have no G-vectors for symmetrization
     Message from routine sym_rho_init:
     some processors have no G-vectors for symmetrization
     Message from routine sym_rho_init:
     some processors have no G-vectors for symmetrization
     Message from routine sym_rho_init:
     some processors have no G-vectors for symmetrization
     Message from routine sym_rho_init:
     some processors have no G-vectors for symmetrization
     Message from routine sym_rho_init:
     some processors have no G-vectors for symmetrization
     Message from routine sym_rho_init:
     some processors have no G-vectors for symmetrization
     Message from routine sym_rho_init:
     some processors have no G-vectors for symmetrization
     Message from routine sym_rho_init:
     some processors have no G-vectors for symmetrization
     Message from routine sym_rho_init:
     some processors have no G-vectors for symmetrization
     Message from routine sym_rho_init:
     some processors have no G-vectors for symmetrization
     Message from routine sym_rho_init:
     some processors have no G-vectors for symmetrization
     Message from routine sym_rho_init:
     some processors have no G-vectors for symmetrization
     Message from routine sym_rho_init:
     some processors have no G-vectors for symmetrization
     Message from routine sym_rho_init:
     some processors have no G-vectors for symmetrization
     Message from routine sym_rho_init:
     some processors have no G-vectors for symmetrization
     Message from routine sym_rho_init:
     some processors have no G-vectors for symmetrization
     Message from routine sym_rho_init:
     some processors have no G-vectors for symmetrization
     Message from routine sym_rho_init:
     some processors have no G-vectors for symmetrization
     Message from routine sym_rho_init:
     some processors have no G-vectors for symmetrization
     Message from routine sym_rho_init:
     some processors have no G-vectors for symmetrization
     Message from routine sym_rho_init:
     some processors have no G-vectors for symmetrization
     Message from routine sym_rho_init:
     some processors have no G-vectors for symmetrization
     Message from routine sym_rho_init:
     some processors have no G-vectors for symmetrization
     Message from routine sym_rho_init:
     some processors have no G-vectors for symmetrization
     Message from routine sym_rho_init:
     some processors have no G-vectors for symmetrization
     Message from routine sym_rho_init:
     some processors have no G-vectors for symmetrization
     Message from routine sym_rho_init:
     some processors have no G-vectors for symmetrization
     Message from routine sym_rho_init:
     some processors have no G-vectors for symmetrization
     Message from routine sym_rho_init:
     some processors have no G-vectors for symmetrization
     Message from routine sym_rho_init:
     some processors have no G-vectors for symmetrization
     Message from routine sym_rho_init:
     some processors have no G-vectors for symmetrization
     Message from routine sym_rho_init:
     some processors have no G-vectors for symmetrization
     Message from routine sym_rho_init:
     some processors have no G-vectors for symmetrization
     Message from routine sym_rho_init:
     some processors have no G-vectors for symmetrization
     Message from routine sym_rho_init:
     some processors have no G-vectors for symmetrization
     Message from routine sym_rho_init:
     some processors have no G-vectors for symmetrization
     Message from routine sym_rho_init:
     some processors have no G-vectors for symmetrization
     Message from routine sym_rho_init:
     some processors have no G-vectors for symmetrization
     Message from routine sym_rho_init:
     some processors have no G-vectors for symmetrization
     Message from routine sym_rho_init:
     some processors have no G-vectors for symmetrization
     Message from routine sym_rho_init:
     some processors have no G-vectors for symmetrization
     Message from routine sym_rho_init:
     some processors have no G-vectors for symmetrization
     Message from routine sym_rho_init:
     some processors have no G-vectors for symmetrization
     Message from routine sym_rho_init:
     some processors have no G-vectors for symmetrization
     Message from routine sym_rho_init:
     some processors have no G-vectors for symmetrization
     Message from routine sym_rho_init:
     some processors have no G-vectors for symmetrization
     Message from routine sym_rho_init:
     some processors have no G-vectors for symmetrization
     Message from routine sym_rho_init:
     some processors have no G-vectors for symmetrization
     Message from routine sym_rho_init:
     some processors have no G-vectors for symmetrization
     Message from routine sym_rho_init:
     some processors have no G-vectors for symmetrization
     Message from routine sym_rho_init:
     some processors have no G-vectors for symmetrization
     Message from routine sym_rho_init:
     some processors have no G-vectors for symmetrization
     Message from routine sym_rho_init:
     some processors have no G-vectors for symmetrization
     Message from routine sym_rho_init:
     some processors have no G-vectors for symmetrization
     Message from routine sym_rho_init:
     some processors have no G-vectors for symmetrization
     Message from routine sym_rho_init:
     some processors have no G-vectors for symmetrization
     Message from routine sym_rho_init:
     some processors have no G-vectors for symmetrization
     Message from routine sym_rho_init:
     some processors have no G-vectors for symmetrization
     Message from routine sym_rho_init:
     some processors have no G-vectors for symmetrization
     Message from routine sym_rho_init:
     some processors have no G-vectors for symmetrization
     Message from routine sym_rho_init:
     some processors have no G-vectors for symmetrization
     Message from routine sym_rho_init:
     some processors have no G-vectors for symmetrization
     Message from routine sym_rho_init:
     some processors have no G-vectors for symmetrization
     Message from routine sym_rho_init:
     some processors have no G-vectors for symmetrization
     Message from routine sym_rho_init:
     some processors have no G-vectors for symmetrization
     Message from routine sym_rho_init:
     some processors have no G-vectors for symmetrization
     Message from routine sym_rho_init:
     some processors have no G-vectors for symmetrization
     Message from routine sym_rho_init:
     some processors have no G-vectors for symmetrization
     Message from routine sym_rho_init:
     some processors have no G-vectors for symmetrization
     Message from routine sym_rho_init:
     some processors have no G-vectors for symmetrization
     Message from routine sym_rho_init:
     some processors have no G-vectors for symmetrization
     Message from routine sym_rho_init:
     some processors have no G-vectors for symmetrization
     Message from routine sym_rho_init:
     some processors have no G-vectors for symmetrization
     Message from routine sym_rho_init:
     some processors have no G-vectors for symmetrization
     Message from routine sym_rho_init:
     some processors have no G-vectors for symmetrization
     Message from routine sym_rho_init:
     some processors have no G-vectors for symmetrization
     Message from routine sym_rho_init:
     some processors have no G-vectors for symmetrization
     Message from routine sym_rho_init:
     some processors have no G-vectors for symmetrization
     Message from routine sym_rho_init:
     some processors have no G-vectors for symmetrization
     Message from routine sym_rho_init:
     some processors have no G-vectors for symmetrization
     Message from routine sym_rho_init:
     some processors have no G-vectors for symmetrization
     Message from routine sym_rho_init:
     some processors have no G-vectors for symmetrization
     Message from routine sym_rho_init:
     some processors have no G-vectors for symmetrization
     Message from routine sym_rho_init:
     some processors have no G-vectors for symmetrization
     Message from routine sym_rho_init:
     some processors have no G-vectors for symmetrization
     Message from routine sym_rho_init:
     some processors have no G-vectors for symmetrization
     Message from routine sym_rho_init:
     some processors have no G-vectors for symmetrization
     Message from routine sym_rho_init:
     some processors have no G-vectors for symmetrization
     Message from routine sym_rho_init:
     some processors have no G-vectors for symmetrization
     Message from routine sym_rho_init:
     some processors have no G-vectors for symmetrization
     Message from routine sym_rho_init:
     some processors have no G-vectors for symmetrization
     Message from routine sym_rho_init:
     some processors have no G-vectors for symmetrization
     Message from routine sym_rho_init:
     some processors have no G-vectors for symmetrization
     Message from routine sym_rho_init:
     some processors have no G-vectors for symmetrization
     Message from routine sym_rho_init:
     some processors have no G-vectors for symmetrization
     Message from routine sym_rho_init:
     some processors have no G-vectors for symmetrization
     Message from routine sym_rho_init:
     some processors have no G-vectors for symmetrization
     Message from routine sym_rho_init:
     some processors have no G-vectors for symmetrization
     Message from routine sym_rho_init:
     some processors have no G-vectors for symmetrization
     Message from routine sym_rho_init:
     some processors have no G-vectors for symmetrization
     Message from routine sym_rho_init:
     some processors have no G-vectors for symmetrization
     Message from routine sym_rho_init:
     some processors have no G-vectors for symmetrization
     Message from routine sym_rho_init:
     some processors have no G-vectors for symmetrization
     Message from routine sym_rho_init:
     some processors have no G-vectors for symmetrization
     Message from routine sym_rho_init:
     some processors have no G-vectors for symmetrization
     Message from routine sym_rho_init:
     some processors have no G-vectors for symmetrization
     Message from routine sym_rho_init:
     some processors have no G-vectors for symmetrization
     Message from routine sym_rho_init:
     some processors have no G-vectors for symmetrization
     Message from routine sym_rho_init:
     some processors have no G-vectors for symmetrization
     Message from routine sym_rho_init:
     some processors have no G-vectors for symmetrization
     Message from routine sym_rho_init:
     some processors have no G-vectors for symmetrization
     Message from routine sym_rho_init:
     some processors have no G-vectors for symmetrization
     Message from routine sym_rho_init:
     some processors have no G-vectors for symmetrization
     Message from routine sym_rho_init:
     some processors have no G-vectors for symmetrization
     Message from routine sym_rho_init:
     some processors have no G-vectors for symmetrization
     Message from routine sym_rho_init:
     some processors have no G-vectors for symmetrization
     Message from routine sym_rho_init:
     some processors have no G-vectors for symmetrization
     Message from routine sym_rho_init:
     some processors have no G-vectors for symmetrization
     Message from routine sym_rho_init:
     some processors have no G-vectors for symmetrization
     Message from routine sym_rho_init:
     some processors have no G-vectors for symmetrization
     Message from routine sym_rho_init:
     some processors have no G-vectors for symmetrization
     Message from routine sym_rho_init:
     some processors have no G-vectors for symmetrization
     Message from routine sym_rho_init:
     some processors have no G-vectors for symmetrization
     Message from routine sym_rho_init:
     some processors have no G-vectors for symmetrization
     Message from routine sym_rho_init:
     some processors have no G-vectors for symmetrization
     Message from routine sym_rho_init:
     some processors have no G-vectors for symmetrization
     Message from routine sym_rho_init:
     some processors have no G-vectors for symmetrization
     Message from routine sym_rho_init:
     some processors have no G-vectors for symmetrization
     Message from routine sym_rho_init:
     some processors have no G-vectors for symmetrization
     Message from routine sym_rho_init:
     some processors have no G-vectors for symmetrization
     Message from routine sym_rho_init:
     some processors have no G-vectors for symmetrization
     Message from routine sym_rho_init:
     some processors have no G-vectors for symmetrization
     Message from routine sym_rho_init:
     some processors have no G-vectors for symmetrization
     Message from routine sym_rho_init:
     some processors have no G-vectors for symmetrization
     Message from routine sym_rho_init:
     some processors have no G-vectors for symmetrization
     Message from routine sym_rho_init:
     some processors have no G-vectors for symmetrization

     Check: negative core charge=   -0.000003

     Initial potential from superposition of free atoms

     starting charge   63.98899, renormalised to   64.00000
     Starting wfcs are   52 randomized atomic wfcs

     total cpu time spent up to now is     1865.9 secs

     Self-consistent Calculation

     iteration #  1     ecut=    50.00 Ry     beta= 0.70
     CG style diagonalization
     c_bands:  4 eigenvalues not converged
     c_bands:  4 eigenvalues not converged
     c_bands:  2 eigenvalues not converged
     c_bands:  2 eigenvalues not converged
     c_bands:  5 eigenvalues not converged
     c_bands:  5 eigenvalues not converged
     c_bands:  5 eigenvalues not converged
     c_bands:  4 eigenvalues not converged
     c_bands:  5 eigenvalues not converged
     c_bands:  5 eigenvalues not converged
     c_bands:  5 eigenvalues not converged
     c_bands:  5 eigenvalues not converged
     c_bands:  4 eigenvalues not converged
     c_bands:  5 eigenvalues not converged
     c_bands:  3 eigenvalues not converged
     c_bands:  3 eigenvalues not converged
     c_bands:  4 eigenvalues not converged
     c_bands:  1 eigenvalues not converged
     c_bands:  2 eigenvalues not converged
     c_bands:  3 eigenvalues not converged
     c_bands:  3 eigenvalues not converged
     c_bands:  5 eigenvalues not converged
     c_bands:  4 eigenvalues not converged
     c_bands:  5 eigenvalues not converged
     c_bands:  3 eigenvalues not converged
     c_bands:  3 eigenvalues not converged
     c_bands:  5 eigenvalues not converged
     c_bands:  5 eigenvalues not converged
     c_bands:  4 eigenvalues not converged
     c_bands:  3 eigenvalues not converged
     c_bands:  5 eigenvalues not converged
     c_bands:  3 eigenvalues not converged
     c_bands:  3 eigenvalues not converged
     c_bands:  4 eigenvalues not converged
     c_bands:  5 eigenvalues not converged
     c_bands:  5 eigenvalues not converged
     c_bands:  4 eigenvalues not converged
     c_bands:  4 eigenvalues not converged
     c_bands:  4 eigenvalues not converged
     c_bands:  5 eigenvalues not converged
     c_bands:  4 eigenvalues not converged
     c_bands:  2 eigenvalues not converged
     c_bands:  3 eigenvalues not converged
     c_bands:  2 eigenvalues not converged
     c_bands:  3 eigenvalues not converged
     c_bands:  5 eigenvalues not converged
     c_bands:  5 eigenvalues not converged
     c_bands:  3 eigenvalues not converged
     c_bands:  2 eigenvalues not converged
     c_bands:  5 eigenvalues not converged
     c_bands:  4 eigenvalues not converged
     c_bands:  4 eigenvalues not converged
     c_bands:  5 eigenvalues not converged
     c_bands:  2 eigenvalues not converged
     c_bands:  5 eigenvalues not converged
     c_bands:  2 eigenvalues not converged
     c_bands:  5 eigenvalues not converged
     c_bands:  4 eigenvalues not converged
     c_bands:  2 eigenvalues not converged
     c_bands:  4 eigenvalues not converged
     c_bands:  3 eigenvalues not converged
     c_bands:  3 eigenvalues not converged
     c_bands:  4 eigenvalues not converged
     c_bands:  5 eigenvalues not converged
     c_bands:  2 eigenvalues not converged
     c_bands:  2 eigenvalues not converged
     c_bands:  4 eigenvalues not converged
     c_bands:  4 eigenvalues not converged
     c_bands:  4 eigenvalues not converged
     c_bands:  3 eigenvalues not converged
     c_bands:  3 eigenvalues not converged
     ethr =  1.00E-06,  avg # of iterations = 13.4

     total cpu time spent up to now is     2031.6 secs

     total energy              =    -366.72834126 Ry
     Harris-Foulkes estimate   =    -367.90358749 Ry
     estimated scf accuracy    <       1.68767615 Ry

     iteration #  2     ecut=    50.00 Ry     beta= 0.70
     CG style diagonalization
     ethr =  2.64E-03,  avg # of iterations =  4.3

     total cpu time spent up to now is     2095.4 secs

     total energy              =    -367.11608861 Ry
     Harris-Foulkes estimate   =    -367.87667569 Ry
     estimated scf accuracy    <       1.55320872 Ry

     iteration #  3     ecut=    50.00 Ry     beta= 0.70
     CG style diagonalization
     ethr =  2.43E-03,  avg # of iterations =  3.8

     total cpu time spent up to now is     2147.8 secs

     total energy              =    -367.41882256 Ry
     Harris-Foulkes estimate   =    -367.42142210 Ry
     estimated scf accuracy    <       0.01241069 Ry

     iteration #  4     ecut=    50.00 Ry     beta= 0.70
     CG style diagonalization
     ethr =  1.94E-05,  avg # of iterations =  4.3

     total cpu time spent up to now is     2206.5 secs

     total energy              =    -367.42993083 Ry
     Harris-Foulkes estimate   =    -367.43089065 Ry
     estimated scf accuracy    <       0.00257744 Ry

     iteration #  5     ecut=    50.00 Ry     beta= 0.70
     CG style diagonalization
     ethr =  4.03E-06,  avg # of iterations =  3.5

     total cpu time spent up to now is     2256.0 secs

     total energy              =    -367.43032363 Ry
     Harris-Foulkes estimate   =    -367.43034005 Ry
     estimated scf accuracy    <       0.00011438 Ry

     iteration #  6     ecut=    50.00 Ry     beta= 0.70
     CG style diagonalization
     ethr =  1.79E-07,  avg # of iterations =  4.0

     total cpu time spent up to now is     2311.8 secs

     total energy              =    -367.43035449 Ry
     Harris-Foulkes estimate   =    -367.43035815 Ry
     estimated scf accuracy    <       0.00000778 Ry

     iteration #  7     ecut=    50.00 Ry     beta= 0.70
     CG style diagonalization
     ethr =  1.22E-08,  avg # of iterations =  4.3

     total cpu time spent up to now is     2371.6 secs

     total energy              =    -367.43035823 Ry
     Harris-Foulkes estimate   =    -367.43035971 Ry
     estimated scf accuracy    <       0.00000366 Ry

     iteration #  8     ecut=    50.00 Ry     beta= 0.70
     CG style diagonalization
     ethr =  5.72E-09,  avg # of iterations =  3.6

     total cpu time spent up to now is     2421.5 secs

     total energy              =    -367.43035867 Ry
     Harris-Foulkes estimate   =    -367.43035877 Ry
     estimated scf accuracy    <       0.00000018 Ry

     iteration #  9     ecut=    50.00 Ry     beta= 0.70
     CG style diagonalization
     ethr =  2.87E-10,  avg # of iterations =  4.0

     total cpu time spent up to now is     2476.1 secs

     End of self-consistent calculation

     Number of k-points >= 100: set verbosity='high' to print the bands.

     highest occupied level (ev):     4.4933

!    total energy              =    -367.43035872 Ry
     Harris-Foulkes estimate   =    -367.43035873 Ry
     estimated scf accuracy    <          8.8E-09 Ry

     The total energy is the sum of the following terms:

     one-electron contribution =    -148.01914719 Ry
     hartree contribution      =     103.40794887 Ry
     xc contribution           =     -75.27129741 Ry
     ewald contribution        =    -247.54786299 Ry

     convergence has been achieved in   9 iterations

     Forces acting on atoms (cartesian axes, Ry/au):

     atom    1 type  1   force =    -0.00000000    0.00000000   -0.00000000
     atom    2 type  1   force =    -0.00000000    0.00000000   -0.00000000
     atom    3 type  2   force =    -0.00000000   -0.00000000   -0.00000000
     atom    4 type  2   force =     0.00000000   -0.00000000   -0.00000000
     atom    5 type  3   force =     0.00014835   -0.00025695   -0.00000000
     atom    6 type  3   force =    -0.00029670    0.00000000    0.00000000
     atom    7 type  3   force =     0.00014835    0.00025695    0.00000000
     atom    8 type  3   force =     0.00029670   -0.00000000   -0.00000000
     atom    9 type  3   force =    -0.00014835   -0.00025695   -0.00000000
     atom   10 type  3   force =    -0.00014835    0.00025695    0.00000000

     Total force =     0.000727     Total SCF correction =     0.000105
     SCF correction compared to forces is large: reduce conv_thr to get better values


     Computing stress (Cartesian axis) and pressure

          total   stress  (Ry/bohr**3)                   (kbar)     P=   -0.25
  -0.00000289   0.00000000  -0.00000000         -0.42      0.00     -0.00
  -0.00000000  -0.00000289  -0.00000000         -0.00     -0.42     -0.00
  -0.00000000  -0.00000000   0.00000063         -0.00     -0.00      0.09


     Writing output data file CCO_k.save/
 
     init_run     :     38.58s CPU     46.14s WALL (       2 calls)
     electrons    :   2187.65s CPU   2412.11s WALL (       7 calls)
     update_pot   :      0.23s CPU      0.25s WALL (       5 calls)
     forces       :      7.10s CPU      7.46s WALL (       7 calls)
     stress       :     10.49s CPU     10.74s WALL (       7 calls)

     Called by init_run:
     wfcinit      :     38.07s CPU     45.51s WALL (       2 calls)
     potinit      :      0.05s CPU      0.07s WALL (       2 calls)
     hinit0       :      0.37s CPU      0.44s WALL (       2 calls)

     Called by electrons:
     c_bands      :   2046.08s CPU   2262.88s WALL (      45 calls)
     sum_band     :    140.18s CPU    146.78s WALL (      45 calls)
     v_of_rho     :      0.88s CPU      0.98s WALL (      50 calls)
     newd         :      0.25s CPU      0.30s WALL (      50 calls)
     mix_rho      :      0.12s CPU      0.35s WALL (      45 calls)

     Called by c_bands:
     init_us_2    :      1.91s CPU      2.21s WALL (   12296 calls)
     ccgdiagg     :   1505.50s CPU   1609.72s WALL (    5264 calls)
     wfcrot       :    575.12s CPU    688.39s WALL (    4452 calls)

     Called by sum_band:
     sum_band:bec :      1.45s CPU      1.61s WALL (    5220 calls)
     addusdens    :      0.11s CPU      0.21s WALL (      45 calls)

     Called by *cgdiagg:
     h_psi        :   1295.22s CPU   1366.76s WALL (  517965 calls)
     s_psi        :     42.03s CPU     46.78s WALL ( 1031478 calls)
     cdiaghg      :    230.18s CPU    327.69s WALL (    4452 calls)

     Called by h_psi:
     h_psi:pot    :   1282.23s CPU   1352.22s WALL (  517965 calls)
     h_psi:calbec :    138.45s CPU    147.31s WALL (  517965 calls)
     vloc_psi     :   1094.29s CPU   1152.44s WALL (  517965 calls)
     add_vuspsi   :     32.68s CPU     35.47s WALL (  517965 calls)
     hs_1psi      :   1111.93s CPU   1177.36s WALL (  513513 calls)
     s_1psi       :    117.31s CPU    127.91s WALL (  513513 calls)

     General routines
     calbec       :    215.39s CPU    233.59s WALL ( 1040758 calls)
     fft          :      1.11s CPU      1.13s WALL (     732 calls)
     ffts         :      0.07s CPU      0.07s WALL (      45 calls)
     fftw         :   1178.82s CPU   1239.23s WALL ( 1488274 calls)
 
     Parallel routines
     fft_scatt_xy :     44.35s CPU     46.52s WALL ( 1489051 calls)
     fft_scatt_yz :    945.40s CPU    997.29s WALL ( 1489051 calls)
 
     PWSCF        :  38m13.33s CPU  42m17.05s WALL

 
   This run was terminated on:  20:13: 7   2May2022            

=------------------------------------------------------------------------------=
   JOB DONE.
=------------------------------------------------------------------------------=
