
     Program PWSCF v.6.4.1 starts on 24Apr2022 at 16:54:17 

     This program is part of the open-source Quantum ESPRESSO suite
     for quantum simulation of materials; please cite
         "P. Giannozzi et al., J. Phys.:Condens. Matter 21 395502 (2009);
         "P. Giannozzi et al., J. Phys.:Condens. Matter 29 465901 (2017);
          URL http://www.quantum-espresso.org", 
     in publications or presentations arising from this work. More details at
     http://www.quantum-espresso.org/quote

     Parallel version (MPI & OpenMP), running on     120 processor cores
     Number of MPI processes:               120
     Threads/MPI process:                     1

     MPI processes distributed on     2 nodes
     R & G space division:  proc/nbgrp/npool/nimage =     120
     Waiting for input...
     Reading input from standard input

     Current dimensions of program PWSCF are:
     Max number of different atomic species (ntypx) = 10
     Max number of k-points (npk) =  40000
     Max angular momentum in pseudopotentials (lmaxx) =  3

     Subspace diagonalization in iterative solution of the eigenvalue problem:
     one sub-group per band group will be used
     scalapack distributed-memory algorithm (size of sub-group:  7*  7 procs)

 
     Parallelization info
     --------------------
     sticks:   dense  smooth     PW     G-vecs:    dense   smooth      PW
     Min          16      16      4                  484      484      72
     Max          17      17      5                  491      491      80
     Sum        1981    1981    583                58383    58383    9185
 


     bravais-lattice index     =            5
     lattice parameter (alat)  =      12.0000  a.u.
     unit-cell volume          =    1221.8805 (a.u.)^3
     number of atoms/cell      =           10
     number of atomic types    =            3
     number of electrons       =        64.00
     number of Kohn-Sham states=           32
     kinetic-energy cutoff     =      50.0000  Ry
     charge density cutoff     =     200.0000  Ry
     convergence threshold     =      1.0E-05
     mixing beta               =       0.7000
     number of iterations used =            8  plain     mixing
     Exchange-correlation      = SLA  PW   PBE  PBE ( 1  4  3  4 0 0)
     nstep                     =           50


     celldm(1)=  12.000000  celldm(2)=   0.000000  celldm(3)=   0.000000
     celldm(4)=   0.500000  celldm(5)=   0.000000  celldm(6)=   0.000000

     crystal axes: (cart. coord. in units of alat)
               a(1) = (   0.500000  -0.288675   0.816497 )  
               a(2) = (   0.000000   0.577350   0.816497 )  
               a(3) = (  -0.500000  -0.288675   0.816497 )  

     reciprocal axes: (cart. coord. in units 2 pi/alat)
               b(1) = (  1.000000 -0.577350  0.408248 )  
               b(2) = (  0.000000  1.154701  0.408248 )  
               b(3) = ( -1.000000 -0.577350  0.408248 )  


     PseudoPot. # 1 for Ca read from file:
     ./Ca_PBE.UPF
     MD5 check sum: 403a4c14b9e4d4dfdc3024c9a3812218
     Pseudo is Ultrasoft + core correction, Zval = 10.0
     Generated by new atomic code, or converted to UPF format
     Using radial grid of  845 points,  6 beta functions with: 
                l(1) =   0
                l(2) =   0
                l(3) =   1
                l(4) =   1
                l(5) =   2
                l(6) =   2
     Q(r) pseudized with  8 coefficients,  rinner =    1.500   1.500   1.500
                                                       1.500   1.500

     PseudoPot. # 2 for C  read from file:
     ./C_PBE.UPF
     MD5 check sum: d1aef80898a10debaa0f26306b886e00
     Pseudo is Ultrasoft + core correction, Zval =  4.0
     Generated by new atomic code, or converted to UPF format
     Using radial grid of  721 points,  4 beta functions with: 
                l(1) =   0
                l(2) =   0
                l(3) =   1
                l(4) =   1
     Q(r) pseudized with  8 coefficients,  rinner =    1.100   1.100   1.100


     PseudoPot. # 3 for O  read from file:
     ./O_PBE.UPF
     MD5 check sum: 734c27235a0248c51dbae37a1fbe46ec
     Pseudo is Ultrasoft + core correction, Zval =  6.0
     Generated by new atomic code, or converted to UPF format
     Using radial grid of  737 points,  5 beta functions with: 
                l(1) =   0
                l(2) =   0
                l(3) =   1
                l(4) =   1
                l(5) =   2
     Q(r) pseudized with  8 coefficients,  rinner =    0.900   0.900   0.900
                                                       0.900   0.900

     atomic species   valence    mass     pseudopotential
        Ca            10.00    40.07800     Ca( 1.00)
        C              4.00    12.01070     C ( 1.00)
        O              6.00    16.00000     O ( 1.00)

     12 Sym. Ops., with inversion, found ( 6 have fractional translation)



   Cartesian axes

     site n.     atom                  positions (alat units)
         1           Ca  tau(   1) = (   0.0000000  -0.0000000   1.2247449  )
         2           Ca  tau(   2) = (   0.0000000   0.0000000   0.0000000  )
         3           C   tau(   3) = (   0.0000000  -0.0000000   0.6123724  )
         4           C   tau(   4) = (  -0.0000000  -0.0000000   1.8371173  )
         5           O   tau(   5) = (   0.1284501   0.3548681   1.4288690  )
         6           O   tau(   6) = (   0.2430998  -0.2886751   1.4288690  )
         7           O   tau(   7) = (  -0.3715499  -0.0661930   1.4288690  )
         8           O   tau(   8) = (  -0.2430998   0.2886751   1.0206207  )
         9           O   tau(   9) = (   0.3715499   0.0661930   1.0206207  )
        10           O   tau(  10) = (  -0.1284501  -0.3548681   1.0206207  )

     number of k points=    65
                       cart. coord. in units 2pi/alat
        k(    1) = (   0.0000000   0.0000000   0.0000000), wk =   0.0039062
        k(    2) = (  -0.1250000  -0.0721688   0.0510310), wk =   0.0234375
        k(    3) = (  -0.2500000  -0.1443376   0.1020621), wk =   0.0234375
        k(    4) = (  -0.3750000  -0.2165064   0.1530931), wk =   0.0234375
        k(    5) = (   0.5000000   0.2886751  -0.2041241), wk =   0.0117188
        k(    6) = (  -0.1250000   0.0721688   0.1020621), wk =   0.0234375
        k(    7) = (  -0.2500000   0.0000000   0.1530931), wk =   0.0468750
        k(    8) = (  -0.3750000  -0.0721688   0.2041241), wk =   0.0468750
        k(    9) = (   0.5000000   0.4330127  -0.1530931), wk =   0.0468750
        k(   10) = (   0.3750000   0.3608439  -0.1020621), wk =   0.0468750
        k(   11) = (   0.2500000   0.2886751  -0.0510310), wk =   0.0468750
        k(   12) = (   0.1250000   0.2165064   0.0000000), wk =   0.0234375
        k(   13) = (  -0.2500000   0.1443376   0.2041241), wk =   0.0234375
        k(   14) = (  -0.3750000   0.0721688   0.2551552), wk =   0.0468750
        k(   15) = (   0.5000000   0.5773503  -0.1020621), wk =   0.0468750
        k(   16) = (   0.3750000   0.5051815  -0.0510310), wk =   0.0468750
        k(   17) = (   0.2500000   0.4330127   0.0000000), wk =   0.0234375
        k(   18) = (  -0.3750000   0.2165064   0.3061862), wk =   0.0234375
        k(   19) = (   0.5000000   0.7216878  -0.0510310), wk =   0.0468750
        k(   20) = (   0.3750000   0.6495191   0.0000000), wk =   0.0234375
        k(   21) = (   0.5000000  -0.2886751  -0.4082483), wk =   0.0117188
        k(   22) = (   0.0000000   0.0000000   0.1530931), wk =   0.0078125
        k(   23) = (  -0.1250000  -0.0721688   0.2041241), wk =   0.0234375
        k(   24) = (  -0.2500000  -0.1443376   0.2551552), wk =   0.0234375
        k(   25) = (   0.6250000   0.3608439  -0.1020621), wk =   0.0234375
        k(   26) = (   0.5000000   0.2886751  -0.0510310), wk =   0.0234375
        k(   27) = (   0.3750000   0.2165064   0.0000000), wk =   0.0234375
        k(   28) = (   0.2500000   0.1443376   0.0510310), wk =   0.0234375
        k(   29) = (  -0.1250000   0.0721688   0.2551552), wk =   0.0234375
        k(   30) = (  -0.2500000   0.0000000   0.3061862), wk =   0.0468750
        k(   31) = (   0.6250000   0.5051815  -0.0510310), wk =   0.0468750
        k(   32) = (   0.5000000   0.4330127   0.0000000), wk =   0.0468750
        k(   33) = (   0.3750000   0.3608439   0.0510310), wk =   0.0468750
        k(   34) = (   0.2500000   0.2886751   0.1020621), wk =   0.0468750
        k(   35) = (  -0.2500000   0.1443376   0.3572173), wk =   0.0234375
        k(   36) = (   0.6250000   0.6495191   0.0000000), wk =   0.0468750
        k(   37) = (   0.5000000   0.5773503   0.0510310), wk =   0.0468750
        k(   38) = (   0.3750000   0.5051815   0.1020621), wk =   0.0468750
        k(   39) = (   0.2500000   0.4330127   0.1530931), wk =   0.0468750
        k(   40) = (   0.6250000  -0.3608439  -0.3572173), wk =   0.0234375
        k(   41) = (   0.5000000  -0.4330127  -0.3061862), wk =   0.0468750
        k(   42) = (   0.3750000  -0.5051815  -0.2551552), wk =   0.0468750
        k(   43) = (   0.2500000  -0.5773503  -0.2041241), wk =   0.0234375
        k(   44) = (   0.5000000  -0.2886751  -0.2551552), wk =   0.0234375
        k(   45) = (   0.3750000  -0.3608439  -0.2041241), wk =   0.0468750
        k(   46) = (   0.3750000  -0.2165064  -0.1530931), wk =   0.0234375
        k(   47) = (   0.0000000   0.0000000   0.3061862), wk =   0.0078125
        k(   48) = (  -0.1250000  -0.0721688   0.3572173), wk =   0.0234375
        k(   49) = (   0.7500000   0.4330127   0.0000000), wk =   0.0234375
        k(   50) = (   0.6250000   0.3608439   0.0510310), wk =   0.0234375
        k(   51) = (   0.5000000   0.2886751   0.1020621), wk =   0.0234375
        k(   52) = (  -0.1250000   0.0721688   0.4082483), wk =   0.0234375
        k(   53) = (   0.7500000   0.5773503   0.0510310), wk =   0.0468750
        k(   54) = (   0.6250000   0.5051815   0.1020621), wk =   0.0468750
        k(   55) = (   0.5000000   0.4330127   0.1530931), wk =   0.0468750
        k(   56) = (   0.7500000  -0.4330127  -0.3061862), wk =   0.0234375
        k(   57) = (   0.6250000  -0.5051815  -0.2551552), wk =   0.0468750
        k(   58) = (   0.5000000  -0.5773503  -0.2041241), wk =   0.0234375
        k(   59) = (   0.6250000  -0.3608439  -0.2041241), wk =   0.0234375
        k(   60) = (  -0.0000000   0.0000000   0.4592793), wk =   0.0078125
        k(   61) = (   0.8750000   0.5051815   0.1020621), wk =   0.0234375
        k(   62) = (   0.7500000   0.4330127   0.1530931), wk =   0.0234375
        k(   63) = (   0.8750000  -0.5051815  -0.2551552), wk =   0.0234375
        k(   64) = (   0.7500000  -0.5773503  -0.2041241), wk =   0.0234375
        k(   65) = (   0.0000000   0.0000000  -0.6123724), wk =   0.0039062

     Dense  grid:    58383 G-vectors     FFT dimensions: (  60,  60,  60)

     Estimated max dynamical RAM per process >      17.18 MB

     Estimated total dynamical RAM >       2.01 GB
     Message from routine sym_rho_init:
     some processors have no G-vectors for symmetrization
     Message from routine sym_rho_init:
     some processors have no G-vectors for symmetrization
     Message from routine sym_rho_init:
     some processors have no G-vectors for symmetrization
     Message from routine sym_rho_init:
     some processors have no G-vectors for symmetrization

     Check: negative core charge=   -0.000002

     Initial potential from superposition of free atoms

     starting charge   63.98899, renormalised to   64.00000
     Starting wfcs are   52 randomized atomic wfcs

     total cpu time spent up to now is        9.6 secs

     Self-consistent Calculation

     iteration #  1     ecut=    50.00 Ry     beta= 0.70
     CG style diagonalization
     ethr =  1.00E-02,  avg # of iterations =  2.2

     total cpu time spent up to now is       23.0 secs

     total energy              =    -365.13671900 Ry
     Harris-Foulkes estimate   =    -366.89795034 Ry
     estimated scf accuracy    <       2.39142947 Ry

     iteration #  2     ecut=    50.00 Ry     beta= 0.70
     CG style diagonalization
     ethr =  3.74E-03,  avg # of iterations =  4.8

     total cpu time spent up to now is       52.3 secs

     total energy              =    -364.97712305 Ry
     Harris-Foulkes estimate   =    -368.32833181 Ry
     estimated scf accuracy    <       9.62964848 Ry

     iteration #  3     ecut=    50.00 Ry     beta= 0.70
     CG style diagonalization
     ethr =  3.74E-03,  avg # of iterations =  4.3

     total cpu time spent up to now is       78.2 secs

     total energy              =    -366.40003569 Ry
     Harris-Foulkes estimate   =    -366.42465007 Ry
     estimated scf accuracy    <       0.05324462 Ry

     iteration #  4     ecut=    50.00 Ry     beta= 0.70
     CG style diagonalization
     ethr =  8.32E-05,  avg # of iterations =  4.3

     total cpu time spent up to now is      104.2 secs

     total energy              =    -366.43476259 Ry
     Harris-Foulkes estimate   =    -366.43807925 Ry
     estimated scf accuracy    <       0.01022740 Ry

     iteration #  5     ecut=    50.00 Ry     beta= 0.70
     CG style diagonalization
     ethr =  1.60E-05,  avg # of iterations =  3.8

     total cpu time spent up to now is      127.5 secs

     total energy              =    -366.43764390 Ry
     Harris-Foulkes estimate   =    -366.43764067 Ry
     estimated scf accuracy    <       0.00015257 Ry

     iteration #  6     ecut=    50.00 Ry     beta= 0.70
     CG style diagonalization
     ethr =  2.38E-07,  avg # of iterations =  5.3

     total cpu time spent up to now is      159.1 secs

     total energy              =    -366.43785281 Ry
     Harris-Foulkes estimate   =    -366.43789499 Ry
     estimated scf accuracy    <       0.00009901 Ry

     iteration #  7     ecut=    50.00 Ry     beta= 0.70
     CG style diagonalization
     ethr =  1.55E-07,  avg # of iterations =  3.9

     total cpu time spent up to now is      182.6 secs

     total energy              =    -366.43788108 Ry
     Harris-Foulkes estimate   =    -366.43788621 Ry
     estimated scf accuracy    <       0.00001770 Ry

     iteration #  8     ecut=    50.00 Ry     beta= 0.70
     CG style diagonalization
     ethr =  2.77E-08,  avg # of iterations =  3.5

     total cpu time spent up to now is      204.1 secs

     End of self-consistent calculation

          k = 0.0000 0.0000 0.0000 (  7391 PWs)   bands (ev):

   -38.5914 -38.5895 -19.5842 -19.5607 -19.5027 -19.5027 -19.4776 -19.4776
   -15.9210 -15.6380 -14.6376 -14.6376 -14.4893 -14.4893  -6.2869  -6.1402
    -2.5705  -2.5705  -2.4850  -2.4850  -1.7020  -0.5836   0.2953   0.2953
     0.4591   0.4591   0.5570   0.5570   0.8600   1.4276   1.4954   1.4954

          k =-0.1250-0.0722 0.0510 (  7327 PWs)   bands (ev):

   -38.5913 -38.5896 -19.5832 -19.5616 -19.5020 -19.5020 -19.4790 -19.4787
   -15.9057 -15.6512 -14.6321 -14.6277 -14.5004 -14.4963  -6.2832  -6.1379
    -2.5809  -2.5646  -2.4822  -2.4696  -1.6591  -0.6484   0.2991   0.3064
     0.3856   0.3924   0.5955   0.6128   0.9107   1.4001   1.4507   1.4829

          k =-0.2500-0.1443 0.1021 (  7303 PWs)   bands (ev):

   -38.5911 -38.5898 -19.5805 -19.5641 -19.4999 -19.4999 -19.4826 -19.4817
   -15.8661 -15.6837 -14.6170 -14.6064 -14.5266 -14.5151  -6.2678  -6.1385
    -2.5982  -2.5454  -2.4836  -2.4394  -1.5386  -0.7966   0.2239   0.2577
     0.3143   0.3592   0.6652   0.7196   0.9924   1.2851   1.4063   1.4564

          k =-0.3750-0.2165 0.1531 (  7309 PWs)   bands (ev):

   -38.5908 -38.5901 -19.5767 -19.5679 -19.4966 -19.4964 -19.4873 -19.4862
   -15.8160 -15.7239 -14.5969 -14.5886 -14.5515 -14.5394  -6.2355  -6.1558
    -2.5996  -2.5420  -2.4742  -2.4237  -1.3631  -0.9727   0.1011   0.1392
     0.3467   0.3903   0.7440   0.7918   1.0314   1.1446   1.3987   1.4343

          k = 0.5000 0.2887-0.2041 (  7336 PWs)   bands (ev):

   -38.5905 -38.5905 -19.5722 -19.5722 -19.4931 -19.4931 -19.4906 -19.4906
   -15.7675 -15.7675 -14.5824 -14.5824 -14.5585 -14.5585  -6.1926  -6.1926
    -2.5754  -2.5754  -2.4394  -2.4394  -1.1648  -1.1648   0.0731   0.0731
     0.3851   0.3851   0.7972   0.7972   1.0579   1.0579   1.4144   1.4144

          k =-0.1250 0.0722 0.1021 (  7323 PWs)   bands (ev):

   -38.5913 -38.5896 -19.5831 -19.5620 -19.5036 -19.4998 -19.4810 -19.4772
   -15.9022 -15.6543 -14.6351 -14.6212 -14.5075 -14.4930  -6.2827  -6.1396
    -2.5936  -2.5499  -2.4830  -2.4668  -1.6476  -0.6655   0.2954   0.3103
     0.3817   0.4222   0.5526   0.6506   0.9174   1.3925   1.4352   1.4687

          k =-0.2500 0.0000 0.1531 (  7314 PWs)   bands (ev):

   -38.5911 -38.5898 -19.5813 -19.5641 -19.5036 -19.4966 -19.4849 -19.4780
   -15.8724 -15.6785 -14.6271 -14.6020 -14.5306 -14.5038  -6.2726  -6.1397
    -2.6089  -2.5340  -2.4868  -2.4389  -1.5599  -0.7806   0.2643   0.2884
     0.3261   0.3848   0.5997   0.7318   0.9834   1.3042   1.3813   1.4499

          k =-0.3750-0.0722 0.2041 (  7305 PWs)   bands (ev):

   -38.5909 -38.5900 -19.5781 -19.5674 -19.5020 -19.4926 -19.4896 -19.4809
   -15.8282 -15.7125 -14.6142 -14.5829 -14.5559 -14.5221  -6.2458  -6.1509
    -2.6044  -2.5413  -2.4813  -2.4143  -1.4135  -0.9318   0.1404   0.1789
     0.3553   0.4026   0.6847   0.7982   1.0297   1.1722   1.3636   1.4339

          k = 0.5000 0.4330-0.1531 (  7295 PWs)   bands (ev):

   -38.5906 -38.5903 -19.5741 -19.5713 -19.4988 -19.4949 -19.4878 -19.4852
   -15.7831 -15.7496 -14.6037 -14.5855 -14.5566 -14.5385  -6.2038  -6.1811
    -2.5894  -2.5701  -2.4512  -2.4155  -1.2356  -1.0974   0.0722   0.0789
     0.3974   0.4103   0.7480   0.8014   1.0654   1.0869   1.3721   1.4210

          k = 0.3750 0.3608-0.1021 (  7289 PWs)   bands (ev):

   -38.5907 -38.5902 -19.5752 -19.5698 -19.4992 -19.4940 -19.4900 -19.4835
   -15.7913 -15.7426 -14.6033 -14.5890 -14.5530 -14.5379  -6.2221  -6.1617
    -2.6242  -2.5312  -2.4425  -2.4297  -1.2793  -1.0549   0.0481   0.1014
     0.3603   0.4287   0.7159   0.8216   1.0528   1.1438   1.3757   1.4159

          k = 0.2500 0.2887-0.0510 (  7298 PWs)   bands (ev):

   -38.5910 -38.5899 -19.5789 -19.5659 -19.5019 -19.4949 -19.4884 -19.4802
   -15.8381 -15.7049 -14.6170 -14.5863 -14.5507 -14.5189  -6.2571  -6.1368
    -2.6322  -2.5179  -2.4605  -2.4360  -1.4557  -0.8874   0.1183   0.1979
     0.3209   0.3967   0.6508   0.8046   1.0310   1.2662   1.3709   1.4256

          k = 0.1250 0.2165 0.0000 (  7325 PWs)   bands (ev):

   -38.5912 -38.5897 -19.5817 -19.5630 -19.5028 -19.4990 -19.4830 -19.4785
   -15.8811 -15.6713 -14.6285 -14.6078 -14.5232 -14.5026  -6.2765  -6.1329
    -2.6112  -2.5423  -2.4642  -2.4587  -1.5912  -0.7405   0.2591   0.3011
     0.3023   0.3599   0.5996   0.7144   0.9745   1.3712   1.4055   1.4485

          k =-0.2500 0.1443 0.2041 (  7331 PWs)   bands (ev):

   -38.5911 -38.5898 -19.5808 -19.5657 -19.5058 -19.4925 -19.4887 -19.4761
   -15.8547 -15.6916 -14.6293 -14.5834 -14.5532 -14.5023  -6.2715  -6.1368
    -2.6425  -2.5068  -2.4834  -2.4174  -1.5175  -0.8514   0.2569   0.2885
     0.3682   0.3838   0.5450   0.8027   1.0156   1.2847   1.2987   1.4245

          k =-0.3750 0.0722 0.2552 (  7298 PWs)   bands (ev):

   -38.5909 -38.5900 -19.5790 -19.5684 -19.5059 -19.4928 -19.4883 -19.4767
   -15.8223 -15.7148 -14.6246 -14.5804 -14.5623 -14.5113  -6.2563  -6.1402
    -2.6509  -2.5176  -2.4684  -2.3901  -1.4211  -0.9592   0.1759   0.2249
     0.3876   0.4227   0.5897   0.8543   1.0264   1.1904   1.2796   1.4132

          k = 0.5000 0.5774-0.1021 (  7287 PWs)   bands (ev):

   -38.5907 -38.5902 -19.5761 -19.5714 -19.5041 -19.4968 -19.4844 -19.4796
   -15.7881 -15.7397 -14.6204 -14.5999 -14.5470 -14.5220  -6.2226  -6.1617
    -2.6215  -2.5686  -2.4420  -2.3827  -1.2895  -1.0677   0.0866   0.1125
     0.4436   0.4530   0.6649   0.7942   1.0715   1.1254   1.2897   1.4145

          k = 0.3750 0.5052-0.0510 (  7299 PWs)   bands (ev):

   -38.5905 -38.5904 -19.5742 -19.5726 -19.5008 -19.4997 -19.4840 -19.4815
   -15.7670 -15.7588 -14.6149 -14.6082 -14.5372 -14.5315  -6.1981  -6.1805
    -2.6231  -2.5616  -2.4284  -2.4016  -1.1894  -1.1464   0.0332   0.0650
     0.4095   0.4941   0.6919   0.7674   1.0850   1.1548   1.3001   1.4149

          k = 0.2500 0.4330 0.0000 (  7306 PWs)   bands (ev):

   -38.5908 -38.5901 -19.5767 -19.5690 -19.5021 -19.4947 -19.4894 -19.4800
   -15.8009 -15.7319 -14.6147 -14.5958 -14.5463 -14.5276  -6.2340  -6.1485
    -2.6461  -2.5138  -2.4337  -2.4319  -1.3285  -1.0101   0.0344   0.1183
     0.3543   0.4587   0.6614   0.8223   1.0621   1.2527   1.2915   1.4169

          k =-0.3750 0.2165 0.3062 (  7255 PWs)   bands (ev):

   -38.5909 -38.5901 -19.5789 -19.5703 -19.5079 -19.4953 -19.4847 -19.4749
   -15.8038 -15.7266 -14.6272 -14.5989 -14.5467 -14.5131  -6.2589  -6.1316
    -2.6848  -2.4890  -2.4729  -2.3601  -1.3890  -1.0256   0.1884   0.2483
     0.4078   0.4614   0.5446   0.9305   0.9373   1.1913   1.2316   1.3923

          k = 0.5000 0.7217-0.0510 (  7266 PWs)   bands (ev):

   -38.5907 -38.5902 -19.5777 -19.5721 -19.5076 -19.4976 -19.4821 -19.4758
   -15.7844 -15.7391 -14.6295 -14.6102 -14.5345 -14.5193  -6.2438  -6.1392
    -2.6768  -2.5292  -2.4433  -2.3487  -1.3240  -1.0810   0.1339   0.1802
     0.4480   0.5357   0.5798   0.7808   1.0243   1.1536   1.2395   1.3960

          k = 0.3750 0.6495 0.0000 (  7298 PWs)   bands (ev):

   -38.5906 -38.5903 -19.5754 -19.5733 -19.5050 -19.4995 -19.4810 -19.4790
   -15.7707 -15.7506 -14.6244 -14.6161 -14.5312 -14.5247  -6.2127  -6.1656
    -2.6261  -2.5859  -2.4261  -2.3655  -1.2382  -1.1244   0.0724   0.0848
     0.4610   0.5573   0.6716   0.6813   1.1046   1.1222   1.2527   1.4091

          k = 0.5000-0.2887-0.4082 (  7216 PWs)   bands (ev):

   -38.5908 -38.5901 -19.5783 -19.5724 -19.5087 -19.4978 -19.4813 -19.4745
   -15.7814 -15.7405 -14.6354 -14.6101 -14.5263 -14.5233  -6.2533  -6.1289
    -2.7008  -2.4927  -2.4614  -2.3342  -1.3365  -1.0949   0.1662   0.2277
     0.4265   0.5444   0.5960   0.7506   0.9996   1.1335   1.2577   1.3807

          k = 0.0000 0.0000 0.1531 (  7327 PWs)   bands (ev):

   -38.5913 -38.5896 -19.5835 -19.5619 -19.5018 -19.5018 -19.4786 -19.4786
   -15.9098 -15.6486 -14.6320 -14.6320 -14.4950 -14.4950  -6.2837  -6.1480
    -2.5650  -2.5650  -2.4852  -2.4852  -1.6607  -0.6348   0.2984   0.2984
     0.4460   0.4460   0.5953   0.5953   0.8754   1.3965   1.4564   1.4564

          k =-0.1250-0.0722 0.2041 (  7325 PWs)   bands (ev):

   -38.5912 -38.5897 -19.5822 -19.5635 -19.5024 -19.4988 -19.4821 -19.4787
   -15.8889 -15.6664 -14.6252 -14.6188 -14.5099 -14.5036  -6.2765  -6.1509
    -2.5691  -2.5555  -2.4990  -2.4589  -1.5961  -0.7240   0.2971   0.3104
     0.3606   0.4480   0.5902   0.6798   0.9304   1.3274   1.3908   1.4509

          k =-0.2500-0.1443 0.2552 (  7298 PWs)   bands (ev):

   -38.5910 -38.5899 -19.5794 -19.5664 -19.5014 -19.4947 -19.4870 -19.4808
   -15.8483 -15.6982 -14.6121 -14.5986 -14.5337 -14.5235  -6.2540  -6.1577
    -2.5630  -2.5507  -2.5137  -2.4267  -1.4686  -0.8749   0.2337   0.2360
     0.3467   0.4083   0.6635   0.7727   1.0011   1.1850   1.3596   1.4294

          k = 0.6250 0.3608-0.1021 (  7289 PWs)   bands (ev):

   -38.5907 -38.5902 -19.5756 -19.5701 -19.4992 -19.4925 -19.4900 -19.4842
   -15.8019 -15.7344 -14.6042 -14.5765 -14.5591 -14.5400  -6.2141  -6.1799
    -2.5947  -2.5338  -2.4884  -2.4147  -1.3028  -1.0404   0.1205   0.1366
     0.3931   0.3988   0.7191   0.8480   1.0409   1.0754   1.3554   1.4103

          k = 0.5000 0.2887-0.0510 (  7295 PWs)   bands (ev):

   -38.5906 -38.5903 -19.5741 -19.5713 -19.4985 -19.4948 -19.4887 -19.4847
   -15.7746 -15.7585 -14.6023 -14.5769 -14.5623 -14.5423  -6.2159  -6.1688
    -2.6356  -2.5056  -2.4527  -2.4299  -1.2201  -1.1240   0.0626   0.1122
     0.3580   0.4308   0.7112   0.8667   1.0396   1.1159   1.3707   1.3906

          k = 0.3750 0.2165 0.0000 (  7305 PWs)   bands (ev):

   -38.5909 -38.5900 -19.5779 -19.5672 -19.5020 -19.4928 -19.4904 -19.4806
   -15.8211 -15.7185 -14.6133 -14.5725 -14.5673 -14.5237  -6.2513  -6.1379
    -2.6492  -2.5000  -2.4442  -2.4422  -1.4035  -0.9495   0.1005   0.1759
     0.3229   0.4030   0.6552   0.8459   1.0385   1.2376   1.3771   1.3845

          k = 0.2500 0.1443 0.0510 (  7314 PWs)   bands (ev):

   -38.5911 -38.5898 -19.5811 -19.5639 -19.5038 -19.4967 -19.4854 -19.4779
   -15.8683 -15.6814 -14.6277 -14.5964 -14.5370 -14.5040  -6.2738  -6.1310
    -2.6297  -2.5271  -2.4597  -2.4483  -1.5565  -0.7890   0.2323   0.2773
     0.3224   0.3508   0.5901   0.7618   0.9998   1.3510   1.4033   1.4046

          k =-0.1250 0.0722 0.2552 (  7314 PWs)   bands (ev):

   -38.5911 -38.5898 -19.5818 -19.5646 -19.5033 -19.4963 -19.4845 -19.4778
   -15.8788 -15.6754 -14.6273 -14.6066 -14.5236 -14.5007  -6.2748  -6.1557
    -2.5925  -2.5275  -2.4976  -2.4556  -1.5632  -0.7684   0.3040   0.3068
     0.3985   0.4330   0.5832   0.7216   0.9494   1.3175   1.3226   1.4260

          k =-0.2500 0.0000 0.3062 (  7299 PWs)   bands (ev):

   -38.5910 -38.5899 -19.5800 -19.5670 -19.5036 -19.4921 -19.4890 -19.4781
   -15.8477 -15.6992 -14.6211 -14.5870 -14.5480 -14.5106  -6.2606  -6.1587
    -2.6016  -2.5271  -2.4954  -2.4253  -1.4716  -0.8861   0.2674   0.2831
     0.3574   0.4551   0.5945   0.8056   1.0074   1.1872   1.2924   1.4083

          k = 0.6250 0.5052-0.0510 (  7294 PWs)   bands (ev):

   -38.5907 -38.5902 -19.5771 -19.5702 -19.5025 -19.4942 -19.4875 -19.4803
   -15.8083 -15.7275 -14.6158 -14.5728 -14.5670 -14.5240  -6.2278  -6.1728
    -2.5933  -2.5610  -2.4691  -2.4042  -1.3406  -1.0201   0.1648   0.1781
     0.4100   0.4463   0.6560   0.8545   1.0447   1.0930   1.2823   1.3965

          k = 0.5000 0.4330 0.0000 (  7280 PWs)   bands (ev):

   -38.5905 -38.5905 -19.5735 -19.5734 -19.5003 -19.4984 -19.4840 -19.4829
   -15.7711 -15.7577 -14.6144 -14.5905 -14.5506 -14.5325  -6.2021  -6.1835
    -2.6331  -2.5313  -2.4436  -2.4084  -1.1916  -1.1606   0.0747   0.1143
     0.4072   0.4622   0.6838   0.8422   1.0523   1.1265   1.2938   1.3895

          k = 0.3750 0.3608 0.0510 (  7294 PWs)   bands (ev):

   -38.5907 -38.5902 -19.5765 -19.5697 -19.5028 -19.4952 -19.4879 -19.4798
   -15.7940 -15.7377 -14.6149 -14.5932 -14.5495 -14.5278  -6.2361  -6.1467
    -2.6597  -2.4998  -2.4398  -2.4207  -1.3145  -1.0410   0.0568   0.1351
     0.3594   0.4506   0.6533   0.8547   1.0477   1.2369   1.2927   1.3857

          k = 0.2500 0.2887 0.1021 (  7299 PWs)   bands (ev):

   -38.5910 -38.5899 -19.5792 -19.5663 -19.5042 -19.4924 -19.4900 -19.4780
   -15.8360 -15.7056 -14.6228 -14.5800 -14.5587 -14.5129  -6.2608  -6.1330
    -2.6489  -2.5084  -2.4609  -2.4225  -1.4589  -0.8991   0.1351   0.2158
     0.3324   0.4005   0.6118   0.8280   1.0358   1.2865   1.3395   1.3998

          k =-0.2500 0.1443 0.3572 (  7298 PWs)   bands (ev):

   -38.5909 -38.5900 -19.5795 -19.5689 -19.5055 -19.4923 -19.4881 -19.4765
   -15.8280 -15.7137 -14.6216 -14.5718 -14.5687 -14.5103  -6.2604  -6.1542
    -2.6393  -2.5057  -2.4854  -2.4002  -1.4271  -0.9601   0.2594   0.3062
     0.4050   0.4313   0.5809   0.8710   1.0041   1.1581   1.2139   1.3882

          k = 0.6250 0.6495 0.0000 (  7295 PWs)   bands (ev):

   -38.5908 -38.5901 -19.5780 -19.5712 -19.5056 -19.4959 -19.4844 -19.4770
   -15.8002 -15.7320 -14.6205 -14.5937 -14.5517 -14.5172  -6.2434  -6.1570
    -2.6431  -2.5391  -2.4535  -2.3775  -1.3469  -1.0478   0.1951   0.2234
     0.4419   0.4910   0.6035   0.8483   1.0039   1.1408   1.2047   1.3783

          k = 0.5000 0.5774 0.0510 (  7292 PWs)   bands (ev):

   -38.5906 -38.5903 -19.5756 -19.5733 -19.5039 -19.4994 -19.4816 -19.4793
   -15.7752 -15.7491 -14.6210 -14.6086 -14.5394 -14.5237  -6.2094  -6.1762
    -2.6118  -2.5914  -2.4251  -2.3786  -1.2444  -1.1255   0.1081   0.1127
     0.4786   0.5230   0.6522   0.7442   1.0963   1.1051   1.2408   1.3818

          k = 0.3750 0.5052 0.1021 (  7299 PWs)   bands (ev):

   -38.5905 -38.5904 -19.5749 -19.5726 -19.5021 -19.5002 -19.4831 -19.4800
   -15.7693 -15.7545 -14.6194 -14.6111 -14.5349 -14.5283  -6.2056  -6.1729
    -2.6351  -2.5598  -2.4130  -2.4022  -1.2134  -1.1335   0.0398   0.0793
     0.4335   0.5123   0.6589   0.7656   1.0805   1.1710   1.2915   1.3837

          k = 0.2500 0.4330 0.1531 (  7294 PWs)   bands (ev):

   -38.5907 -38.5902 -19.5765 -19.5697 -19.5029 -19.4953 -19.4877 -19.4799
   -15.7975 -15.7338 -14.6169 -14.5958 -14.5483 -14.5248  -6.2311  -6.1519
    -2.6378  -2.5356  -2.4417  -2.4073  -1.3185  -1.0257   0.0511   0.1162
     0.3834   0.4499   0.6639   0.8160   1.0624   1.1804   1.3479   1.3968

          k = 0.6250-0.3608-0.3572 (  7266 PWs)   bands (ev):

   -38.5907 -38.5902 -19.5780 -19.5724 -19.5072 -19.4973 -19.4821 -19.4757
   -15.7860 -15.7408 -14.6263 -14.6042 -14.5389 -14.5198  -6.2490  -6.1443
    -2.6797  -2.5030  -2.4620  -2.3539  -1.3284  -1.0920   0.1887   0.2490
     0.4348   0.5288   0.6089   0.7973   0.9773   1.1452   1.2218   1.3567

          k = 0.5000-0.4330-0.3062 (  7270 PWs)   bands (ev):

   -38.5907 -38.5902 -19.5771 -19.5730 -19.5067 -19.4987 -19.4811 -19.4765
   -15.7756 -15.7467 -14.6293 -14.6103 -14.5301 -14.5249  -6.2360  -6.1481
    -2.6720  -2.5349  -2.4353  -2.3542  -1.2883  -1.1148   0.1283   0.1738
     0.4730   0.5710   0.5943   0.7366   1.0221   1.1623   1.2370   1.3614

          k = 0.3750-0.5052-0.2552 (  7292 PWs)   bands (ev):

   -38.5906 -38.5903 -19.5753 -19.5730 -19.5041 -19.4998 -19.4816 -19.4792
   -15.7704 -15.7516 -14.6228 -14.6148 -14.5320 -14.5259  -6.2108  -6.1675
    -2.6311  -2.5771  -2.4178  -2.3794  -1.2315  -1.1265   0.0600   0.0841
     0.4827   0.5079   0.6526   0.7282   1.0869   1.1401   1.2991   1.3750

          k = 0.2500-0.5774-0.2041 (  7280 PWs)   bands (ev):

   -38.5905 -38.5905 -19.5732 -19.5732 -19.4998 -19.4998 -19.4833 -19.4833
   -15.7632 -15.7632 -14.6100 -14.6100 -14.5355 -14.5355  -6.1893  -6.1893
    -2.5930  -2.5930  -2.4154  -2.4154  -1.1656  -1.1656   0.0449   0.0449
     0.4432   0.4433   0.7351   0.7351   1.1070   1.1070   1.3779   1.3779

          k = 0.5000-0.2887-0.2552 (  7266 PWs)   bands (ev):

   -38.5907 -38.5902 -19.5777 -19.5721 -19.5075 -19.4977 -19.4822 -19.4757
   -15.7809 -15.7429 -14.6312 -14.6059 -14.5319 -14.5243  -6.2487  -6.1340
    -2.6953  -2.4862  -2.4602  -2.3535  -1.3204  -1.0956   0.1376   0.2078
     0.4412   0.4860   0.5786   0.8660   0.9607   1.1961   1.2640   1.3395

          k = 0.3750-0.3608-0.2041 (  7295 PWs)   bands (ev):

   -38.5908 -38.5901 -19.5775 -19.5707 -19.5061 -19.4965 -19.4846 -19.4770
   -15.7912 -15.7362 -14.6245 -14.6030 -14.5417 -14.5204  -6.2437  -6.1387
    -2.6752  -2.5125  -2.4436  -2.3766  -1.3319  -1.0532   0.0966   0.1655
     0.4227   0.4515   0.6032   0.8583   1.0220   1.2113   1.2827   1.3626

          k = 0.3750-0.2165-0.1531 (  7298 PWs)   bands (ev):

   -38.5909 -38.5900 -19.5788 -19.5682 -19.5060 -19.4931 -19.4885 -19.4766
   -15.8166 -15.7191 -14.6236 -14.5846 -14.5581 -14.5144  -6.2596  -6.1293
    -2.6766  -2.4832  -2.4664  -2.3959  -1.4141  -0.9722   0.1416   0.2180
     0.3589   0.4051   0.5865   0.8896   1.0226   1.2766   1.2919   1.3553

          k = 0.0000 0.0000 0.3062 (  7303 PWs)   bands (ev):

   -38.5911 -38.5898 -19.5816 -19.5651 -19.4992 -19.4992 -19.4815 -19.4815
   -15.8784 -15.6786 -14.6160 -14.6160 -14.5112 -14.5112  -6.2733  -6.1694
    -2.5502  -2.5502  -2.4874  -2.4874  -1.5441  -0.7716   0.3088   0.3088
     0.4196   0.4196   0.6940   0.6940   0.9214   1.3151   1.3473   1.3473

          k =-0.1250-0.0722 0.3572 (  7298 PWs)   bands (ev):

   -38.5910 -38.5899 -19.5801 -19.5671 -19.5009 -19.4943 -19.4868 -19.4801
   -15.8546 -15.6981 -14.6138 -14.5972 -14.5317 -14.5165  -6.2622  -6.1755
    -2.5637  -2.5228  -2.5168  -2.4546  -1.4697  -0.8683   0.3020   0.3211
     0.3478   0.4699   0.6401   0.8073   0.9755   1.2041   1.2899   1.3469

          k = 0.7500 0.4330 0.0000 (  7306 PWs)   bands (ev):

   -38.5908 -38.5901 -19.5778 -19.5700 -19.5011 -19.4929 -19.4890 -19.4804
   -15.8184 -15.7234 -14.6121 -14.5752 -14.5569 -14.5279  -6.2334  -6.1847
    -2.5834  -2.5302  -2.4981  -2.4230  -1.3595  -1.0014   0.2239   0.2508
     0.3826   0.5060   0.6052   0.9095   1.0336   1.0694   1.2710   1.3321

          k = 0.6250 0.3608 0.0510 (  7299 PWs)   bands (ev):

   -38.5905 -38.5904 -19.5748 -19.5731 -19.5004 -19.4983 -19.4839 -19.4819
   -15.7819 -15.7491 -14.6166 -14.5794 -14.5551 -14.5338  -6.2063  -6.1895
    -2.6369  -2.4993  -2.4716  -2.4085  -1.2332  -1.1365   0.1266   0.1789
     0.4431   0.4523   0.6396   0.9257   0.9949   1.1168   1.2813   1.3228

          k = 0.5000 0.2887 0.1021 (  7287 PWs)   bands (ev):

   -38.5907 -38.5902 -19.5761 -19.5714 -19.5038 -19.4969 -19.4849 -19.4793
   -15.7790 -15.7495 -14.6194 -14.5939 -14.5447 -14.5305  -6.2355  -6.1482
    -2.6754  -2.4704  -2.4635  -2.4003  -1.2772  -1.1024   0.0886   0.1624
     0.3901   0.4529   0.6335   0.9118   0.9919   1.2250   1.2998   1.3106

          k =-0.1250 0.0722 0.4082 (  7305 PWs)   bands (ev):

   -38.5909 -38.5900 -19.5794 -19.5685 -19.5010 -19.4919 -19.4889 -19.4803
   -15.8398 -15.7118 -14.6101 -14.5857 -14.5461 -14.5181  -6.2589  -6.1819
    -2.5801  -2.5134  -2.5019  -2.4531  -1.4203  -0.9272   0.3035   0.3336
     0.3960   0.4034   0.6998   0.8466   1.0029   1.1537   1.2263   1.3157

          k = 0.7500 0.5774 0.0510 (  7294 PWs)   bands (ev):

   -38.5907 -38.5902 -19.5778 -19.5709 -19.5018 -19.4937 -19.4873 -19.4798
   -15.8117 -15.7313 -14.6090 -14.5713 -14.5649 -14.5247  -6.2408  -6.1856
    -2.5887  -2.5479  -2.4683  -2.4253  -1.3410  -1.0294   0.2680   0.2777
     0.3946   0.4801   0.6635   0.9182   1.0184   1.0811   1.1977   1.3013

          k = 0.6250 0.5052 0.1021 (  7299 PWs)   bands (ev):

   -38.5905 -38.5904 -19.5757 -19.5734 -19.5014 -19.4990 -19.4828 -19.4802
   -15.7825 -15.7489 -14.6153 -14.5906 -14.5485 -14.5295  -6.2049  -6.1984
    -2.6118  -2.5616  -2.4342  -2.4061  -1.2485  -1.1313   0.1697   0.1980
     0.4588   0.5361   0.6107   0.8527   1.0443   1.1118   1.2177   1.3025

          k = 0.5000 0.4330 0.1531 (  7292 PWs)   bands (ev):

   -38.5906 -38.5903 -19.5756 -19.5733 -19.5037 -19.4995 -19.4819 -19.4791
   -15.7665 -15.7581 -14.6240 -14.6026 -14.5366 -14.5293  -6.2214  -6.1638
    -2.6598  -2.5297  -2.4260  -2.3886  -1.2298  -1.1513   0.0964   0.1498
     0.4797   0.4889   0.6168   0.8255   1.0189   1.1971   1.2599   1.3156

          k = 0.7500-0.4330-0.3062 (  7287 PWs)   bands (ev):

   -38.5907 -38.5902 -19.5772 -19.5724 -19.5030 -19.4959 -19.4842 -19.4792
   -15.7932 -15.7452 -14.6073 -14.5877 -14.5537 -14.5265  -6.2406  -6.1795
    -2.6255  -2.5229  -2.4665  -2.4032  -1.2986  -1.0910   0.2443   0.3013
     0.4221   0.4568   0.7142   0.8820   0.9747   1.1442   1.1507   1.2803

          k = 0.6250-0.5052-0.2552 (  7292 PWs)   bands (ev):

   -38.5906 -38.5903 -19.5761 -19.5738 -19.5032 -19.4989 -19.4815 -19.4791
   -15.7743 -15.7556 -14.6134 -14.6020 -14.5402 -14.5297  -6.2233  -6.1800
    -2.6298  -2.5552  -2.4327  -2.3899  -1.2458  -1.1478   0.1842   0.2132
     0.4834   0.5194   0.6858   0.7569   1.0355   1.1373   1.2072   1.2811

          k = 0.5000-0.5774-0.2041 (  7256 PWs)   bands (ev):

   -38.5905 -38.5905 -19.5747 -19.5747 -19.5021 -19.5021 -19.4798 -19.4798
   -15.7614 -15.7614 -14.6168 -14.6168 -14.5302 -14.5302  -6.1930  -6.1930
    -2.6047  -2.6047  -2.3969  -2.3969  -1.1875  -1.1875   0.1127   0.1127
     0.5362   0.5362   0.6700   0.6700   1.1021   1.1021   1.2976   1.2976

          k = 0.6250-0.3608-0.2041 (  7298 PWs)   bands (ev):

   -38.5906 -38.5903 -19.5760 -19.5739 -19.5042 -19.4989 -19.4812 -19.4788
   -15.7668 -15.7602 -14.6237 -14.5963 -14.5384 -14.5305  -6.2306  -6.1649
    -2.6644  -2.5057  -2.4533  -2.3792  -1.2393  -1.1620   0.1553   0.2190
     0.4565   0.5653   0.5715   0.8595   0.9634   1.2102   1.2357   1.2498

          k =-0.0000 0.0000 0.4593 (  7309 PWs)   bands (ev):

   -38.5908 -38.5901 -19.5784 -19.5695 -19.4953 -19.4953 -19.4857 -19.4857
   -15.8318 -15.7238 -14.5921 -14.5921 -14.5353 -14.5353  -6.2551  -6.1988
    -2.5299  -2.5299  -2.4951  -2.4951  -1.3715  -0.9598   0.3282   0.3282
     0.3881   0.3881   0.8377   0.8378   0.9961   1.1894   1.1894   1.2070

          k = 0.8750 0.5052 0.1021 (  7289 PWs)   bands (ev):

   -38.5907 -38.5902 -19.5770 -19.5715 -19.4978 -19.4921 -19.4893 -19.4832
   -15.8086 -15.7418 -14.5951 -14.5705 -14.5583 -14.5368  -6.2403  -6.2056
    -2.5528  -2.5345  -2.4914  -2.4591  -1.3004  -1.0493   0.3194   0.3226
     0.3545   0.4316   0.7821   0.9685   1.0426   1.0442   1.1807   1.1943

          k = 0.7500 0.4330 0.1531 (  7299 PWs)   bands (ev):

   -38.5905 -38.5904 -19.5755 -19.5738 -19.4993 -19.4983 -19.4836 -19.4815
   -15.7819 -15.7565 -14.6062 -14.5803 -14.5514 -14.5372  -6.2142  -6.2075
    -2.6056  -2.5321  -2.4629  -2.4192  -1.2284  -1.1501   0.2290   0.2741
     0.4105   0.5081   0.6808   0.9213   1.0062   1.1330   1.1917   1.2015

          k = 0.8750-0.5052-0.2552 (  7295 PWs)   bands (ev):

   -38.5906 -38.5903 -19.5758 -19.5730 -19.4971 -19.4936 -19.4873 -19.4843
   -15.7916 -15.7585 -14.5862 -14.5709 -14.5613 -14.5425  -6.2351  -6.2121
    -2.5617  -2.5299  -2.4809  -2.4615  -1.2410  -1.1122   0.3098   0.3505
     0.3761   0.3891   0.8605   0.9617   1.0081   1.0877   1.1252   1.1624

          k = 0.7500-0.5774-0.2041 (  7280 PWs)   bands (ev):

   -38.5905 -38.5905 -19.5747 -19.5747 -19.4982 -19.4982 -19.4830 -19.4830
   -15.7707 -15.7707 -14.5913 -14.5913 -14.5443 -14.5443  -6.2147  -6.2147
    -2.5703  -2.5703  -2.4408  -2.4408  -1.1873  -1.1873   0.2716   0.2716
     0.4395   0.4395   0.8201   0.8201   1.0850   1.0850   1.1721   1.1721

          k = 0.0000 0.0000-0.6124 (  7336 PWs)   bands (ev):

   -38.5905 -38.5905 -19.5742 -19.5742 -19.4906 -19.4906 -19.4906 -19.4906
   -15.7775 -15.7775 -14.5637 -14.5637 -14.5637 -14.5637  -6.2292  -6.2292
    -2.5099  -2.5099  -2.5099  -2.5099  -1.1683  -1.1683   0.3559   0.3559
     0.3559   0.3559   1.0104   1.0104   1.0104   1.0104   1.0949   1.0949

     highest occupied level (ev):     1.4954

!    total energy              =    -366.43788235 Ry
     Harris-Foulkes estimate   =    -366.43788375 Ry
     estimated scf accuracy    <       0.00000177 Ry

     The total energy is the sum of the following terms:

     one-electron contribution =    -167.19410491 Ry
     hartree contribution      =     105.90376566 Ry
     xc contribution           =     -72.68147034 Ry
     ewald contribution        =    -232.46607275 Ry

     convergence has been achieved in   8 iterations

     Forces acting on atoms (cartesian axes, Ry/au):

     atom    1 type  1   force =    -0.00000000   -0.00000000    0.00000000
     atom    2 type  1   force =     0.00000000    0.00000000    0.00000000
     atom    3 type  2   force =     0.00000000    0.00000000    0.00000000
     atom    4 type  2   force =     0.00000000    0.00000000    0.00000000
     atom    5 type  3   force =    -0.12157029    0.21056592    0.00000000
     atom    6 type  3   force =     0.24314058   -0.00000000   -0.00000000
     atom    7 type  3   force =    -0.12157029   -0.21056592   -0.00000000
     atom    8 type  3   force =    -0.24314058    0.00000000    0.00000000
     atom    9 type  3   force =     0.12157029    0.21056592    0.00000000
     atom   10 type  3   force =     0.12157029   -0.21056592   -0.00000000

     Total force =     0.595570     Total SCF correction =     0.001703


     Computing stress (Cartesian axis) and pressure

          total   stress  (Ry/bohr**3)                   (kbar)     P= -286.64
  -0.00282319   0.00000000  -0.00000000       -415.31      0.00     -0.00
  -0.00000000  -0.00282319  -0.00000000         -0.00   -415.31     -0.00
   0.00000000  -0.00000000  -0.00019921          0.00     -0.00    -29.31


     BFGS Geometry Optimization

     number of scf cycles    =   1
     number of bfgs steps    =   0

     enthalpy new            =    -366.4378823453 Ry

     new trust radius        =       0.4934291802 bohr
     new conv_thr            =       0.0000100000 Ry

     new unit-cell volume =   1050.23051 a.u.^3 (   155.62810 Ang^3 )
     density =      2.13588 g/cm^3

CELL_PARAMETERS (alat= 12.00000000)
   0.464710096  -0.268300499   0.812430187
   0.000000000   0.536600998   0.812430187
  -0.464710096  -0.268300499   0.812430187

ATOMIC_POSITIONS (crystal)
Ca       0.500000000   0.500000000   0.500000000
Ca       0.000000000   0.000000000   0.000000000
C        0.250000000   0.250000000   0.250000000
C        0.750000000   0.750000000   0.750000000
O        0.486638530   1.013361470   0.250000000
O        1.013361470   0.250000000   0.486638530
O        0.250000000   0.486638530   1.013361470
O       -0.013361470   0.750000000   0.513361470
O        0.750000000   0.513361470  -0.013361470
O        0.513361470  -0.013361470   0.750000000



     Writing output data file CCO_k.save/
     NEW-OLD atomic charge density approx. for the potential

     Check: negative core charge=   -0.000002
     extrapolated charge   53.54162, renormalised to   64.00000

     total cpu time spent up to now is      206.1 secs

     Self-consistent Calculation

     iteration #  1     ecut=    50.00 Ry     beta= 0.70
     CG style diagonalization
     c_bands:  2 eigenvalues not converged
     c_bands:  3 eigenvalues not converged
     c_bands:  4 eigenvalues not converged
     c_bands:  4 eigenvalues not converged
     c_bands:  4 eigenvalues not converged
     c_bands:  4 eigenvalues not converged
     c_bands:  5 eigenvalues not converged
     c_bands:  3 eigenvalues not converged
     c_bands:  4 eigenvalues not converged
     c_bands:  3 eigenvalues not converged
     c_bands:  3 eigenvalues not converged
     c_bands:  4 eigenvalues not converged
     c_bands:  1 eigenvalues not converged
     c_bands:  1 eigenvalues not converged
     c_bands:  1 eigenvalues not converged
     c_bands:  2 eigenvalues not converged
     c_bands:  4 eigenvalues not converged
     c_bands:  5 eigenvalues not converged
     c_bands:  3 eigenvalues not converged
     c_bands:  5 eigenvalues not converged
     c_bands:  4 eigenvalues not converged
     c_bands:  5 eigenvalues not converged
     c_bands:  4 eigenvalues not converged
     c_bands:  5 eigenvalues not converged
     c_bands:  4 eigenvalues not converged
     c_bands:  3 eigenvalues not converged
     c_bands:  5 eigenvalues not converged
     c_bands:  3 eigenvalues not converged
     c_bands:  4 eigenvalues not converged
     c_bands:  4 eigenvalues not converged
     c_bands:  2 eigenvalues not converged
     c_bands:  3 eigenvalues not converged
     c_bands:  1 eigenvalues not converged
     c_bands:  3 eigenvalues not converged
     c_bands:  5 eigenvalues not converged
     c_bands:  4 eigenvalues not converged
     c_bands:  4 eigenvalues not converged
     c_bands:  2 eigenvalues not converged
     c_bands:  4 eigenvalues not converged
     c_bands:  4 eigenvalues not converged
     c_bands:  5 eigenvalues not converged
     c_bands:  4 eigenvalues not converged
     c_bands:  5 eigenvalues not converged
     c_bands:  4 eigenvalues not converged
     c_bands:  4 eigenvalues not converged
     c_bands:  3 eigenvalues not converged
     c_bands:  3 eigenvalues not converged
     c_bands:  4 eigenvalues not converged
     c_bands:  4 eigenvalues not converged
     c_bands:  1 eigenvalues not converged
     c_bands:  2 eigenvalues not converged
     c_bands:  1 eigenvalues not converged
     ethr =  1.00E-06,  avg # of iterations = 13.3

     total cpu time spent up to now is      284.6 secs

     total energy              =    -360.78360389 Ry
     Harris-Foulkes estimate   =    -388.25437288 Ry
     estimated scf accuracy    <       5.66740778 Ry

     iteration #  2     ecut=    50.00 Ry     beta= 0.70
     CG style diagonalization
     ethr =  8.86E-03,  avg # of iterations =  5.4

     total cpu time spent up to now is      317.5 secs

     total energy              =    -364.88758204 Ry
     Harris-Foulkes estimate   =    -373.42790904 Ry
     estimated scf accuracy    <      26.20146570 Ry

     iteration #  3     ecut=    50.00 Ry     beta= 0.70
     CG style diagonalization
     ethr =  8.86E-03,  avg # of iterations =  4.2

     total cpu time spent up to now is      348.0 secs

     total energy              =    -367.22942255 Ry
     Harris-Foulkes estimate   =    -367.68274999 Ry
     estimated scf accuracy    <       1.76339242 Ry

     iteration #  4     ecut=    50.00 Ry     beta= 0.70
     CG style diagonalization
     ethr =  2.76E-03,  avg # of iterations =  3.1

     total cpu time spent up to now is      367.6 secs

     total energy              =    -367.19898925 Ry
     Harris-Foulkes estimate   =    -367.34801012 Ry
     estimated scf accuracy    <       0.75891793 Ry

     iteration #  5     ecut=    50.00 Ry     beta= 0.70
     CG style diagonalization
     ethr =  1.19E-03,  avg # of iterations =  3.0

     total cpu time spent up to now is      386.7 secs

     total energy              =    -367.10636136 Ry
     Harris-Foulkes estimate   =    -367.23651759 Ry
     estimated scf accuracy    <       0.33642277 Ry

     iteration #  6     ecut=    50.00 Ry     beta= 0.70
     CG style diagonalization
     ethr =  5.26E-04,  avg # of iterations =  3.7

     total cpu time spent up to now is      409.7 secs

     total energy              =    -367.16810934 Ry
     Harris-Foulkes estimate   =    -367.16952855 Ry
     estimated scf accuracy    <       0.00336174 Ry

     iteration #  7     ecut=    50.00 Ry     beta= 0.70
     CG style diagonalization
     ethr =  5.25E-06,  avg # of iterations =  5.2

     total cpu time spent up to now is      441.8 secs

     total energy              =    -367.17421320 Ry
     Harris-Foulkes estimate   =    -367.17520585 Ry
     estimated scf accuracy    <       0.00201449 Ry

     iteration #  8     ecut=    50.00 Ry     beta= 0.70
     CG style diagonalization
     ethr =  3.15E-06,  avg # of iterations =  3.9

     total cpu time spent up to now is      465.8 secs

     total energy              =    -367.17458126 Ry
     Harris-Foulkes estimate   =    -367.17471542 Ry
     estimated scf accuracy    <       0.00021940 Ry

     iteration #  9     ecut=    50.00 Ry     beta= 0.70
     CG style diagonalization
     ethr =  3.43E-07,  avg # of iterations =  4.2

     total cpu time spent up to now is      491.9 secs

     total energy              =    -367.17466183 Ry
     Harris-Foulkes estimate   =    -367.17468713 Ry
     estimated scf accuracy    <       0.00009474 Ry

     iteration # 10     ecut=    50.00 Ry     beta= 0.70
     CG style diagonalization
     ethr =  1.48E-07,  avg # of iterations =  3.3

     total cpu time spent up to now is      512.4 secs

     total energy              =    -367.17465982 Ry
     Harris-Foulkes estimate   =    -367.17466857 Ry
     estimated scf accuracy    <       0.00002149 Ry

     iteration # 11     ecut=    50.00 Ry     beta= 0.70
     CG style diagonalization
     ethr =  3.36E-08,  avg # of iterations =  3.7

     total cpu time spent up to now is      535.4 secs

     End of self-consistent calculation

          k = 0.0000 0.0000 0.0000 (  7391 PWs)   bands (ev):

   -36.9761 -36.9720 -18.0265 -17.9538 -17.9273 -17.9273 -17.8821 -17.8821
   -16.9915 -16.7292 -14.5024 -14.5024 -14.3194 -14.3194  -4.6819  -4.5865
    -2.2998  -2.2998  -2.2700  -2.2700  -1.9393  -0.8445   1.1860   1.1860
     1.4656   1.4656   1.4824   1.4824   2.3916   2.4989   2.4989   2.8510

          k =-0.1345-0.0776 0.0513 (  7327 PWs)   bands (ev):

   -36.9759 -36.9722 -18.0215 -17.9560 -17.9309 -17.9265 -17.8894 -17.8844
   -16.9651 -16.7439 -14.4955 -14.4894 -14.3355 -14.3271  -4.6586  -4.5913
    -2.3269  -2.3046  -2.2614  -2.2493  -1.8859  -0.8927   1.1858   1.1966
     1.3740   1.3803   1.5414   1.5509   2.3832   2.4479   2.5272   2.8250

          k =-0.2690-0.1553 0.1026 (  7303 PWs)   bands (ev):

   -36.9755 -36.9726 -18.0091 -17.9618 -17.9408 -17.9256 -17.9004 -17.8920
   -16.9064 -16.7752 -14.4768 -14.4622 -14.3716 -14.3484  -4.6078  -4.5952
    -2.3695  -2.2971  -2.2654  -2.2158  -1.7449  -1.0116   1.1864   1.1884
     1.2319   1.2409   1.6376   1.6613   2.3065   2.3317   2.6287   2.7723

          k =-0.4035-0.2329 0.1539 (  7309 PWs)   bands (ev):

   -36.9748 -36.9733 -17.9940 -17.9691 -17.9480 -17.9296 -17.9057 -17.9022
   -16.8526 -16.8017 -14.4526 -14.4417 -14.4012 -14.3771  -4.5839  -4.5694
    -2.3891  -2.3177  -2.2523  -2.1994  -1.5523  -1.1655   1.0426   1.0950
     1.2104   1.2454   1.7301   1.7622   2.2097   2.2153   2.7117   2.7396

          k = 0.5380 0.3106-0.2051 (  7336 PWs)   bands (ev):

   -36.9740 -36.9740 -17.9797 -17.9797 -17.9416 -17.9416 -17.9067 -17.9067
   -16.8214 -16.8214 -14.4373 -14.4373 -14.4021 -14.4021  -4.5660  -4.5660
    -2.3672  -2.3672  -2.2154  -2.2154  -1.3484  -1.3484   1.0115   1.0115
     1.2369   1.2369   1.7865   1.7865   2.1642   2.1642   2.7353   2.7353

          k =-0.1345 0.0776 0.1026 (  7323 PWs)   bands (ev):

   -36.9759 -36.9722 -18.0212 -17.9586 -17.9339 -17.9219 -17.8932 -17.8810
   -16.9608 -16.7470 -14.4964 -14.4839 -14.3415 -14.3257  -4.6582  -4.5950
    -2.3368  -2.2957  -2.2624  -2.2432  -1.8731  -0.9051   1.1883   1.1968
     1.3555   1.4268   1.4847   1.5986   2.3634   2.4717   2.5010   2.8160

          k =-0.2690 0.0000 0.1539 (  7314 PWs)   bands (ev):

   -36.9756 -36.9725 -18.0129 -17.9672 -17.9403 -17.9181 -17.9033 -17.8837
   -16.9162 -16.7715 -14.4846 -14.4609 -14.3706 -14.3397  -4.6207  -4.6008
    -2.3668  -2.2942  -2.2650  -2.2126  -1.7701  -0.9958   1.1786   1.2004
     1.2560   1.3401   1.5437   1.6910   2.2714   2.3946   2.5906   2.7715

          k =-0.4035-0.0776 0.2051 (  7305 PWs)   bands (ev):

   -36.9750 -36.9731 -18.0005 -17.9753 -17.9465 -17.9243 -17.9069 -17.8908
   -16.8650 -16.7953 -14.4682 -14.4389 -14.3998 -14.3623  -4.5906  -4.5805
    -2.3794  -2.3207  -2.2582  -2.1905  -1.6049  -1.1264   1.0686   1.1299
     1.2294   1.2877   1.6444   1.7747   2.1663   2.2911   2.6862   2.7385

          k = 0.5380 0.4659-0.1539 (  7295 PWs)   bands (ev):

   -36.9743 -36.9738 -17.9876 -17.9791 -17.9489 -17.9403 -17.9031 -17.8973
   -16.8329 -16.8087 -14.4580 -14.4377 -14.4020 -14.3819  -4.5683  -4.5640
    -2.3806  -2.3567  -2.2293  -2.1937  -1.4161  -1.2826   1.0006   1.0061
     1.2577   1.2759   1.7221   1.7910   2.1409   2.2068   2.7244   2.7415

          k = 0.4035 0.3882-0.1026 (  7289 PWs)   bands (ev):

   -36.9745 -36.9736 -17.9873 -17.9751 -17.9581 -17.9344 -17.9064 -17.8941
   -16.8263 -16.8168 -14.4564 -14.4450 -14.3980 -14.3797  -4.5821  -4.5478
    -2.4198  -2.3093  -2.2285  -2.2013  -1.4664  -1.2387   0.9638   1.0448
     1.2304   1.2860   1.6963   1.8067   2.1626   2.2190   2.7226   2.7456

          k = 0.2690 0.3106-0.0513 (  7298 PWs)   bands (ev):

   -36.9752 -36.9729 -17.9997 -17.9652 -17.9577 -17.9202 -17.9117 -17.8874
   -16.8667 -16.7969 -14.4722 -14.4432 -14.3967 -14.3562  -4.5965  -4.5683
    -2.4155  -2.2807  -2.2444  -2.2088  -1.6545  -1.0881   1.0458   1.1590
     1.2059   1.2747   1.6179   1.7691   2.2208   2.3151   2.6935   2.7390

          k = 0.1345 0.2329 0.0000 (  7325 PWs)   bands (ev):

   -36.9757 -36.9724 -18.0130 -17.9587 -17.9437 -17.9211 -17.9026 -17.8837
   -16.9238 -16.7668 -14.4883 -14.4666 -14.3645 -14.3359  -4.6180  -4.5963
    -2.3741  -2.2947  -2.2452  -2.2307  -1.8058  -0.9652   1.1732   1.2105
     1.2362   1.3264   1.5501   1.6569   2.3188   2.4081   2.5938   2.7863

          k =-0.2690 0.1553 0.2051 (  7331 PWs)   bands (ev):

   -36.9754 -36.9727 -18.0095 -17.9823 -17.9448 -17.9095 -17.9077 -17.8784
   -16.8888 -16.7895 -14.4831 -14.4403 -14.3952 -14.3411  -4.6126  -4.5967
    -2.4027  -2.2843  -2.2576  -2.1820  -1.7239  -1.0500   1.1456   1.2085
     1.2851   1.3466   1.4928   1.7707   2.1612   2.4141   2.6105   2.7303

          k =-0.4035 0.0776 0.2564 (  7298 PWs)   bands (ev):

   -36.9750 -36.9730 -18.0018 -17.9954 -17.9494 -17.9189 -17.8995 -17.8800
   -16.8487 -16.8099 -14.4765 -14.4285 -14.4119 -14.3533  -4.6106  -4.5614
    -2.4196  -2.3026  -2.2520  -2.1545  -1.6149  -1.1421   1.0550   1.1790
     1.2739   1.3381   1.5430   1.8313   2.0554   2.3508   2.6879   2.6968

          k = 0.5380 0.6212-0.1026 (  7287 PWs)   bands (ev):

   -36.9745 -36.9736 -17.9971 -17.9916 -17.9555 -17.9340 -17.8929 -17.8858
   -16.8242 -16.8152 -14.4733 -14.4479 -14.3948 -14.3653  -4.5833  -4.5489
    -2.3962  -2.3622  -2.2362  -2.1503  -1.4698  -1.2465   0.9743   1.0405
     1.3206   1.3428   1.6242   1.7590   2.0927   2.2663   2.7059   2.7365

          k = 0.4035 0.5435-0.0513 (  7299 PWs)   bands (ev):

   -36.9741 -36.9739 -17.9915 -17.9817 -17.9609 -17.9447 -17.8946 -17.8873
   -16.8193 -16.8136 -14.4685 -14.4599 -14.3823 -14.3745  -4.5657  -4.5484
    -2.4233  -2.3342  -2.2260  -2.1716  -1.3726  -1.3224   0.9370   0.9768
     1.2917   1.3581   1.6605   1.7354   2.1727   2.2042   2.7243   2.7499

          k = 0.2690 0.4659 0.0000 (  7306 PWs)   bands (ev):

   -36.9747 -36.9734 -17.9922 -17.9725 -17.9658 -17.9344 -17.9042 -17.8853
   -16.8284 -16.8149 -14.4657 -14.4554 -14.3895 -14.3689  -4.5884  -4.5396
    -2.4417  -2.2814  -2.2264  -2.2030  -1.5189  -1.1949   0.9365   1.0598
     1.2376   1.3270   1.6303   1.8002   2.1733   2.2567   2.7129   2.7519

          k =-0.4035 0.2329 0.3077 (  7255 PWs)   bands (ev):

   -36.9749 -36.9732 -18.0144 -17.9990 -17.9512 -17.9180 -17.8915 -17.8757
   -16.8314 -16.8184 -14.4804 -14.4406 -14.3972 -14.3575  -4.6262  -4.5279
    -2.4573  -2.2789  -2.2590  -2.1186  -1.5812  -1.1945   1.0237   1.2234
     1.3122   1.3438   1.5063   1.8771   1.9373   2.3558   2.6429   2.7274

          k = 0.5380 0.7765-0.0513 (  7266 PWs)   bands (ev):

   -36.9747 -36.9734 -18.0186 -17.9942 -17.9549 -17.9249 -17.8864 -17.8774
   -16.8367 -16.8015 -14.4852 -14.4507 -14.3823 -14.3646  -4.6151  -4.5146
    -2.4519  -2.3214  -2.2405  -2.1080  -1.5080  -1.2468   0.9692   1.1290
     1.3617   1.4048   1.5395   1.7125   2.0334   2.3108   2.6412   2.7610

          k = 0.4035 0.6988 0.0000 (  7298 PWs)   bands (ev):

   -36.9743 -36.9738 -18.0066 -17.9881 -17.9604 -17.9374 -17.8852 -17.8836
   -16.8234 -16.8074 -14.4776 -14.4634 -14.3737 -14.3721  -4.5794  -4.5345
    -2.3995  -2.3849  -2.2286  -2.1292  -1.4144  -1.2982   0.9422   1.0028
     1.3598   1.4253   1.6203   1.6333   2.1162   2.2528   2.6944   2.7555

          k = 0.5380-0.3106-0.4103 (  7216 PWs)   bands (ev):

   -36.9747 -36.9734 -18.0281 -17.9950 -17.9537 -17.9203 -17.8843 -17.8746
   -16.8487 -16.7895 -14.4932 -14.4463 -14.3770 -14.3670  -4.6307  -4.4970
    -2.4779  -2.2796  -2.2609  -2.0909  -1.5232  -1.2544   0.9746   1.2025
     1.3280   1.4507   1.5155   1.6766   2.0115   2.3252   2.6063   2.7752

          k =-0.0000 0.0000 0.1539 (  7327 PWs)   bands (ev):

   -36.9759 -36.9722 -18.0251 -17.9587 -17.9257 -17.9257 -17.8840 -17.8840
   -16.9792 -16.7376 -14.4953 -14.4953 -14.3263 -14.3263  -4.6838  -4.5964
    -2.2969  -2.2969  -2.2691  -2.2691  -1.8914  -0.8826   1.1932   1.1932
     1.4108   1.4108   1.5595   1.5595   2.4036   2.4590   2.4590   2.8270

          k =-0.1345-0.0776 0.2051 (  7325 PWs)   bands (ev):

   -36.9757 -36.9724 -18.0201 -17.9645 -17.9277 -17.9233 -17.8915 -17.8870
   -16.9487 -16.7547 -14.4834 -14.4816 -14.3414 -14.3412  -4.6631  -4.6028
    -2.3083  -2.3044  -2.2784  -2.2401  -1.8137  -0.9509   1.1997   1.2020
     1.3236   1.4168   1.5252   1.6566   2.3534   2.3794   2.5158   2.7931

          k =-0.2690-0.1553 0.2564 (  7298 PWs)   bands (ev):

   -36.9752 -36.9729 -18.0100 -17.9727 -17.9297 -17.9247 -17.9037 -17.8933
   -16.8965 -16.7795 -14.4648 -14.4584 -14.3701 -14.3668  -4.6205  -4.5957
    -2.3238  -2.3207  -2.2845  -2.2115  -1.6647  -1.0763   1.1749   1.1900
     1.2253   1.3086   1.6047   1.7578   2.2119   2.2961   2.6195   2.7535

          k = 0.6725 0.3882-0.1026 (  7289 PWs)   bands (ev):

   -36.9745 -36.9736 -17.9990 -17.9779 -17.9380 -17.9254 -17.9142 -17.8964
   -16.8552 -16.7953 -14.4567 -14.4324 -14.3957 -14.3892  -4.5921  -4.5673
    -2.3829  -2.3153  -2.2502  -2.2058  -1.4827  -1.2286   1.0537   1.0854
     1.2567   1.2586   1.6842   1.8467   2.1061   2.2146   2.6865   2.7436

          k = 0.5380 0.3106-0.0513 (  7295 PWs)   bands (ev):

   -36.9743 -36.9738 -17.9892 -17.9835 -17.9510 -17.9204 -17.9161 -17.8959
   -16.8321 -16.8100 -14.4582 -14.4188 -14.4161 -14.3863  -4.5911  -4.5402
    -2.4329  -2.2829  -2.2257  -2.2157  -1.4072  -1.3012   0.9751   1.0672
     1.2200   1.2805   1.6923   1.8777   2.0873   2.2147   2.7017   2.7514

          k = 0.4035 0.2329 0.0000 (  7305 PWs)   bands (ev):

   -36.9750 -36.9731 -17.9948 -17.9788 -17.9545 -17.9159 -17.9134 -17.8899
   -16.8448 -16.8109 -14.4681 -14.4254 -14.4160 -14.3630  -4.6005  -4.5487
    -2.4376  -2.2713  -2.2303  -2.2092  -1.5992  -1.1400   1.0173   1.1439
     1.1993   1.2651   1.6298   1.8296   2.1563   2.3003   2.7143   2.7198

          k = 0.2690 0.1553 0.0513 (  7314 PWs)   bands (ev):

   -36.9756 -36.9725 -18.0093 -17.9657 -17.9471 -17.9176 -17.9062 -17.8829
   -16.9038 -16.7788 -14.4854 -14.4536 -14.3805 -14.3393  -4.6009  -4.5992
    -2.3965  -2.2913  -2.2331  -2.2212  -1.7670  -1.0032   1.1684   1.1806
     1.2408   1.2952   1.5456   1.7129   2.2656   2.4043   2.6190   2.7625

          k =-0.1345 0.0776 0.2564 (  7314 PWs)   bands (ev):

   -36.9756 -36.9725 -18.0190 -17.9709 -17.9324 -17.9149 -17.8981 -17.8818
   -16.9368 -16.7638 -14.4842 -14.4677 -14.3584 -14.3372  -4.6614  -4.6125
    -2.3361  -2.2822  -2.2752  -2.2282  -1.7777  -0.9853   1.1991   1.2115
     1.3420   1.3910   1.5490   1.6942   2.2782   2.4199   2.4887   2.7690

          k =-0.2690 0.0000 0.3077 (  7299 PWs)   bands (ev):

   -36.9752 -36.9729 -18.0122 -17.9815 -17.9367 -17.9118 -17.9054 -17.8839
   -16.8954 -16.7852 -14.4735 -14.4450 -14.3866 -14.3515  -4.6270  -4.6120
    -2.3546  -2.3020  -2.2689  -2.1979  -1.6710  -1.0822   1.1709   1.2278
     1.2547   1.3922   1.5418   1.7855   2.1468   2.3475   2.5840   2.7311

          k = 0.6725 0.5435-0.0513 (  7294 PWs)   bands (ev):

   -36.9747 -36.9734 -18.0043 -17.9873 -17.9408 -17.9250 -17.9021 -17.8884
   -16.8569 -16.7980 -14.4668 -14.4224 -14.4136 -14.3683  -4.5950  -4.5855
    -2.3704  -2.3334  -2.2510  -2.1833  -1.5224  -1.2044   1.0943   1.1003
     1.2824   1.3461   1.6083   1.8403   2.0668   2.2528   2.6652   2.7232

          k = 0.5380 0.4659 0.0000 (  7280 PWs)   bands (ev):

   -36.9740 -36.9740 -17.9981 -17.9869 -17.9487 -17.9335 -17.9001 -17.8901
   -16.8373 -16.8018 -14.4688 -14.4338 -14.4019 -14.3765  -4.5881  -4.5459
    -2.4296  -2.3000  -2.2293  -2.1910  -1.3647  -1.3444   0.9794   1.0474
     1.2793   1.3277   1.6542   1.8296   2.0901   2.2080   2.6908   2.7477

          k = 0.4035 0.3882 0.0513 (  7294 PWs)   bands (ev):

   -36.9747 -36.9734 -17.9939 -17.9875 -17.9559 -17.9279 -17.9034 -17.8863
   -16.8248 -16.8179 -14.4700 -14.4428 -14.3971 -14.3699  -4.5980  -4.5301
    -2.4540  -2.2753  -2.2103  -2.2076  -1.5045  -1.2196   0.9493   1.0870
     1.2367   1.3163   1.6261   1.8448   2.1058   2.2686   2.6914   2.7543

          k = 0.2690 0.3106 0.1026 (  7299 PWs)   bands (ev):

   -36.9752 -36.9729 -18.0006 -17.9792 -17.9528 -17.9175 -17.9093 -17.8827
   -16.8609 -16.8019 -14.4770 -14.4362 -14.4038 -14.3517  -4.6035  -4.5616
    -2.4274  -2.2845  -2.2343  -2.1952  -1.6585  -1.0945   1.0433   1.1743
     1.2226   1.2949   1.5712   1.7989   2.1676   2.3515   2.6921   2.7219

          k =-0.2690 0.1553 0.3590 (  7298 PWs)   bands (ev):

   -36.9750 -36.9731 -18.0082 -17.9972 -17.9424 -17.9126 -17.8983 -17.8791
   -16.8649 -16.8065 -14.4708 -14.4238 -14.4128 -14.3537  -4.6262  -4.5988
    -2.3988  -2.2776  -2.2724  -2.1613  -1.6234  -1.1418   1.1340   1.2551
     1.3203   1.3449   1.5425   1.8539   2.0031   2.3569   2.6177   2.6849

          k = 0.6725 0.6988 0.0000 (  7295 PWs)   bands (ev):

   -36.9747 -36.9734 -18.0065 -18.0024 -17.9467 -17.9214 -17.8914 -17.8804
   -16.8331 -16.8202 -14.4696 -14.4361 -14.4036 -14.3627  -4.6151  -4.5662
    -2.4102  -2.3219  -2.2452  -2.1402  -1.5323  -1.2206   1.0635   1.1679
     1.3479   1.3896   1.5557   1.8018   1.9948   2.2992   2.6655   2.6884

          k = 0.5380 0.6212 0.0513 (  7292 PWs)   bands (ev):

   -36.9743 -36.9738 -18.0026 -17.9972 -17.9511 -17.9359 -17.8874 -17.8842
   -16.8206 -16.8159 -14.4714 -14.4546 -14.3878 -14.3689  -4.5769  -4.5583
    -2.3937  -2.3759  -2.2210  -2.1470  -1.4192  -1.3004   0.9971   1.0251
     1.3761   1.3988   1.6078   1.6898   2.1007   2.2287   2.6990   2.7222

          k = 0.4035 0.5435 0.1026 (  7299 PWs)   bands (ev):

   -36.9742 -36.9738 -17.9954 -17.9897 -17.9553 -17.9445 -17.8918 -17.8844
   -16.8214 -16.8106 -14.4733 -14.4602 -14.3813 -14.3712  -4.5730  -4.5411
    -2.4321  -2.3383  -2.2011  -2.1781  -1.3953  -1.3072   0.9321   0.9933
     1.3170   1.3808   1.6253   1.7244   2.1595   2.2124   2.7112   2.7507

          k = 0.2690 0.4659 0.1539 (  7294 PWs)   bands (ev):

   -36.9747 -36.9734 -17.9923 -17.9835 -17.9581 -17.9355 -17.9000 -17.8858
   -16.8272 -16.8150 -14.4700 -14.4503 -14.3931 -14.3667  -4.5871  -4.5421
    -2.4266  -2.3197  -2.2204  -2.1839  -1.5056  -1.2086   0.9481   1.0542
     1.2625   1.3267   1.6302   1.7909   2.1386   2.2693   2.7128   2.7461

          k = 0.6725-0.3882-0.3590 (  7266 PWs)   bands (ev):

   -36.9747 -36.9734 -18.0210 -17.9982 -17.9497 -17.9195 -17.8863 -17.8775
   -16.8406 -16.8055 -14.4796 -14.4418 -14.3893 -14.3665  -4.6302  -4.5302
    -2.4540  -2.2714  -2.2697  -2.1133  -1.5144  -1.2555   1.0248   1.2162
     1.3336   1.4386   1.5329   1.7333   1.9841   2.3071   2.6222   2.7309

          k = 0.5380-0.4659-0.3077 (  7270 PWs)   bands (ev):

   -36.9745 -36.9736 -18.0194 -17.9944 -17.9530 -17.9268 -17.8850 -17.8790
   -16.8393 -16.7975 -14.4841 -14.4499 -14.3785 -14.3707  -4.6132  -4.5189
    -2.4512  -2.3235  -2.2301  -2.1173  -1.4699  -1.2793   0.9722   1.1170
     1.3752   1.4502   1.5419   1.6705   2.0501   2.2792   2.6382   2.7576

          k = 0.4035-0.5435-0.2564 (  7292 PWs)   bands (ev):

   -36.9743 -36.9738 -18.0030 -17.9901 -17.9566 -17.9409 -17.8869 -17.8838
   -16.8228 -16.8083 -14.4765 -14.4623 -14.3772 -14.3706  -4.5778  -4.5362
    -2.4147  -2.3709  -2.2084  -2.1505  -1.4096  -1.3001   0.9377   1.0009
     1.3706   1.3826   1.6124   1.6760   2.1325   2.2387   2.6997   2.7527

          k = 0.2690-0.6212-0.2051 (  7280 PWs)   bands (ev):

   -36.9740 -36.9740 -17.9852 -17.9852 -17.9532 -17.9532 -17.8919 -17.8919
   -16.8166 -16.8166 -14.4633 -14.4633 -14.3792 -14.3792  -4.5571  -4.5571
    -2.3837  -2.3837  -2.1951  -2.1951  -1.3459  -1.3459   0.9544   0.9544
     1.3152   1.3152   1.7050   1.7050   2.1918   2.1918   2.7397   2.7397

          k = 0.5380-0.3106-0.2564 (  7266 PWs)   bands (ev):

   -36.9747 -36.9734 -18.0227 -17.9935 -17.9527 -17.9210 -17.8881 -17.8779
   -16.8466 -16.7922 -14.4888 -14.4429 -14.3829 -14.3682  -4.6259  -4.5025
    -2.4782  -2.2726  -2.2506  -2.1164  -1.5077  -1.2579   0.9691   1.1794
     1.3274   1.3631   1.5415   1.7905   1.9950   2.3113   2.6170   2.7711

          k = 0.4035-0.3882-0.2051 (  7295 PWs)   bands (ev):

   -36.9747 -36.9734 -18.0088 -17.9925 -17.9544 -17.9261 -17.8934 -17.8802
   -16.8318 -16.8089 -14.4804 -14.4468 -14.3904 -14.3639  -4.6096  -4.5184
    -2.4592  -2.3016  -2.2269  -2.1445  -1.5198  -1.2244   0.9565   1.1184
     1.3013   1.3401   1.5682   1.8210   2.0422   2.3079   2.6598   2.7590

          k = 0.4035-0.2329-0.1539 (  7298 PWs)   bands (ev):

   -36.9750 -36.9730 -17.9993 -17.9974 -17.9518 -17.9170 -17.9020 -17.8803
   -16.8326 -16.8212 -14.4772 -14.4305 -14.4099 -14.3561  -4.6154  -4.5341
    -2.4569  -2.2765  -2.2335  -2.1635  -1.6106  -1.1523   1.0160   1.1888
     1.2482   1.2887   1.5501   1.8863   2.0395   2.3546   2.6754   2.7230

          k =-0.0000 0.0000 0.3077 (  7303 PWs)   bands (ev):

   -36.9755 -36.9726 -18.0210 -17.9712 -17.9212 -17.9212 -17.8892 -17.8892
   -16.9456 -16.7620 -14.4753 -14.4753 -14.3459 -14.3459  -4.6869  -4.6213
    -2.2892  -2.2892  -2.2674  -2.2674  -1.7585  -0.9912   1.2131   1.2131
     1.3609   1.3609   1.6759   1.6759   2.3474   2.3474   2.4397   2.7619

          k =-0.1345-0.0776 0.3590 (  7298 PWs)   bands (ev):

   -36.9752 -36.9729 -18.0167 -17.9787 -17.9254 -17.9139 -17.9009 -17.8875
   -16.9159 -16.7786 -14.4668 -14.4568 -14.3656 -14.3583  -4.6679  -4.6238
    -2.3093  -2.2909  -2.2751  -2.2365  -1.6722  -1.0706   1.2133   1.2297
     1.2826   1.4019   1.6055   1.7956   2.2053   2.3163   2.5103   2.7294

          k = 0.8070 0.4659 0.0000 (  7306 PWs)   bands (ev):

   -36.9747 -36.9734 -18.0116 -17.9856 -17.9294 -17.9157 -17.9091 -17.8883
   -16.8771 -16.7919 -14.4611 -14.4331 -14.3913 -14.3760  -4.6326  -4.5994
    -2.3579  -2.2866  -2.2630  -2.2163  -1.5443  -1.1881   1.1577   1.1794
     1.2679   1.4146   1.5531   1.9035   2.0571   2.2382   2.6023   2.7152

          k = 0.6725 0.3882 0.0513 (  7299 PWs)   bands (ev):

   -36.9741 -36.9739 -18.0094 -17.9874 -17.9415 -17.9218 -17.9045 -17.8884
   -16.8533 -16.7932 -14.4685 -14.4155 -14.4104 -14.3815  -4.6122  -4.5519
    -2.4274  -2.2546  -2.2459  -2.2095  -1.4043  -1.3196   1.0292   1.1274
     1.3093   1.3302   1.6022   1.9603   1.9630   2.2052   2.6481   2.7377

          k = 0.5380 0.3106 0.1026 (  7287 PWs)   bands (ev):

   -36.9745 -36.9736 -18.0080 -17.9893 -17.9514 -17.9209 -17.9005 -17.8859
   -16.8408 -16.7996 -14.4763 -14.4333 -14.3971 -14.3744  -4.6121  -4.5178
    -2.4684  -2.2565  -2.2300  -2.1827  -1.4651  -1.2715   0.9634   1.1274
     1.2620   1.3152   1.6068   1.9497   1.9582   2.2672   2.6541   2.7616

          k =-0.1345 0.0776 0.4103 (  7305 PWs)   bands (ev):

   -36.9750 -36.9731 -18.0141 -17.9861 -17.9280 -17.9066 -17.9047 -17.8865
   -16.8991 -16.7926 -14.4610 -14.4429 -14.3834 -14.3600  -4.6636  -4.6360
    -2.3300  -2.2849  -2.2664  -2.2213  -1.6192  -1.1215   1.2077   1.2512
     1.3226   1.3349   1.6772   1.8326   2.1208   2.3030   2.5200   2.6967

          k = 0.8070 0.6212 0.0513 (  7294 PWs)   bands (ev):

   -36.9747 -36.9734 -18.0099 -17.9948 -17.9319 -17.9164 -17.8987 -17.8858
   -16.8664 -16.8071 -14.4560 -14.4231 -14.4078 -14.3708  -4.6323  -4.6243
    -2.3465  -2.3216  -2.2419  -2.1975  -1.5284  -1.2115   1.1735   1.2136
     1.2968   1.3990   1.6215   1.8963   2.0070   2.2482   2.5930   2.6768

          k = 0.6725 0.5435 0.1026 (  7299 PWs)   bands (ev):

   -36.9742 -36.9738 -18.0091 -17.9963 -17.9368 -17.9302 -17.8930 -17.8855
   -16.8451 -16.8056 -14.4633 -14.4314 -14.4012 -14.3766  -4.6074  -4.5800
    -2.3953  -2.3290  -2.2069  -2.1926  -1.4223  -1.3094   1.0789   1.1172
     1.3456   1.4316   1.5658   1.8086   2.0674   2.1866   2.6466   2.7025

          k = 0.5380 0.4659 0.1539 (  7292 PWs)   bands (ev):

   -36.9743 -36.9738 -18.0114 -17.9922 -17.9493 -17.9308 -17.8906 -17.8836
   -16.8394 -16.7977 -14.4782 -14.4430 -14.3882 -14.3731  -4.6039  -4.5301
    -2.4504  -2.3084  -2.2063  -2.1688  -1.4118  -1.3184   0.9707   1.0874
     1.3526   1.3709   1.5840   1.7751   2.0674   2.2319   2.6562   2.7515

          k = 0.8070-0.4659-0.3077 (  7287 PWs)   bands (ev):

   -36.9745 -36.9736 -18.0072 -18.0042 -17.9377 -17.9170 -17.8915 -17.8847
   -16.8375 -16.8283 -14.4531 -14.4277 -14.4068 -14.3747  -4.6364  -4.6017
    -2.3923  -2.2866  -2.2565  -2.1669  -1.4842  -1.2648   1.1306   1.2506
     1.3276   1.3666   1.6648   1.8365   1.9672   2.2478   2.6370   2.6397

          k = 0.6725-0.5435-0.2564 (  7292 PWs)   bands (ev):

   -36.9743 -36.9738 -18.0108 -18.0011 -17.9413 -17.9267 -17.8871 -17.8841
   -16.8322 -16.8177 -14.4612 -14.4428 -14.3908 -14.3783  -4.6145  -4.5733
    -2.4056  -2.3316  -2.2184  -2.1595  -1.4248  -1.3179   1.0683   1.1435
     1.3864   1.4266   1.6163   1.7026   2.0601   2.2088   2.6465   2.6896

          k = 0.5380-0.6212-0.2051 (  7256 PWs)   bands (ev):

   -36.9740 -36.9740 -18.0022 -18.0022 -17.9431 -17.9431 -17.8843 -17.8843
   -16.8177 -16.8177 -14.4644 -14.4644 -14.3772 -14.3772  -4.5683  -4.5683
    -2.3899  -2.3899  -2.1772  -2.1772  -1.3607  -1.3607   1.0116   1.0116
     1.4228   1.4228   1.6163   1.6163   2.1629   2.1629   2.7054   2.7054

          k = 0.6725-0.3882-0.2051 (  7298 PWs)   bands (ev):

   -36.9743 -36.9738 -18.0185 -17.9944 -17.9459 -17.9221 -17.8896 -17.8831
   -16.8481 -16.7966 -14.4761 -14.4324 -14.3922 -14.3766  -4.6256  -4.5389
    -2.4482  -2.2643  -2.2547  -2.1510  -1.4214  -1.3270   1.0222   1.1733
     1.3368   1.4439   1.5316   1.7986   2.0097   2.2372   2.6208   2.7333

          k = 0.0000 0.0000 0.4616 (  7309 PWs)   bands (ev):

   -36.9748 -36.9733 -18.0133 -17.9870 -17.9142 -17.9142 -17.8969 -17.8969
   -16.8987 -16.7999 -14.4454 -14.4454 -14.3754 -14.3754  -4.6854  -4.6505
    -2.2796  -2.2796  -2.2676  -2.2676  -1.5685  -1.1557   1.2420   1.2420
     1.3170   1.3170   1.8269   1.8269   2.1861   2.1861   2.4997   2.6731

          k = 0.9414 0.5435 0.1026 (  7289 PWs)   bands (ev):

   -36.9745 -36.9736 -18.0102 -17.9935 -17.9200 -17.9111 -17.9038 -17.8915
   -16.8740 -16.8135 -14.4422 -14.4249 -14.3968 -14.3835  -4.6671  -4.6451
    -2.3132  -2.2952  -2.2506  -2.2366  -1.4893  -1.2364   1.2413   1.2493
     1.2624   1.3550   1.7533   1.9621   2.0271   2.1766   2.5505   2.6517

          k = 0.8070 0.4659 0.1539 (  7299 PWs)   bands (ev):

   -36.9742 -36.9739 -18.0115 -17.9966 -17.9308 -17.9212 -17.8958 -17.8871
   -16.8529 -16.8120 -14.4525 -14.4173 -14.4060 -14.3866  -4.6388  -4.6022
    -2.3805  -2.2877  -2.2418  -2.1978  -1.4045  -1.3309   1.1375   1.2080
     1.3067   1.4274   1.6180   1.8861   2.0344   2.1610   2.6053   2.6736

          k = 0.9414-0.5435-0.2564 (  7295 PWs)   bands (ev):

   -36.9743 -36.9738 -18.0057 -17.9999 -17.9208 -17.9124 -17.8984 -17.8941
   -16.8555 -16.8308 -14.4308 -14.4136 -14.4124 -14.3906  -4.6591  -4.6562
    -2.3215  -2.2917  -2.2525  -2.2262  -1.4281  -1.2965   1.2244   1.2812
     1.2947   1.3038   1.8380   1.9387   1.9996   2.1438   2.5777   2.6179

          k = 0.8070-0.6212-0.2051 (  7280 PWs)   bands (ev):

   -36.9740 -36.9740 -18.0044 -18.0044 -17.9247 -17.9247 -17.8909 -17.8909
   -16.8353 -16.8353 -14.4339 -14.4339 -14.3951 -14.3951  -4.6319  -4.6319
    -2.3369  -2.3369  -2.2135  -2.2135  -1.3670  -1.3670   1.1892   1.1892
     1.3534   1.3534   1.7760   1.7760   2.1063   2.1063   2.6261   2.6261

          k = 0.0000-0.0000-0.6154 (  7336 PWs)   bands (ev):

   -36.9741 -36.9741 -18.0018 -18.0018 -17.9057 -17.9057 -17.9057 -17.9057
   -16.8475 -16.8475 -14.4103 -14.4103 -14.4103 -14.4103  -4.6737  -4.6737
    -2.2717  -2.2717  -2.2717  -2.2717  -1.3567  -1.3567   1.2772   1.2772
     1.2772   1.2772   2.0036   2.0036   2.0036   2.0036   2.5804   2.5804

     highest occupied level (ev):     2.8510

!    total energy              =    -367.17466356 Ry
     Harris-Foulkes estimate   =    -367.17466459 Ry
     estimated scf accuracy    <       0.00000139 Ry

     The total energy is the sum of the following terms:

     one-electron contribution =    -166.20406954 Ry
     hartree contribution      =     108.18538659 Ry
     xc contribution           =     -74.05023237 Ry
     ewald contribution        =    -235.10574824 Ry

     convergence has been achieved in  11 iterations

     Forces acting on atoms (cartesian axes, Ry/au):

     atom    1 type  1   force =     0.00000000    0.00000000    0.00000000
     atom    2 type  1   force =    -0.00000000   -0.00000000   -0.00000000
     atom    3 type  2   force =    -0.00000000    0.00000000    0.00000000
     atom    4 type  2   force =     0.00000000   -0.00000000   -0.00000000
     atom    5 type  3   force =    -0.06972908    0.12077430    0.00000000
     atom    6 type  3   force =     0.13945815    0.00000000   -0.00000000
     atom    7 type  3   force =    -0.06972908   -0.12077430   -0.00000000
     atom    8 type  3   force =    -0.13945815   -0.00000000    0.00000000
     atom    9 type  3   force =     0.06972908    0.12077430    0.00000000
     atom   10 type  3   force =     0.06972908   -0.12077430   -0.00000000

     Total force =     0.341601     Total SCF correction =     0.002529


     Computing stress (Cartesian axis) and pressure

          total   stress  (Ry/bohr**3)                   (kbar)     P= -208.81
  -0.00204950  -0.00000000  -0.00000000       -301.49     -0.00     -0.00
   0.00000000  -0.00204950  -0.00000000          0.00   -301.49     -0.00
  -0.00000000  -0.00000000  -0.00015930         -0.00     -0.00    -23.43


     number of scf cycles    =   2
     number of bfgs steps    =   1

     enthalpy old            =    -366.4378823453 Ry
     enthalpy new            =    -367.1746635576 Ry

     CASE: enthalpy_new < enthalpy_old

     new trust radius        =       0.7382984028 bohr
     new conv_thr            =       0.0000100000 Ry

     new unit-cell volume =    818.22862 a.u.^3 (   121.24897 Ang^3 )
     density =      2.74149 g/cm^3

CELL_PARAMETERS (alat= 12.00000000)
   0.411775241  -0.237738546   0.806157402
   0.000000000   0.475477092   0.806157402
  -0.411775241  -0.237738546   0.806157402

ATOMIC_POSITIONS (crystal)
Ca       0.500000000   0.500000000   0.500000000
Ca       0.000000000  -0.000000000   0.000000000
C        0.250000000   0.250000000   0.250000000
C        0.750000000   0.750000000   0.750000000
O        0.462394927   1.037605073   0.250000000
O        1.037605073   0.250000000   0.462394927
O        0.250000000   0.462394927   1.037605073
O       -0.037605073   0.750000000   0.537605073
O        0.750000000   0.537605073  -0.037605073
O        0.537605073  -0.037605073   0.750000000



     Writing output data file CCO_k.save/
     NEW-OLD atomic charge density approx. for the potential

     Check: negative core charge=   -0.000003

     negative rho (up, down):  1.839E-03 0.000E+00
     extrapolated charge   45.85646, renormalised to   64.00000

     total cpu time spent up to now is      539.3 secs

     Self-consistent Calculation

     iteration #  1     ecut=    50.00 Ry     beta= 0.70
     CG style diagonalization
     c_bands:  5 eigenvalues not converged
     c_bands:  4 eigenvalues not converged
     c_bands:  2 eigenvalues not converged
     c_bands:  4 eigenvalues not converged
     c_bands:  4 eigenvalues not converged
     ethr =  1.00E-06,  avg # of iterations = 20.4

     negative rho (up, down):  2.826E-04 0.000E+00

     total cpu time spent up to now is      658.8 secs

     total energy              =    -354.01098970 Ry
     Harris-Foulkes estimate   =    -406.14423920 Ry
     estimated scf accuracy    <      10.95454550 Ry

     iteration #  2     ecut=    50.00 Ry     beta= 0.70
     CG style diagonalization
     ethr =  1.00E-02,  avg # of iterations =  6.2

     total cpu time spent up to now is      696.8 secs

     total energy              =    -360.23123300 Ry
     Harris-Foulkes estimate   =    -377.03498985 Ry
     estimated scf accuracy    <      53.01426101 Ry

     iteration #  3     ecut=    50.00 Ry     beta= 0.70
     CG style diagonalization
     ethr =  1.00E-02,  avg # of iterations =  4.7

     total cpu time spent up to now is      725.6 secs

     total energy              =    -366.53355781 Ry
     Harris-Foulkes estimate   =    -367.74453575 Ry
     estimated scf accuracy    <       3.28685881 Ry

     iteration #  4     ecut=    50.00 Ry     beta= 0.70
     CG style diagonalization
     ethr =  5.14E-03,  avg # of iterations =  3.3

     total cpu time spent up to now is      746.5 secs

     total energy              =    -366.48933316 Ry
     Harris-Foulkes estimate   =    -366.85872868 Ry
     estimated scf accuracy    <       1.08178400 Ry

     iteration #  5     ecut=    50.00 Ry     beta= 0.70
     CG style diagonalization
     ethr =  1.69E-03,  avg # of iterations =  3.4

     total cpu time spent up to now is      767.7 secs

     total energy              =    -366.59621269 Ry
     Harris-Foulkes estimate   =    -366.64245874 Ry
     estimated scf accuracy    <       0.14559299 Ry

     iteration #  6     ecut=    50.00 Ry     beta= 0.70
     CG style diagonalization
     ethr =  2.27E-04,  avg # of iterations =  3.6

     total cpu time spent up to now is      790.4 secs

     total energy              =    -366.62605945 Ry
     Harris-Foulkes estimate   =    -366.63285340 Ry
     estimated scf accuracy    <       0.01834649 Ry

     iteration #  7     ecut=    50.00 Ry     beta= 0.70
     CG style diagonalization
     ethr =  2.87E-05,  avg # of iterations =  3.8

     total cpu time spent up to now is      813.7 secs

     total energy              =    -366.62944318 Ry
     Harris-Foulkes estimate   =    -366.62997809 Ry
     estimated scf accuracy    <       0.00186752 Ry

     iteration #  8     ecut=    50.00 Ry     beta= 0.70
     CG style diagonalization
     ethr =  2.92E-06,  avg # of iterations =  3.9

     total cpu time spent up to now is      837.8 secs

     total energy              =    -366.62971378 Ry
     Harris-Foulkes estimate   =    -366.62992820 Ry
     estimated scf accuracy    <       0.00045186 Ry

     iteration #  9     ecut=    50.00 Ry     beta= 0.70
     CG style diagonalization
     ethr =  7.06E-07,  avg # of iterations =  3.6

     total cpu time spent up to now is      860.3 secs

     total energy              =    -366.62976486 Ry
     Harris-Foulkes estimate   =    -366.62979884 Ry
     estimated scf accuracy    <       0.00005153 Ry

     iteration # 10     ecut=    50.00 Ry     beta= 0.70
     CG style diagonalization
     ethr =  8.05E-08,  avg # of iterations =  4.0

     total cpu time spent up to now is      885.1 secs

     End of self-consistent calculation

          k = 0.0000 0.0000 0.0000 (  7391 PWs)   bands (ev):

   -33.8310 -33.8169 -19.3225 -19.2027 -15.2637 -15.2637 -14.8739 -14.8649
   -14.8649 -14.8234 -14.8234 -14.8172 -14.2679 -14.2679  -2.8332  -2.3286
    -1.8615  -1.6904  -1.4062  -1.4062  -1.2054  -1.2054   2.9009   2.9009
     3.1876   3.1876   3.3914   3.3914   4.3345   4.3345   5.5626   5.9621

          k =-0.1518-0.0876 0.0517 (  7327 PWs)   bands (ev):

   -33.8304 -33.8174 -19.3212 -19.2052 -15.2673 -15.2267 -15.0573 -14.9373
   -14.8462 -14.8178 -14.7390 -14.6446 -14.3208 -14.2745  -2.7961  -2.2779
    -1.9065  -1.7164  -1.3808  -1.3780  -1.2234  -1.2020   2.8968   2.9077
     3.1778   3.2357   3.2959   3.3855   4.2712   4.2826   5.6271   5.9288

          k =-0.3036-0.1753 0.1034 (  7303 PWs)   bands (ev):

   -33.8288 -33.8188 -19.3144 -19.2157 -15.2778 -15.1740 -15.1665 -14.9955
   -14.8394 -14.8029 -14.6533 -14.4932 -14.4332 -14.2963  -2.6968  -2.2041
    -1.9637  -1.7596  -1.3331  -1.3266  -1.2533  -1.1932   2.8785   2.9152
     3.0243   3.0908   3.4068   3.4341   4.1260   4.1614   5.7632   5.8641

          k =-0.4553-0.2629 0.1551 (  7309 PWs)   bands (ev):

   -33.8264 -33.8210 -19.2965 -19.2378 -15.2607 -15.2019 -15.1686 -15.0535
   -14.8265 -14.7786 -14.5968 -14.4626 -14.4412 -14.3416  -2.5648  -2.2828
    -1.8868  -1.7791  -1.2999  -1.2879  -1.2575  -1.2015   2.7796   2.8229
     2.9498   2.9726   3.5371   3.5467   3.9914   4.0299   5.8336   5.8543

          k = 0.6071 0.3505-0.2067 (  7336 PWs)   bands (ev):

   -33.8237 -33.8237 -19.2681 -19.2681 -15.1952 -15.1952 -15.1664 -15.1664
   -14.8041 -14.8041 -14.4921 -14.4921 -14.4082 -14.4082  -2.4232  -2.4232
    -1.8046  -1.8046  -1.2743  -1.2743  -1.2404  -1.2404   2.7332   2.7332
     2.9492   2.9492   3.5977   3.5977   3.9517   3.9517   5.8543   5.8543

          k =-0.1518 0.0876 0.1034 (  7323 PWs)   bands (ev):

   -33.8303 -33.8176 -19.3203 -19.2064 -15.2518 -15.2406 -15.0225 -15.0142
   -14.8224 -14.8197 -14.7015 -14.6551 -14.3057 -14.2975  -2.7938  -2.3021
    -1.8821  -1.7157  -1.3890  -1.3689  -1.2306  -1.1952   2.9025   2.9070
[...]

          k =-0.3145-0.1816 0.2303 (  5099 PWs)   bands (ev):

   -33.7045 -33.6975 -17.0947 -17.0608 -15.1304 -15.0212 -14.9771 -14.7788
   -14.7114 -14.6546 -13.8000 -13.6070 -13.5983 -13.4298  -3.1411  -3.0484
    -1.5171  -1.4567  -1.3485  -1.2980  -1.2519  -0.6738   2.3840   2.5290
     2.5379   2.6132   2.7333   2.8613   3.2383   3.2979   4.1216   4.2148

          k = 0.7863 0.4540-0.0921 (  5102 PWs)   bands (ev):

   -33.7023 -33.6994 -17.0725 -17.0700 -15.1085 -15.0364 -14.9831 -14.8873
   -14.6829 -14.6511 -13.7193 -13.6092 -13.5935 -13.4719  -3.0524  -2.9647
    -1.4922  -1.4853  -1.3077  -1.2491  -1.0503  -0.8040   2.2182   2.2755
     2.5212   2.5856   2.7572   2.8852   3.0809   3.1656   4.2408   4.2949

          k = 0.6291 0.3632-0.0461 (  5119 PWs)   bands (ev):

   -33.7016 -33.7000 -17.1071 -17.0270 -15.1050 -15.0994 -14.9300 -14.9168
   -14.6898 -14.6295 -13.7129 -13.6695 -13.5073 -13.5002  -3.0345  -2.9024
    -1.5670  -1.4211  -1.2872  -1.1986  -0.9720  -0.8822   2.0627   2.2306
     2.4642   2.6151   2.7425   2.9500   3.0123   3.1464   4.2421   4.3698

          k = 0.4718 0.2724 0.0000 (  5095 PWs)   bands (ev):

   -33.7038 -33.6979 -17.1296 -17.0065 -15.1550 -15.0800 -14.9444 -14.8152
   -14.7063 -14.6384 -13.7866 -13.6245 -13.5540 -13.4450  -3.0587  -2.9488
    -1.5728  -1.3823  -1.2754  -1.2462  -1.1809  -0.7559   2.1325   2.3658
     2.4845   2.6435   2.6560   2.9234   3.0837   3.2503   4.2096   4.3332

          k = 0.3145 0.1816 0.0461 (  5100 PWs)   bands (ev):

   -33.7057 -33.6964 -17.1207 -17.0320 -15.1201 -15.0656 -14.8926 -14.7933
   -14.7178 -14.7009 -13.7833 -13.6621 -13.5338 -13.4420  -3.0987  -3.0718
    -1.5419  -1.4478  -1.4198  -1.2987  -1.2489  -0.6200   2.4007   2.4289
     2.6100   2.6272   2.6864   2.8456   3.2519   3.3932   4.1459   4.2026

          k =-0.1573 0.0908 0.2303 (  5114 PWs)   bands (ev):

   -33.7058 -33.6965 -17.0948 -17.0748 -15.1147 -15.0683 -14.8830 -14.7843
   -14.6769 -14.6650 -13.8097 -13.7596 -13.4729 -13.4384  -3.2487  -3.1035
    -1.5353  -1.4856  -1.4633  -1.3252  -1.2866  -0.5788   2.4015   2.4501
     2.6623   2.7031   2.8970   2.9898   3.3576   3.4785   3.9232   4.1541

          k =-0.3145 0.0000 0.2764 (  5101 PWs)   bands (ev):

   -33.7046 -33.6975 -17.1035 -17.0576 -15.1162 -15.0540 -14.9139 -14.7602
   -14.7447 -14.6706 -13.7695 -13.6878 -13.5258 -13.4539  -3.1538  -3.0938
    -1.4819  -1.4657  -1.4045  -1.2814  -1.2545  -0.6838   2.4036   2.4653
     2.6046   2.6331   2.7763   2.9382   3.1958   3.3754   4.0858   4.1756

          k = 0.7863 0.6356-0.0461 (  5094 PWs)   bands (ev):

   -33.7028 -33.6990 -17.0870 -17.0618 -15.1105 -15.0766 -14.9062 -14.8509
   -14.7048 -14.6733 -13.7464 -13.6650 -13.5367 -13.4601  -3.0610  -3.0145
    -1.4736  -1.4456  -1.3870  -1.2565  -1.0733  -0.7826   2.2738   2.3340
     2.5578   2.5777   2.7151   2.8917   3.0708   3.2415   4.2298   4.2561

          k = 0.6291 0.5448 0.0000 (  5110 PWs)   bands (ev):

   -33.7008 -33.7008 -17.0956 -17.0425 -15.1346 -15.0518 -14.9698 -14.8491
   -14.6971 -14.6564 -13.7649 -13.6412 -13.5472 -13.4442  -3.0290  -2.9094
    -1.5459  -1.4093  -1.3397  -1.2132  -0.9135  -0.8916   2.1012   2.2211
     2.4591   2.5864   2.7142   2.8460   3.0836   3.1715   4.2633   4.3656

          k = 0.4718 0.4540 0.0461 (  5105 PWs)   bands (ev):

   -33.7027 -33.6989 -17.1280 -17.0040 -15.1831 -15.0805 -14.9569 -14.7777
   -14.7159 -14.6216 -13.8427 -13.6254 -13.5502 -13.4083  -3.0483  -2.8847
    -1.5816  -1.3600  -1.3046  -1.2191  -1.0558  -0.8105   2.0443   2.3100
     2.4085   2.6031   2.6790   2.8641   3.1005   3.2139   4.2261   4.4054

          k = 0.3145 0.3632 0.0921 (  5107 PWs)   bands (ev):

   -33.7044 -33.6974 -17.1314 -17.0099 -15.1590 -15.0769 -14.9221 -14.7708
   -14.7206 -14.6679 -13.8001 -13.6622 -13.5242 -13.4342  -3.0693  -2.9887
    -1.5479  -1.3938  -1.3484  -1.2414  -1.2144  -0.7151   2.2190   2.4328
     2.5086   2.5922   2.6576   2.8793   3.1262   3.3188   4.2071   4.2924

          k =-0.3145 0.1816 0.3224 (  5103 PWs)   bands (ev):

   -33.7041 -33.6980 -17.1243 -17.0331 -15.1432 -15.0405 -14.8719 -14.7954
   -14.7507 -14.6770 -13.7529 -13.6981 -13.5038 -13.4734  -3.1304  -3.0745
    -1.4993  -1.4204  -1.3977  -1.2599  -1.1855  -0.7534   2.3369   2.4020
     2.5838   2.6533   2.7819   2.9870   3.0524   3.3722   4.1488   4.1706

          k = 0.7863 0.8172 0.0000 (  5110 PWs)   bands (ev):

   -33.7030 -33.6988 -17.1251 -17.0234 -15.1605 -15.0727 -14.8454 -14.8044
   -14.7327 -14.6871 -13.7889 -13.7031 -13.4901 -13.4459  -3.0966  -2.9821
    -1.5068  -1.4214  -1.3611  -1.2459  -1.0530  -0.8135   2.1893   2.3307
     2.5416   2.6670   2.7315   2.8513   3.0399   3.2929   4.1860   4.2953

          k = 0.6291 0.7264 0.0461 (  5109 PWs)   bands (ev):

   -33.7016 -33.7000 -17.0907 -17.0514 -15.1403 -15.0501 -14.9029 -14.8432
   -14.7208 -14.6978 -13.7785 -13.6617 -13.5169 -13.4401  -2.9903  -2.9500
    -1.4853  -1.4620  -1.3560  -1.2299  -0.9182  -0.8447   2.1185   2.1949
     2.5214   2.5604   2.6851   2.7252   3.1166   3.2226   4.2971   4.3488

          k = 0.4718 0.6356 0.0921 (  5095 PWs)   bands (ev):

   -33.7013 -33.7001 -17.0938 -17.0417 -15.1400 -15.0781 -14.9546 -14.7911
   -14.7260 -14.6741 -13.7951 -13.6752 -13.5070 -13.4237  -2.9790  -2.8985
    -1.5453  -1.4127  -1.3224  -1.2309  -0.9209  -0.8378   2.0813   2.1856
     2.4353   2.5182   2.6603   2.7181   3.1715   3.2050   4.3140   4.4005

          k = 0.3145 0.5448 0.1382 (  5099 PWs)   bands (ev):

   -33.7027 -33.6989 -17.1148 -17.0197 -15.1780 -15.0163 -15.0076 -14.7981
   -14.7023 -14.6399 -13.8328 -13.6129 -13.5593 -13.4126  -3.0161  -2.9172
    -1.5481  -1.4108  -1.2938  -1.2424  -1.0474  -0.7929   2.1073   2.3182
     2.4404   2.5053   2.6657   2.8059   3.1345   3.2380   4.2643   4.3865

          k = 0.7863-0.4540-0.3224 (  5110 PWs)   bands (ev):

   -33.7028 -33.6989 -17.1517 -16.9879 -15.2055 -15.1413 -14.7691 -14.7579
   -14.7422 -14.6448 -13.8276 -13.8258 -13.4178 -13.4137  -3.1383  -2.8818
    -1.5696  -1.3870  -1.2891  -1.2353  -1.0048  -0.8611   2.0487   2.2850
     2.5417   2.7093   2.7246   2.7961   3.0560   3.2750   4.1399   4.3871

          k = 0.6291-0.5448-0.2764 (  5109 PWs)   bands (ev):

   -33.7022 -33.6993 -17.1418 -16.9938 -15.1798 -15.1616 -14.8118 -14.7310
   -14.7283 -14.6803 -13.8573 -13.7727 -13.4360 -13.3996  -3.0903  -2.8462
    -1.5631  -1.4123  -1.2833  -1.2309  -0.9432  -0.8535   1.9875   2.2300
     2.5137   2.6496   2.6815   2.7313   3.1229   3.2310   4.1878   4.4364

          k = 0.4718-0.6356-0.2303 (  5110 PWs)   bands (ev):

   -33.7015 -33.7000 -17.1022 -17.0339 -15.1566 -15.0782 -14.9074 -14.8197
   -14.7120 -14.6825 -13.8109 -13.6847 -13.4943 -13.4179  -2.9910  -2.8865
    -1.5157  -1.4649  -1.2997  -1.2379  -0.9014  -0.8415   2.0494   2.1877
     2.4630   2.5323   2.6538   2.6849   3.1723   3.2183   4.2992   4.4139

          k = 0.3145-0.7264-0.1843 (  5112 PWs)   bands (ev):

   -33.7007 -33.7007 -17.0672 -17.0672 -15.1059 -15.1059 -14.9047 -14.9047
   -14.6763 -14.6763 -13.7264 -13.7264 -13.4696 -13.4696  -2.9389  -2.9389
    -1.4954  -1.4954  -1.2579  -1.2579  -0.8877  -0.8877   2.1571   2.1571
     2.4473   2.4473   2.7078   2.7078   3.1858   3.1858   4.3573   4.3573

          k = 0.6291-0.3632-0.2303 (  5093 PWs)   bands (ev):

   -33.7027 -33.6989 -17.1613 -16.9672 -15.2094 -15.2064 -14.7750 -14.7383
   -14.7292 -14.5864 -13.9161 -13.8186 -13.4112 -13.3749  -3.1259  -2.8063
    -1.6020  -1.3742  -1.2408  -1.2299  -0.9806  -0.8647   1.9296   2.2454
     2.4648   2.6929   2.7241   2.7811   3.1087   3.2292   4.1378   4.4665

          k = 0.4718-0.4540-0.1843 (  5113 PWs)   bands (ev):

   -33.7028 -33.6987 -17.1440 -16.9876 -15.2083 -15.1256 -14.8780 -14.7449
   -14.7198 -14.6207 -13.8996 -13.6945 -13.4916 -13.3794  -3.0796  -2.8533
    -1.5760  -1.3903  -1.2754  -1.2330  -1.0179  -0.8203   1.9954   2.2892
     2.4264   2.6435   2.6813   2.8073   3.1030   3.2503   4.1922   4.4354

          k = 0.4718-0.2724-0.1382 (  5106 PWs)   bands (ev):

   -33.7039 -33.6978 -17.1486 -16.9863 -15.1749 -15.1446 -14.8584 -14.7467
   -14.7318 -14.6473 -13.8417 -13.7071 -13.4887 -13.4095  -3.0998  -2.9089
    -1.5737  -1.3798  -1.2981  -1.2378  -1.1294  -0.7776   2.0754   2.3929
     2.4231   2.6654   2.6942   2.9791   2.9899   3.2988   4.1694   4.3685

          k = 0.0000 0.0000 0.2764 (  5115 PWs)   bands (ev):

   -33.7057 -33.6968 -17.0911 -17.0836 -15.0979 -15.0979 -14.8495 -14.8495
   -14.6614 -14.5849 -13.8121 -13.8121 -13.4466 -13.4466  -3.3061  -3.1239
    -1.5028  -1.5028  -1.4837  -1.3201  -1.3201  -0.5827   2.4131   2.4131
     2.7136   2.7136   3.0399   3.0399   3.4637   3.4637   3.8222   4.1174

          k =-0.1573-0.0908 0.3224 (  5111 PWs)   bands (ev):

   -33.7047 -33.6977 -17.0880 -17.0824 -15.1230 -15.0136 -14.9633 -14.7988
   -14.6779 -14.6174 -13.8244 -13.6733 -13.5475 -13.4328  -3.2520  -3.1240
    -1.4869  -1.4822  -1.3722  -1.3327  -1.3070  -0.6713   2.4313   2.4709
     2.6539   2.6682   2.9230   3.0482   3.3155   3.3997   3.9412   4.1258

          k = 0.9436 0.5448 0.0000 (  5096 PWs)   bands (ev):

   -33.7031 -33.6989 -17.0810 -17.0774 -15.1317 -15.0372 -14.9589 -14.7604
   -14.7370 -14.6389 -13.7942 -13.6167 -13.5948 -13.4356  -3.1580  -3.0524
    -1.4684  -1.4477  -1.3649  -1.3171  -1.1364  -0.7747   2.3558   2.4770
     2.5891   2.6157   2.7294   3.0028   3.1232   3.2548   4.1134   4.2054

          k = 0.7863 0.4540 0.0461 (  5117 PWs)   bands (ev):

   -33.7012 -33.7005 -17.1068 -17.0372 -15.1632 -15.0399 -14.9528 -14.8168
   -14.7117 -14.6329 -13.7873 -13.6779 -13.5286 -13.4305  -3.0978  -2.9244
    -1.5395  -1.3996  -1.3461  -1.2388  -0.9706  -0.8667   2.1413   2.3014
     2.5134   2.6422   2.6970   2.9696   3.0224   3.1581   4.1955   4.3342

          k = 0.6291 0.3632 0.0921 (  5119 PWs)   bands (ev):

   -33.7022 -33.6993 -17.1399 -16.9915 -15.1690 -15.1649 -14.8410 -14.8183
   -14.7148 -14.6038 -13.8258 -13.7536 -13.4484 -13.4233  -3.0894  -2.8451
    -1.5964  -1.3493  -1.3080  -1.2044  -0.9902  -0.8620   1.9836   2.2661
     2.4289   2.6818   2.7004   2.8994   3.0509   3.1874   4.1825   4.4263

          k =-0.1573 0.0908 0.3685 (  5106 PWs)   bands (ev):

   -33.7041 -33.6982 -17.0940 -17.0776 -15.1047 -15.0103 -14.9555 -14.8359
   -14.6578 -14.6474 -13.7706 -13.6689 -13.5478 -13.4719  -3.2342  -3.1533
    -1.4795  -1.4510  -1.3846  -1.3204  -1.2748  -0.7313   2.4452   2.4917
     2.6064   2.6564   2.9678   3.0865   3.2518   3.3993   3.9583   4.0977

          k = 0.9436 0.7264 0.0461 (  5101 PWs)   bands (ev):

   -33.7030 -33.6991 -17.0943 -17.0695 -15.1058 -15.0601 -14.9092 -14.8115
   -14.7073 -14.6642 -13.7399 -13.6842 -13.5318 -13.4801  -3.1513  -3.1196
    -1.4532  -1.4296  -1.3989  -1.3129  -1.1306  -0.8126   2.4096   2.4474
     2.5954   2.6148   2.8480   3.0150   3.1201   3.3004   4.0980   4.1455

          k = 0.7863 0.6356 0.0921 (  5106 PWs)   bands (ev):

   -33.7015 -33.7003 -17.0872 -17.0645 -15.1282 -15.0602 -14.9080 -14.7996
   -14.7314 -14.6857 -13.7593 -13.6715 -13.5312 -13.4524  -3.0837  -3.0008
    -1.4929  -1.4095  -1.3723  -1.2766  -0.9765  -0.8636   2.2389   2.3067
     2.5944   2.6102   2.7024   2.8788   3.1050   3.1849   4.2076   4.2704

          k = 0.6291 0.5448 0.1382 (  5096 PWs)   bands (ev):

   -33.7016 -33.7000 -17.1232 -17.0145 -15.1565 -15.1255 -14.8832 -14.7679
   -14.7217 -14.6705 -13.8094 -13.7300 -13.4736 -13.4183  -3.0675  -2.8707
    -1.5653  -1.3856  -1.3119  -1.2386  -0.9194  -0.8735   2.0325   2.2291
     2.4795   2.6393   2.6790   2.7939   3.1237   3.1776   4.2192   4.4074

          k = 0.9436-0.5448-0.2764 (  5112 PWs)   bands (ev):

   -33.7025 -33.6996 -17.1155 -17.0443 -15.1553 -14.9918 -14.9392 -14.8068
   -14.7202 -14.6528 -13.7827 -13.6508 -13.5488 -13.4557  -3.1536  -3.0674
    -1.4996  -1.4008  -1.3513  -1.3036  -1.0617  -0.8716   2.3308   2.4029
     2.5949   2.6421   2.8391   2.9608   3.0671   3.2914   4.1256   4.1823

          k = 0.7863-0.6356-0.2303 (  5106 PWs)   bands (ev):

   -33.7017 -33.7001 -17.1094 -17.0422 -15.1474 -15.0619 -14.8760 -14.7867
   -14.7330 -14.7003 -13.7642 -13.7076 -13.4945 -13.4561  -3.0962  -2.9897
    -1.5063  -1.4170  -1.3167  -1.2974  -0.9580  -0.8888   2.2048   2.3058
     2.5818   2.6495   2.7443   2.8123   3.0992   3.2159   4.1915   4.2847

          k = 0.6291-0.7264-0.1843 (  5112 PWs)   bands (ev):

   -33.7008 -33.7008 -17.0719 -17.0719 -15.0981 -15.0981 -14.8539 -14.8539
   -14.7272 -14.7272 -13.7230 -13.7230 -13.4731 -13.4731  -2.9709  -2.9709
    -1.4802  -1.4802  -1.2889  -1.2889  -0.8749  -0.8749   2.1469   2.1469
     2.5632   2.5632   2.6856   2.6856   3.1691   3.1691   4.3227   4.3227

          k = 0.7863-0.4540-0.1843 (  5098 PWs)   bands (ev):

   -33.7017 -33.7000 -17.1344 -17.0083 -15.1969 -15.0961 -14.8592 -14.7692
   -14.7295 -14.6292 -13.8293 -13.7610 -13.4621 -13.4102  -3.1280  -2.8956
    -1.5644  -1.3729  -1.3071  -1.2536  -0.9375  -0.9084   2.0820   2.2867
     2.5547   2.6682   2.6945   2.8630   3.0739   3.2001   4.1592   4.3673

          k = 0.0000 0.0000 0.4146 (  5097 PWs)   bands (ev):

   -33.7036 -33.6989 -17.0903 -17.0862 -15.0514 -15.0514 -14.9198 -14.9198
   -14.6426 -14.6011 -13.7150 -13.7150 -13.5202 -13.5202  -3.2816  -3.1864
    -1.4608  -1.4608  -1.3621  -1.3621  -1.2628  -0.7778   2.4833   2.4833
     2.6448   2.6448   3.1301   3.1301   3.3571   3.3571   3.8837   4.0411

          k = 1.1009 0.6356 0.0921 (  5095 PWs)   bands (ev):

   -33.7026 -33.6997 -17.0873 -17.0849 -15.0894 -15.0197 -14.9632 -14.8608
   -14.6581 -14.6227 -13.7447 -13.6185 -13.6031 -13.4897  -3.2331  -3.1705
    -1.4500  -1.4223  -1.3771  -1.3759  -1.1431  -0.8582   2.4781   2.5228
     2.5919   2.6086   3.0183   3.1617   3.1948   3.3085   3.9826   4.0664

          k = 0.9436 0.5448 0.1382 (  5102 PWs)   bands (ev):

   -33.7013 -33.7007 -17.1004 -17.0599 -15.1483 -15.0004 -14.9618 -14.7926
   -14.7189 -14.6384 -13.7931 -13.6137 -13.5923 -13.4441  -3.1633  -3.0600
    -1.4863  -1.3821  -1.3698  -1.3303  -1.0051  -0.9123   2.3373   2.4304
     2.5989   2.6272   2.7947   3.0079   3.1119   3.2121   4.1135   4.1938

          k = 1.1009-0.6356-0.2303 (  5095 PWs)   bands (ev):

   -33.7020 -33.7004 -17.0914 -17.0812 -15.0810 -15.0187 -14.9470 -14.8907
   -14.6454 -14.6379 -13.7132 -13.6314 -13.5849 -13.5193  -3.2086  -3.1995
    -1.4403  -1.4124  -1.3995  -1.3665  -1.0741  -0.9297   2.5067   2.5212
     2.5694   2.5966   3.0646   3.1401   3.1920   3.2913   4.0080   4.0369

          k = 0.9436-0.7264-0.1843 (  5102 PWs)   bands (ev):

   -33.7011 -33.7011 -17.0824 -17.0824 -15.0844 -15.0844 -14.8670 -14.8670
   -14.6771 -14.6771 -13.7066 -13.7066 -13.5112 -13.5112  -3.1402  -3.1402
    -1.4361  -1.4361  -1.3549  -1.3549  -0.9711  -0.9711   2.4267   2.4267
     2.5988   2.5988   2.9431   2.9431   3.1980   3.1980   4.1181   4.1181

          k =-0.0000-0.0000-0.5528 (  5076 PWs)   bands (ev):

   -33.7012 -33.7012 -17.0886 -17.0886 -14.9903 -14.9903 -14.9903 -14.9903
   -14.6213 -14.6213 -13.6130 -13.6130 -13.6130 -13.6130  -3.2414  -3.2414
    -1.4114  -1.4114  -1.4114  -1.4114  -1.0154  -1.0154   2.5646   2.5646
     2.5646   2.5646   3.2400   3.2400   3.2400   3.2400   3.9594   3.9594

     highest occupied level (ev):     4.4811

!    total energy              =    -367.43036903 Ry
     Harris-Foulkes estimate   =    -367.43036903 Ry
     estimated scf accuracy    <          9.0E-09 Ry

     The total energy is the sum of the following terms:

     one-electron contribution =    -148.26396175 Ry
     hartree contribution      =     103.49688520 Ry
     xc contribution           =     -75.26678184 Ry
     ewald contribution        =    -247.39651064 Ry

     convergence has been achieved in   9 iterations

     Forces acting on atoms (cartesian axes, Ry/au):

     atom    1 type  1   force =    -0.00000000    0.00000000   -0.00000000
     atom    2 type  1   force =     0.00000000    0.00000000    0.00000000
     atom    3 type  2   force =     0.00000000   -0.00000000   -0.00000000
     atom    4 type  2   force =    -0.00000000    0.00000000    0.00000000
     atom    5 type  3   force =     0.00003555   -0.00006158   -0.00000000
     atom    6 type  3   force =    -0.00007111   -0.00000000    0.00000000
     atom    7 type  3   force =     0.00003555    0.00006158    0.00000000
     atom    8 type  3   force =     0.00007111    0.00000000   -0.00000000
     atom    9 type  3   force =    -0.00003555   -0.00006158   -0.00000000
     atom   10 type  3   force =    -0.00003555    0.00006158    0.00000000

     Total force =     0.000174     Total SCF correction =     0.000107
     SCF correction compared to forces is large: reduce conv_thr to get better values


     Computing stress (Cartesian axis) and pressure

          total   stress  (Ry/bohr**3)                   (kbar)     P=   -1.36
  -0.00001106  -0.00000000   0.00000000         -1.63     -0.00      0.00
  -0.00000000  -0.00001106  -0.00000000         -0.00     -1.63     -0.00
   0.00000000  -0.00000000  -0.00000569          0.00     -0.00     -0.84


     Writing output data file CCO_k.save/
 
     init_run     :     15.52s CPU     18.93s WALL (       2 calls)
     electrons    :   4000.06s CPU   4454.41s WALL (      16 calls)
     update_pot   :      1.04s CPU      1.17s WALL (      14 calls)
     forces       :      9.90s CPU     10.65s WALL (      16 calls)
     stress       :     16.91s CPU     17.45s WALL (      16 calls)

     Called by init_run:
     wfcinit      :     14.46s CPU     17.51s WALL (       2 calls)
     potinit      :      0.20s CPU      0.22s WALL (       2 calls)
     hinit0       :      0.66s CPU      0.83s WALL (       2 calls)

     Called by electrons:
     c_bands      :   3773.43s CPU   4212.56s WALL (     160 calls)
     sum_band     :    222.07s CPU    234.61s WALL (     160 calls)
     v_of_rho     :      2.85s CPU      3.11s WALL (     174 calls)
     newd         :      1.31s CPU      1.42s WALL (     174 calls)
     mix_rho      :      0.43s CPU      0.69s WALL (     160 calls)

     Called by c_bands:
     init_us_2    :      5.36s CPU      6.23s WALL (   23010 calls)
     ccgdiagg     :   3039.21s CPU   3309.61s WALL (   10724 calls)
     wfcrot       :    741.18s CPU    899.22s WALL (    9684 calls)

     Called by sum_band:
     sum_band:bec :      2.96s CPU      3.26s WALL (   10400 calls)
     addusdens    :      0.84s CPU      0.99s WALL (     160 calls)

     Called by *cgdiagg:
     h_psi        :   2531.36s CPU   2708.03s WALL ( 1216117 calls)
     s_psi        :    132.60s CPU    149.89s WALL ( 2422550 calls)
     cdiaghg      :    265.85s CPU    395.65s WALL (    9684 calls)

     Called by h_psi:
     h_psi:pot    :   2498.67s CPU   2670.36s WALL ( 1216117 calls)
     h_psi:calbec :    285.48s CPU    310.24s WALL ( 1216117 calls)
     vloc_psi     :   2073.31s CPU   2209.31s WALL ( 1216117 calls)
     add_vuspsi   :     99.22s CPU    109.21s WALL ( 1216117 calls)
     hs_1psi      :   2275.80s CPU   2443.95s WALL ( 1206433 calls)
     s_1psi       :    269.37s CPU    305.48s WALL ( 1206433 calls)

     General routines
     calbec       :    430.19s CPU    480.42s WALL ( 2438150 calls)
     fft          :      3.33s CPU      3.49s WALL (    2330 calls)
     ffts         :      0.21s CPU      0.22s WALL (     160 calls)
     fftw         :   2167.27s CPU   2304.65s WALL ( 3370642 calls)
 
     Parallel routines
     fft_scatt_xy :     97.22s CPU    102.76s WALL ( 3373132 calls)
     fft_scatt_yz :   1629.41s CPU   1735.23s WALL ( 3373132 calls)
 
     PWSCF        :      1h 7m CPU      1h15m WALL

 
   This run was terminated on:  18: 9:35  24Apr2022            

=------------------------------------------------------------------------------=
   JOB DONE.
=------------------------------------------------------------------------------=
