
     Program PWSCF v.6.4.1 starts on 23Apr2022 at 19:22: 6 

     This program is part of the open-source Quantum ESPRESSO suite
     for quantum simulation of materials; please cite
         "P. Giannozzi et al., J. Phys.:Condens. Matter 21 395502 (2009);
         "P. Giannozzi et al., J. Phys.:Condens. Matter 29 465901 (2017);
          URL http://www.quantum-espresso.org", 
     in publications or presentations arising from this work. More details at
     http://www.quantum-espresso.org/quote

     Parallel version (MPI & OpenMP), running on       1 processor cores
     Number of MPI processes:                 1
     Threads/MPI process:                     1

     MPI processes distributed on     1 nodes
     Waiting for input...
     Reading input from standard input

     Current dimensions of program PWSCF are:
     Max number of different atomic species (ntypx) = 10
     Max number of k-points (npk) =  40000
     Max angular momentum in pseudopotentials (lmaxx) =  3

     Subspace diagonalization in iterative solution of the eigenvalue problem:
     a serial algorithm will be used

 
     G-vector sticks info
     --------------------
     sticks:   dense  smooth     PW     G-vecs:    dense   smooth      PW
     Sum        1703    1703    505                40837    40837    6699
 


     bravais-lattice index     =            5
     lattice parameter (alat)  =      12.1620  a.u.
     unit-cell volume          =     854.7720 (a.u.)^3
     number of atoms/cell      =           10
     number of atomic types    =            3
     number of electrons       =        64.00
     number of Kohn-Sham states=           32
     kinetic-energy cutoff     =      50.0000  Ry
     charge density cutoff     =     200.0000  Ry
     convergence threshold     =      1.0E-05
     mixing beta               =       0.7000
     number of iterations used =            8  plain     mixing
     Exchange-correlation      = SLA  PW   PBE  PBE ( 1  4  3  4 0 0)
     nstep                     =           50


     celldm(1)=  12.162000  celldm(2)=   0.000000  celldm(3)=   0.000000
     celldm(4)=   0.692300  celldm(5)=   0.000000  celldm(6)=   0.000000

     crystal axes: (cart. coord. in units of alat)
               a(1) = (   0.392237  -0.226458   0.891553 )  
               a(2) = (   0.000000   0.452916   0.891553 )  
               a(3) = (  -0.392237  -0.226458   0.891553 )  

     reciprocal axes: (cart. coord. in units 2 pi/alat)
               b(1) = (  1.274739 -0.735971  0.373879 )  
               b(2) = (  0.000000  1.471942  0.373879 )  
               b(3) = ( -1.274739 -0.735971  0.373879 )  


     PseudoPot. # 1 for Ca read from file:
     ./Ca_PBE.UPF
     MD5 check sum: 403a4c14b9e4d4dfdc3024c9a3812218
     Pseudo is Ultrasoft + core correction, Zval = 10.0
     Generated by new atomic code, or converted to UPF format
     Using radial grid of  845 points,  6 beta functions with: 
                l(1) =   0
                l(2) =   0
                l(3) =   1
                l(4) =   1
                l(5) =   2
                l(6) =   2
     Q(r) pseudized with  8 coefficients,  rinner =    1.500   1.500   1.500
                                                       1.500   1.500

     PseudoPot. # 2 for C  read from file:
     ./C_PBE.UPF
     MD5 check sum: d1aef80898a10debaa0f26306b886e00
     Pseudo is Ultrasoft + core correction, Zval =  4.0
     Generated by new atomic code, or converted to UPF format
     Using radial grid of  721 points,  4 beta functions with: 
                l(1) =   0
                l(2) =   0
                l(3) =   1
                l(4) =   1
     Q(r) pseudized with  8 coefficients,  rinner =    1.100   1.100   1.100


     PseudoPot. # 3 for O  read from file:
     ./O_PBE.UPF
     MD5 check sum: 734c27235a0248c51dbae37a1fbe46ec
     Pseudo is Ultrasoft + core correction, Zval =  6.0
     Generated by new atomic code, or converted to UPF format
     Using radial grid of  737 points,  5 beta functions with: 
                l(1) =   0
                l(2) =   0
                l(3) =   1
                l(4) =   1
                l(5) =   2
     Q(r) pseudized with  8 coefficients,  rinner =    0.900   0.900   0.900
                                                       0.900   0.900

     atomic species   valence    mass     pseudopotential
        Ca            10.00    40.07800     Ca( 1.00)
        C              4.00    12.01070     C ( 1.00)
        O              6.00    16.00000     O ( 1.00)

     12 Sym. Ops., with inversion, found ( 6 have fractional translation)



   Cartesian axes

     site n.     atom                  positions (alat units)
         1           Ca  tau(   1) = (   0.0000000  -0.0000000   1.3373294  )
         2           Ca  tau(   2) = (   0.0000000   0.0000000   0.0000000  )
         3           C   tau(   3) = (   0.0000000  -0.0000000   0.6686647  )
         4           C   tau(   4) = (   0.0000000  -0.0000000   2.0059941  )
         5           O   tau(   5) = (   0.1007658   0.2783849   1.5602177  )
         6           O   tau(   6) = (   0.1907055  -0.2264582   1.5602177  )
         7           O   tau(   7) = (  -0.2914713  -0.0519267   1.5602177  )
         8           O   tau(   8) = (  -0.1907055   0.2264582   1.1144412  )
         9           O   tau(   9) = (   0.2914713   0.0519267   1.1144412  )
        10           O   tau(  10) = (  -0.1007658  -0.2783849   1.1144412  )

     number of k points=    65
                       cart. coord. in units 2pi/alat
        k(    1) = (   0.0000000   0.0000000   0.0000000), wk =   0.0039062
        k(    2) = (  -0.1593424  -0.0919964   0.0467349), wk =   0.0234375
        k(    3) = (  -0.3186847  -0.1839927   0.0934699), wk =   0.0234375
        k(    4) = (  -0.4780271  -0.2759891   0.1402048), wk =   0.0234375
        k(    5) = (   0.6373695   0.3679854  -0.1869397), wk =   0.0117188
        k(    6) = (  -0.1593424   0.0919964   0.0934699), wk =   0.0234375
        k(    7) = (  -0.3186847   0.0000000   0.1402048), wk =   0.0468750
        k(    8) = (  -0.4780271  -0.0919964   0.1869397), wk =   0.0468750
        k(    9) = (   0.6373695   0.5519782  -0.1402048), wk =   0.0468750
        k(   10) = (   0.4780271   0.4599818  -0.0934699), wk =   0.0468750
        k(   11) = (   0.3186847   0.3679854  -0.0467349), wk =   0.0468750
        k(   12) = (   0.1593424   0.2759891   0.0000000), wk =   0.0234375
        k(   13) = (  -0.3186847   0.1839927   0.1869397), wk =   0.0234375
        k(   14) = (  -0.4780271   0.0919964   0.2336747), wk =   0.0468750
        k(   15) = (   0.6373695   0.7359709  -0.0934699), wk =   0.0468750
        k(   16) = (   0.4780271   0.6439745  -0.0467349), wk =   0.0468750
        k(   17) = (   0.3186847   0.5519782   0.0000000), wk =   0.0234375
        k(   18) = (  -0.4780271   0.2759891   0.2804096), wk =   0.0234375
        k(   19) = (   0.6373695   0.9199636  -0.0467349), wk =   0.0468750
        k(   20) = (   0.4780271   0.8279672   0.0000000), wk =   0.0234375
        k(   21) = (   0.6373695  -0.3679854  -0.3738795), wk =   0.0117188
        k(   22) = (   0.0000000   0.0000000   0.1402048), wk =   0.0078125
        k(   23) = (  -0.1593424  -0.0919964   0.1869397), wk =   0.0234375
        k(   24) = (  -0.3186847  -0.1839927   0.2336747), wk =   0.0234375
        k(   25) = (   0.7967118   0.4599818  -0.0934699), wk =   0.0234375
        k(   26) = (   0.6373695   0.3679854  -0.0467349), wk =   0.0234375
        k(   27) = (   0.4780271   0.2759891   0.0000000), wk =   0.0234375
        k(   28) = (   0.3186847   0.1839927   0.0467349), wk =   0.0234375
        k(   29) = (  -0.1593424   0.0919964   0.2336747), wk =   0.0234375
        k(   30) = (  -0.3186847   0.0000000   0.2804096), wk =   0.0468750
        k(   31) = (   0.7967118   0.6439745  -0.0467349), wk =   0.0468750
        k(   32) = (   0.6373695   0.5519782   0.0000000), wk =   0.0468750
        k(   33) = (   0.4780271   0.4599818   0.0467349), wk =   0.0468750
        k(   34) = (   0.3186847   0.3679854   0.0934699), wk =   0.0468750
        k(   35) = (  -0.3186847   0.1839927   0.3271445), wk =   0.0234375
        k(   36) = (   0.7967118   0.8279672   0.0000000), wk =   0.0468750
        k(   37) = (   0.6373695   0.7359709   0.0467349), wk =   0.0468750
        k(   38) = (   0.4780271   0.6439745   0.0934699), wk =   0.0468750
        k(   39) = (   0.3186847   0.5519782   0.1402048), wk =   0.0468750
        k(   40) = (   0.7967118  -0.4599818  -0.3271445), wk =   0.0234375
        k(   41) = (   0.6373695  -0.5519782  -0.2804096), wk =   0.0468750
        k(   42) = (   0.4780271  -0.6439745  -0.2336747), wk =   0.0468750
        k(   43) = (   0.3186847  -0.7359709  -0.1869397), wk =   0.0234375
        k(   44) = (   0.6373695  -0.3679854  -0.2336747), wk =   0.0234375
        k(   45) = (   0.4780271  -0.4599818  -0.1869397), wk =   0.0468750
        k(   46) = (   0.4780271  -0.2759891  -0.1402048), wk =   0.0234375
        k(   47) = (   0.0000000   0.0000000   0.2804096), wk =   0.0078125
        k(   48) = (  -0.1593424  -0.0919964   0.3271445), wk =   0.0234375
        k(   49) = (   0.9560542   0.5519782   0.0000000), wk =   0.0234375
        k(   50) = (   0.7967118   0.4599818   0.0467349), wk =   0.0234375
        k(   51) = (   0.6373695   0.3679854   0.0934699), wk =   0.0234375
        k(   52) = (  -0.1593424   0.0919964   0.3738795), wk =   0.0234375
        k(   53) = (   0.9560542   0.7359709   0.0467349), wk =   0.0468750
        k(   54) = (   0.7967118   0.6439745   0.0934699), wk =   0.0468750
        k(   55) = (   0.6373695   0.5519782   0.1402048), wk =   0.0468750
        k(   56) = (   0.9560542  -0.5519782  -0.2804096), wk =   0.0234375
        k(   57) = (   0.7967118  -0.6439745  -0.2336747), wk =   0.0468750
        k(   58) = (   0.6373695  -0.7359709  -0.1869397), wk =   0.0234375
        k(   59) = (   0.7967118  -0.4599818  -0.1869397), wk =   0.0234375
        k(   60) = (   0.0000000   0.0000000   0.4206144), wk =   0.0078125
        k(   61) = (   1.1153966   0.6439745   0.0934699), wk =   0.0234375
        k(   62) = (   0.9560542   0.5519782   0.1402048), wk =   0.0234375
        k(   63) = (   1.1153966  -0.6439745  -0.2336747), wk =   0.0234375
        k(   64) = (   0.9560542  -0.7359709  -0.1869397), wk =   0.0234375
        k(   65) = (   0.0000000   0.0000000  -0.5608192), wk =   0.0039062

     Dense  grid:    40837 G-vectors     FFT dimensions: (  60,  60,  60)

     Estimated max dynamical RAM per process >     355.75 MB

     Check: negative core charge=   -0.000003

     Initial potential from superposition of free atoms

     starting charge   63.98899, renormalised to   64.00000
     Starting wfcs are   52 randomized atomic wfcs

     total cpu time spent up to now is       65.3 secs

     Self-consistent Calculation

     iteration #  1     ecut=    50.00 Ry     beta= 0.70
     CG style diagonalization
     ethr =  1.00E-02,  avg # of iterations =  2.7

     total cpu time spent up to now is      212.3 secs

     total energy              =    -366.66918709 Ry
     Harris-Foulkes estimate   =    -367.89234777 Ry
     estimated scf accuracy    <       1.75369959 Ry

     iteration #  2     ecut=    50.00 Ry     beta= 0.70
     CG style diagonalization
     ethr =  2.74E-03,  avg # of iterations =  4.3

     total cpu time spent up to now is      423.0 secs

     total energy              =    -367.10002403 Ry
     Harris-Foulkes estimate   =    -367.91445172 Ry
     estimated scf accuracy    <       1.67557953 Ry

     iteration #  3     ecut=    50.00 Ry     beta= 0.70
     CG style diagonalization
     ethr =  2.62E-03,  avg # of iterations =  3.8

     total cpu time spent up to now is      603.5 secs

     total energy              =    -367.41856257 Ry
     Harris-Foulkes estimate   =    -367.42055996 Ry
     estimated scf accuracy    <       0.01098775 Ry

     iteration #  4     ecut=    50.00 Ry     beta= 0.70
     CG style diagonalization
     ethr =  1.72E-05,  avg # of iterations =  4.4

     total cpu time spent up to now is      815.9 secs

     total energy              =    -367.42990403 Ry
     Harris-Foulkes estimate   =    -367.43092165 Ry
     estimated scf accuracy    <       0.00273713 Ry

     iteration #  5     ecut=    50.00 Ry     beta= 0.70
     CG style diagonalization
     ethr =  4.28E-06,  avg # of iterations =  3.6

     total cpu time spent up to now is      987.5 secs

     total energy              =    -367.43031416 Ry
     Harris-Foulkes estimate   =    -367.43034710 Ry
     estimated scf accuracy    <       0.00014942 Ry

     iteration #  6     ecut=    50.00 Ry     beta= 0.70
     CG style diagonalization
     ethr =  2.33E-07,  avg # of iterations =  4.1

     total cpu time spent up to now is     1186.0 secs

     total energy              =    -367.43035272 Ry
     Harris-Foulkes estimate   =    -367.43036635 Ry
     estimated scf accuracy    <       0.00002324 Ry

     iteration #  7     ecut=    50.00 Ry     beta= 0.70
     CG style diagonalization
     ethr =  3.63E-08,  avg # of iterations =  4.1

     total cpu time spent up to now is     1384.6 secs

     End of self-consistent calculation

          k = 0.0000 0.0000 0.0000 (  5161 PWs)   bands (ev):

   -33.6974 -33.6848 -17.0823 -17.0727 -15.1282 -15.1282 -14.7629 -14.7629
   -14.6699 -14.5619 -13.9056 -13.9056 -13.3741 -13.3741  -3.3138  -3.0409
    -1.6910  -1.5331  -1.5331  -1.2742  -1.2742  -0.4013   2.3558   2.3558
     2.7873   2.7873   2.9598   2.9598   3.5745   3.5745   3.7751   4.2021

          k =-0.1593-0.0920 0.0467 (  5131 PWs)   bands (ev):

   -33.6968 -33.6852 -17.0847 -17.0656 -15.1273 -15.0804 -14.8148 -14.7604
   -14.6882 -14.6380 -13.8726 -13.7839 -13.4360 -13.3856  -3.2515  -3.0491
    -1.6346  -1.5088  -1.4836  -1.3011  -1.2655  -0.4674   2.3863   2.4252
     2.7199   2.7673   2.8440   2.8989   3.4783   3.4986   3.9112   4.2073

          k =-0.3187-0.1840 0.0935 (  5105 PWs)   bands (ev):

   -33.6953 -33.6864 -17.1017 -17.0345 -15.1250 -15.0070 -14.9554 -14.7831
   -14.6859 -14.6733 -13.7935 -13.6145 -13.5641 -13.4212  -3.1112  -3.0462
    -1.5472  -1.4448  -1.3449  -1.3145  -1.2640  -0.6117   2.4197   2.4687
     2.5920   2.6290   2.7420   2.7886   3.3078   3.3411   4.1402   4.2224

          k =-0.4780-0.2760 0.1402 (  5098 PWs)   bands (ev):

   -33.6931 -33.6883 -17.0941 -17.0285 -15.1020 -15.0196 -14.9952 -14.8742
   -14.6680 -14.6444 -13.7012 -13.6189 -13.5474 -13.4865  -3.0041  -2.9920
    -1.5387  -1.4230  -1.2639  -1.2537  -1.1293  -0.7548   2.2130   2.3056
     2.5448   2.5852   2.7495   2.8460   3.1558   3.1845   4.2591   4.2948

          k = 0.6374 0.3680-0.1869 (  5096 PWs)   bands (ev):

   -33.6906 -33.6906 -17.0594 -17.0594 -15.0167 -15.0167 -15.0025 -15.0025
   -14.6499 -14.6499 -13.5913 -13.5913 -13.5748 -13.5748  -2.9616  -2.9616
    -1.5001  -1.5001  -1.2280  -1.2280  -0.9163  -0.9163   2.1587   2.1587
     2.5435   2.5435   2.8412   2.8412   3.1026   3.1026   4.3123   4.3123

          k =-0.1593 0.0920 0.0935 (  5121 PWs)   bands (ev):

   -33.6967 -33.6854 -17.0862 -17.0646 -15.1029 -15.1005 -14.8068 -14.7643
   -14.6812 -14.6627 -13.8286 -13.8093 -13.4195 -13.4108  -3.2480  -3.0580
    -1.6151  -1.5013  -1.4903  -1.3058  -1.2622  -0.4811   2.3869   2.4309
     2.7205   2.7281   2.8762   2.9122   3.4431   3.5196   3.9128   4.1996

          k =-0.3187 0.0000 0.1402 (  5099 PWs)   bands (ev):

   -33.6956 -33.6863 -17.1012 -17.0402 -15.1073 -15.0610 -14.8714 -14.7786
   -14.7108 -14.6780 -13.7816 -13.6952 -13.4978 -13.4296  -3.1442  -3.0639
    -1.5368  -1.4619  -1.4040  -1.3145  -1.2503  -0.5919   2.4129   2.4934
     2.5928   2.6771   2.7463   2.8519   3.2948   3.4182   4.0869   4.2070

          k =-0.4780-0.0920 0.1869 (  5099 PWs)   bands (ev):

   -33.6937 -33.6878 -17.0990 -17.0288 -15.1119 -15.0694 -14.9087 -14.8457
   -14.6731 -14.6644 -13.7174 -13.6953 -13.4885 -13.4717  -3.0260  -3.0230
    -1.5166  -1.4142  -1.3470  -1.2433  -1.1641  -0.7180   2.2834   2.3981
     2.5236   2.5810   2.7213   2.8367   3.1457   3.2780   4.2454   4.2633

          k = 0.6374 0.5520-0.1402 (  5105 PWs)   bands (ev):

   -33.6914 -33.6898 -17.0654 -17.0547 -15.0951 -15.0372 -14.9592 -14.9185
   -14.6581 -14.6536 -13.7032 -13.6262 -13.5418 -13.4759  -2.9732  -2.9493
    -1.4948  -1.4845  -1.2753  -1.2195  -0.9652  -0.8455   2.1685   2.2064
     2.4918   2.5289   2.7653   2.8268   3.1067   3.1784   4.3184   4.3245

          k = 0.4780 0.4600-0.0935 (  5101 PWs)   bands (ev):

   -33.6921 -33.6892 -17.0953 -17.0222 -15.1272 -15.0190 -15.0069 -14.8531
   -14.6782 -14.6289 -13.7476 -13.6087 -13.5488 -13.4529  -2.9981  -2.9221
    -1.5503  -1.4147  -1.2701  -1.2146  -1.0296  -0.8132   2.1156   2.2704
     2.4610   2.5536   2.7254   2.8520   3.1304   3.1806   4.2761   4.3684

          k = 0.3187 0.3680-0.0467 (  5097 PWs)   bands (ev):

   -33.6943 -33.6872 -17.1144 -17.0102 -15.1361 -15.0604 -14.9346 -14.7925
   -14.6979 -14.6497 -13.7577 -13.6726 -13.4988 -13.4490  -3.0423  -2.9993
    -1.5472  -1.3874  -1.3071  -1.2475  -1.2366  -0.6952   2.2587   2.4415
     2.5219   2.5976   2.6482   2.8528   3.1826   3.2942   4.2308   4.2840

          k = 0.1593 0.2760 0.0000 (  5113 PWs)   bands (ev):

   -33.6959 -33.6859 -17.1031 -17.0371 -15.1035 -15.0719 -14.8381 -14.8089
   -14.7019 -14.6834 -13.7887 -13.7025 -13.4885 -13.4251  -3.1429  -3.0549
    -1.5634  -1.4604  -1.4129  -1.3307  -1.2430  -0.5638   2.4152   2.5101
     2.5728   2.7082   2.7361   2.8036   3.3373   3.4212   4.0854   4.2166

          k =-0.3187 0.1840 0.1869 (  5096 PWs)   bands (ev):

   -33.6950 -33.6867 -17.1179 -17.0197 -15.1033 -15.0789 -14.8133 -14.8066
   -14.7430 -14.6898 -13.7376 -13.7008 -13.4904 -13.4578  -3.0926  -3.0760
    -1.4889  -1.4457  -1.4294  -1.2505  -1.2344  -0.6565   2.3653   2.4279
     2.5831   2.6574   2.7319   2.9190   3.1704   3.4168   4.1652   4.1842

          k =-0.4780 0.0920 0.2337 (  5107 PWs)   bands (ev):

   -33.6938 -33.6877 -17.1245 -17.0030 -15.1557 -15.0725 -14.8647 -14.7863
   -14.6924 -14.6817 -13.7997 -13.6676 -13.5037 -13.4221  -3.0792  -2.9731
    -1.5121  -1.4099  -1.3663  -1.2205  -1.1332  -0.7442   2.2013   2.3892
     2.5135   2.6437   2.7048   2.9033   3.0577   3.3367   4.1984   4.3050

          k = 0.6374 0.7360-0.0935 (  5101 PWs)   bands (ev):

   -33.6921 -33.6892 -17.0974 -17.0244 -15.1586 -15.0094 -14.9532 -14.8280
   -14.6891 -14.6547 -13.8085 -13.5992 -13.5546 -13.4117  -2.9989  -2.9235
    -1.4896  -1.4532  -1.3387  -1.2089  -0.9699  -0.8082   2.1140   2.2635
     2.4838   2.5357   2.6904   2.7815   3.1123   3.2562   4.2824   4.3772

          k = 0.4780 0.6440-0.0467 (  5106 PWs)   bands (ev):

   -33.6909 -33.6903 -17.0733 -17.0450 -15.1173 -15.0732 -14.9498 -14.8241
   -14.6982 -14.6538 -13.7573 -13.6811 -13.4891 -13.4329  -2.9537  -2.9098
    -1.5335  -1.4109  -1.3280  -1.2026  -0.9129  -0.8433   2.1282   2.1842
     2.4339   2.4915   2.6849   2.7375   3.1739   3.2127   4.3401   4.3864

          k = 0.3187 0.5520 0.0000 (  5103 PWs)   bands (ev):

   -33.6927 -33.6886 -17.1099 -17.0064 -15.1711 -15.0211 -15.0069 -14.7502
   -14.7155 -14.6208 -13.8271 -13.6208 -13.5364 -13.4025  -3.0126  -2.9047
    -1.5614  -1.3584  -1.3019  -1.2200  -1.0813  -0.7733   2.1148   2.3579
     2.4250   2.5042   2.6612   2.8249   3.1701   3.2278   4.2663   4.3982

          k =-0.4780 0.2760 0.2804 (  5108 PWs)   bands (ev):

   -33.6934 -33.6880 -17.1485 -16.9712 -15.1795 -15.1608 -14.7759 -14.7398
   -14.6961 -14.6642 -13.8479 -13.7731 -13.4317 -13.3912  -3.1210  -2.8781
    -1.5614  -1.3808  -1.3080  -1.2033  -1.0599  -0.8084   2.0528   2.3279
     2.4862   2.7136   2.7297   2.8649   3.0384   3.3192   4.1492   4.3943

          k = 0.6374 0.9200-0.0467 (  5114 PWs)   bands (ev):

   -33.6925 -33.6887 -17.1409 -16.9756 -15.1989 -15.1439 -14.7968 -14.7490
   -14.7048 -14.6312 -13.8949 -13.7415 -13.4415 -13.3695  -3.0875  -2.8323
    -1.5549  -1.4081  -1.2939  -1.1931  -0.9672  -0.8298   1.9814   2.2562
     2.4890   2.6751   2.7049   2.7235   3.1223   3.2697   4.1834   4.4526

          k = 0.4780 0.8280 0.0000 (  5106 PWs)   bands (ev):

   -33.6914 -33.6897 -17.0970 -17.0229 -15.1563 -15.0661 -14.8579 -14.8410
   -14.7181 -14.6588 -13.8071 -13.6838 -13.4762 -13.4095  -2.9882  -2.8751
    -1.4790  -1.4780  -1.3367  -1.1942  -0.8860  -0.8363   2.0438   2.1948
     2.4888   2.5377   2.6572   2.6770   3.1731   3.2409   4.2995   4.4246

          k = 0.6374-0.3680-0.3739 (  5104 PWs)   bands (ev):

   -33.6927 -33.6886 -17.1608 -16.9499 -15.2151 -15.2120 -14.7455 -14.7187
   -14.6965 -14.5702 -13.9446 -13.8356 -13.3897 -13.3497  -3.1317  -2.7849
    -1.5933  -1.3783  -1.2531  -1.1852  -0.9657  -0.8623   1.9174   2.2369
     2.5110   2.6903   2.7323   2.7441   3.1340   3.2576   4.1262   4.4874

          k = 0.0000 0.0000 0.1402 (  5131 PWs)   bands (ev):

   -33.6969 -33.6853 -17.0823 -17.0734 -15.1184 -15.1184 -14.7847 -14.7847
   -14.6653 -14.5655 -13.8776 -13.8776 -13.3903 -13.3903  -3.3103  -3.0627
    -1.6333  -1.5232  -1.5232  -1.2840  -1.2840  -0.4453   2.3725   2.3725
     2.7677   2.7677   2.9837   2.9837   3.5471   3.5471   3.7892   4.1813

          k =-0.1593-0.0920 0.1869 (  5129 PWs)   bands (ev):

   -33.6961 -33.6860 -17.0825 -17.0688 -15.1312 -15.0479 -14.8850 -14.7518
   -14.6857 -14.6163 -13.8682 -13.7323 -13.4772 -13.3903  -3.2513  -3.0727
    -1.5702  -1.4990  -1.4457  -1.3064  -1.2878  -0.5294   2.4040   2.4410
     2.6951   2.7464   2.8540   2.9615   3.4284   3.4658   3.9227   4.1822

          k =-0.3187-0.1840 0.2337 (  5096 PWs)   bands (ev):

   -33.6944 -33.6873 -17.0866 -17.0520 -15.1220 -15.0125 -14.9682 -14.7696
   -14.7017 -14.6453 -13.7922 -13.5981 -13.5901 -13.4206  -3.1334  -3.0408
    -1.5102  -1.4491  -1.3406  -1.2905  -1.2438  -0.6642   2.3908   2.5356
     2.5448   2.6187   2.7386   2.8684   3.2461   3.3062   4.1283   4.2215

          k = 0.7967 0.4600-0.0935 (  5108 PWs)   bands (ev):

   -33.6922 -33.6892 -17.0641 -17.0618 -15.1000 -15.0276 -14.9742 -14.8782
   -14.6731 -14.6416 -13.7110 -13.6007 -13.5851 -13.4629  -3.0450  -2.9573
    -1.4852  -1.4782  -1.3001  -1.2416  -1.0418  -0.7948   2.2250   2.2822
     2.5274   2.5916   2.7640   2.8929   3.0887   3.1738   4.2471   4.3011

          k = 0.6374 0.3680-0.0467 (  5111 PWs)   bands (ev):

   -33.6914 -33.6898 -17.0990 -17.0186 -15.0965 -15.0906 -14.9210 -14.9078
   -14.6800 -14.6197 -13.7046 -13.6610 -13.4985 -13.4916  -3.0273  -2.8949
    -1.5603  -1.4137  -1.2797  -1.1910  -0.9635  -0.8731   2.0696   2.2373
     2.4706   2.6213   2.7494   2.9578   3.0201   3.1546   4.2480   4.3758

          k = 0.4780 0.2760 0.0000 (  5093 PWs)   bands (ev):

   -33.6936 -33.6878 -17.1216 -16.9978 -15.1465 -15.0715 -14.9355 -14.8062
   -14.6967 -14.6285 -13.7785 -13.6159 -13.5452 -13.4363  -3.0515  -2.9411
    -1.5661  -1.3748  -1.2678  -1.2387  -1.1729  -0.7463   2.1391   2.3722
     2.4915   2.6497   2.6623   2.9308   3.0918   3.2588   4.2156   4.3395

          k = 0.3187 0.1840 0.0467 (  5097 PWs)   bands (ev):

   -33.6955 -33.6862 -17.1126 -17.0231 -15.1117 -15.0571 -14.8837 -14.7842
   -14.7084 -14.6914 -13.7753 -13.6540 -13.5247 -13.4328  -3.0908  -3.0643
    -1.5352  -1.4402  -1.4123  -1.2908  -1.2412  -0.6102   2.4072   2.4362
     2.6150   2.6340   2.6930   2.8515   3.2600   3.4018   4.1527   4.2094

          k =-0.1593 0.0920 0.2337 (  5112 PWs)   bands (ev):

   -33.6957 -33.6864 -17.0867 -17.0658 -15.1063 -15.0598 -14.8739 -14.7747
   -14.6676 -14.6561 -13.8019 -13.7515 -13.4637 -13.4292  -3.2408  -3.0957
    -1.5281  -1.4778  -1.4558  -1.3173  -1.2787  -0.5689   2.4085   2.4570
     2.6678   2.7078   2.9034   2.9957   3.3653   3.4869   3.9303   4.1615

          k =-0.3187 0.0000 0.2804 (  5103 PWs)   bands (ev):

   -33.6945 -33.6873 -17.0954 -17.0487 -15.1078 -15.0454 -14.9049 -14.7511
   -14.7352 -14.6613 -13.7615 -13.6794 -13.5170 -13.4448  -3.1461  -3.0862
    -1.4747  -1.4582  -1.3969  -1.2736  -1.2464  -0.6742   2.4104   2.4716
     2.6114   2.6385   2.7822   2.9447   3.2033   3.3839   4.0926   4.1824

          k = 0.7967 0.6440-0.0467 (  5092 PWs)   bands (ev):

   -33.6927 -33.6888 -17.0788 -17.0533 -15.1020 -15.0680 -14.8972 -14.8418
   -14.6950 -14.6638 -13.7380 -13.6568 -13.5280 -13.4512  -3.0535  -3.0071
    -1.4663  -1.4384  -1.3796  -1.2486  -1.0649  -0.7734   2.2805   2.3407
     2.5643   2.5836   2.7217   2.8988   3.0785   3.2498   4.2362   4.2623

          k = 0.6374 0.5520 0.0000 (  5105 PWs)   bands (ev):

   -33.6906 -33.6906 -17.0873 -17.0342 -15.1260 -15.0430 -14.9609 -14.8399
   -14.6873 -14.6468 -13.7566 -13.6327 -13.5387 -13.4354  -3.0218  -2.9021
    -1.5391  -1.4018  -1.3323  -1.2055  -0.9046  -0.8829   2.1080   2.2277
     2.4654   2.5928   2.7214   2.8531   3.0917   3.1798   4.2693   4.3716

          k = 0.4780 0.4600 0.0467 (  5105 PWs)   bands (ev):

   -33.6925 -33.6887 -17.1200 -16.9954 -15.1745 -15.0720 -14.9479 -14.7684
   -14.7062 -14.6117 -13.8347 -13.6167 -13.5416 -13.3996  -3.0413  -2.8772
    -1.5749  -1.3526  -1.2969  -1.2115  -1.0477  -0.8011   2.0509   2.3166
     2.4152   2.6094   2.6858   2.8716   3.1086   3.2223   4.2319   4.4116

          k = 0.3187 0.3680 0.0935 (  5104 PWs)   bands (ev):

   -33.6943 -33.6872 -17.1234 -17.0011 -15.1505 -15.0683 -14.9131 -14.7616
   -14.7111 -14.6581 -13.7919 -13.6540 -13.5152 -13.4255  -3.0620  -2.9810
    -1.5411  -1.3863  -1.3410  -1.2335  -1.2066  -0.7055   2.2254   2.4399
     2.5148   2.5984   2.6639   2.8864   3.1342   3.3274   4.2133   4.2990

          k =-0.3187 0.1840 0.3271 (  5101 PWs)   bands (ev):

   -33.6939 -33.6878 -17.1162 -17.0244 -15.1349 -15.0318 -14.8628 -14.7861
   -14.7411 -14.6677 -13.7447 -13.6896 -13.4950 -13.4645  -3.1230  -3.0667
    -1.4920  -1.4126  -1.3905  -1.2518  -1.1775  -0.7440   2.3433   2.4089
     2.5894   2.6601   2.7882   2.9935   3.0595   3.3809   4.1554   4.1773

          k = 0.7967 0.8280 0.0000 (  5107 PWs)   bands (ev):

   -33.6928 -33.6887 -17.1170 -17.0148 -15.1521 -15.0641 -14.8363 -14.7951
   -14.7230 -14.6776 -13.7807 -13.6947 -13.4813 -13.4371  -3.0894  -2.9745
    -1.4995  -1.4139  -1.3539  -1.2378  -1.0448  -0.8043   2.1959   2.3376
     2.5479   2.6736   2.7379   2.8580   3.0473   3.3016   4.1921   4.3018

          k = 0.6374 0.7360 0.0467 (  5101 PWs)   bands (ev):

   -33.6914 -33.6898 -17.0825 -17.0431 -15.1317 -15.0414 -14.8939 -14.8339
   -14.7112 -14.6880 -13.7702 -13.6531 -13.5083 -13.4314  -2.9832  -2.9427
    -1.4783  -1.4546  -1.3488  -1.2218  -0.9095  -0.8358   2.1250   2.2016
     2.5278   2.5672   2.6920   2.7318   3.1247   3.2312   4.3030   4.3548

          k = 0.4780 0.6440 0.0935 (  5097 PWs)   bands (ev):

   -33.6912 -33.6900 -17.0856 -17.0334 -15.1313 -15.0694 -14.9457 -14.7817
   -14.7164 -14.6644 -13.7868 -13.6666 -13.4985 -13.4150  -2.9720  -2.8913
    -1.5385  -1.4055  -1.3147  -1.2230  -0.9123  -0.8286   2.0877   2.1919
     2.4420   2.5251   2.6673   2.7251   3.1798   3.2134   4.3198   4.4065

          k = 0.3187 0.5520 0.1402 (  5101 PWs)   bands (ev):

   -33.6926 -33.6887 -17.1067 -17.0112 -15.1694 -15.0076 -14.9988 -14.7887
   -14.6928 -14.6300 -13.8246 -13.6043 -13.5506 -13.4039  -3.0091  -2.9097
    -1.5413  -1.4035  -1.2862  -1.2346  -1.0391  -0.7835   2.1135   2.3249
     2.4470   2.5117   2.6725   2.8132   3.1427   3.2465   4.2702   4.3927

          k = 0.7967-0.4600-0.3271 (  5109 PWs)   bands (ev):

   -33.6926 -33.6888 -17.1436 -16.9793 -15.1973 -15.1326 -14.7597 -14.7481
   -14.7326 -14.6355 -13.8195 -13.8176 -13.4092 -13.4048  -3.1313  -2.8741
    -1.5626  -1.3796  -1.2819  -1.2269  -0.9967  -0.8521   2.0555   2.2919
     2.5486   2.7152   2.7310   2.8028   3.0635   3.2838   4.1457   4.3935

          k = 0.6374-0.5520-0.2804 (  5104 PWs)   bands (ev):

   -33.6921 -33.6892 -17.1337 -16.9854 -15.1713 -15.1532 -14.8024 -14.7216
   -14.7186 -14.6707 -13.8492 -13.7644 -13.4271 -13.3909  -3.0834  -2.8387
    -1.5561  -1.4051  -1.2761  -1.2225  -0.9350  -0.8445   1.9943   2.2368
     2.5209   2.6555   2.6881   2.7379   3.1308   3.2398   4.1936   4.4425

          k = 0.4780-0.6440-0.2337 (  5106 PWs)   bands (ev):

   -33.6914 -33.6898 -17.0941 -17.0256 -15.1479 -15.0696 -14.8983 -14.8104
   -14.7024 -14.6728 -13.8026 -13.6761 -13.4858 -13.4092  -2.9840  -2.8793
    -1.5087  -1.4580  -1.2923  -1.2297  -0.8927  -0.8325   2.0558   2.1941
     2.4700   2.5389   2.6607   2.6917   3.1805   3.2269   4.3050   4.4199

          k = 0.3187-0.7360-0.1869 (  5106 PWs)   bands (ev):

   -33.6906 -33.6906 -17.0590 -17.0590 -15.0972 -15.0972 -14.8957 -14.8957
   -14.6667 -14.6667 -13.7179 -13.7179 -13.4610 -13.4610  -2.9317  -2.9317
    -1.4885  -1.4885  -1.2501  -1.2501  -0.8788  -0.8788   2.1634   2.1634
     2.4541   2.4541   2.7149   2.7149   3.1943   3.1943   4.3632   4.3632

          k = 0.6374-0.3680-0.2337 (  5091 PWs)   bands (ev):

   -33.6925 -33.6887 -17.1533 -16.9586 -15.2013 -15.1978 -14.7653 -14.7290
   -14.7194 -14.5765 -13.9082 -13.8104 -13.4023 -13.3662  -3.1189  -2.7986
    -1.5950  -1.3670  -1.2336  -1.2215  -0.9726  -0.8556   1.9365   2.2523
     2.4716   2.6996   2.7304   2.7876   3.1166   3.2381   4.1434   4.4727

          k = 0.4780-0.4600-0.1869 (  5111 PWs)   bands (ev):

   -33.6927 -33.6886 -17.1360 -16.9790 -15.1998 -15.1172 -14.8689 -14.7353
   -14.7104 -14.6108 -13.8917 -13.6860 -13.4828 -13.3707  -3.0727  -2.8457
    -1.5691  -1.3831  -1.2681  -1.2250  -1.0097  -0.8110   2.0021   2.2960
     2.4330   2.6499   2.6880   2.8143   3.1110   3.2590   4.1979   4.4416

          k = 0.4780-0.2760-0.1402 (  5106 PWs)   bands (ev):

   -33.6937 -33.6877 -17.1406 -16.9776 -15.1664 -15.1363 -14.8492 -14.7376
   -14.7221 -14.6375 -13.8336 -13.6986 -13.4798 -13.4007  -3.0927  -2.9011
    -1.5668  -1.3724  -1.2909  -1.2298  -1.1215  -0.7681   2.0820   2.3998
     2.4296   2.6717   2.7005   2.9866   2.9974   3.3075   4.1754   4.3749

          k = 0.0000 0.0000 0.2804 (  5121 PWs)   bands (ev):

   -33.6955 -33.6867 -17.0821 -17.0754 -15.0894 -15.0894 -14.8402 -14.8402
   -14.6522 -14.5759 -13.8042 -13.8042 -13.4374 -13.4374  -3.2983  -3.1161
    -1.4950  -1.4950  -1.4763  -1.3122  -1.3122  -0.5727   2.4198   2.4198
     2.7186   2.7186   3.0461   3.0461   3.4714   3.4714   3.8295   4.1251

          k =-0.1593-0.0920 0.3271 (  5111 PWs)   bands (ev):

   -33.6946 -33.6875 -17.0798 -17.0736 -15.1146 -15.0049 -14.9544 -14.7893
   -14.6687 -14.6082 -13.8165 -13.6650 -13.5385 -13.4237  -3.2443  -3.1163
    -1.4794  -1.4745  -1.3644  -1.3250  -1.2989  -0.6615   2.4380   2.4777
     2.6594   2.6736   2.9288   3.0548   3.3230   3.4077   3.9483   4.1331

          k = 0.9561 0.5520 0.0000 (  5095 PWs)   bands (ev):

   -33.6929 -33.6888 -17.0724 -17.0692 -15.1234 -15.0285 -14.9500 -14.7511
   -14.7273 -14.6296 -13.7862 -13.6081 -13.5863 -13.4265  -3.1505  -3.0449
    -1.4610  -1.4403  -1.3570  -1.3096  -1.1280  -0.7654   2.3624   2.4835
     2.5962   2.6215   2.7345   3.0104   3.1305   3.2629   4.1200   4.2121

          k = 0.7967 0.4600 0.0467 (  5111 PWs)   bands (ev):

   -33.6910 -33.6904 -17.0985 -17.0289 -15.1549 -15.0310 -14.9439 -14.8075
   -14.7019 -14.6234 -13.7791 -13.6694 -13.5201 -13.4216  -3.0906  -2.9170
    -1.5326  -1.3921  -1.3384  -1.2312  -0.9618  -0.8580   2.1481   2.3083
     2.5197   2.6484   2.7035   2.9768   3.0304   3.1663   4.2016   4.3404

          k = 0.6374 0.3680 0.0935 (  5117 PWs)   bands (ev):

   -33.6921 -33.6892 -17.1318 -16.9830 -15.1607 -15.1562 -14.8316 -14.8092
   -14.7050 -14.5940 -13.8177 -13.7453 -13.4395 -13.4146  -3.0824  -2.8375
    -1.5896  -1.3420  -1.3001  -1.1970  -0.9820  -0.8528   1.9905   2.2729
     2.4354   2.6881   2.7072   2.9067   3.0589   3.1959   4.1883   4.4324

          k =-0.1593 0.0920 0.3739 (  5105 PWs)   bands (ev):

   -33.6940 -33.6881 -17.0857 -17.0688 -15.0963 -15.0016 -14.9467 -14.8266
   -14.6486 -14.6383 -13.7625 -13.6605 -13.5389 -13.4628  -3.2265  -3.1457
    -1.4719  -1.4431  -1.3769  -1.3125  -1.2667  -0.7217   2.4518   2.4982
     2.6122   2.6618   2.9740   3.0929   3.2589   3.4073   3.9654   4.1049

          k = 0.9561 0.7360 0.0467 (  5101 PWs)   bands (ev):

   -33.6928 -33.6890 -17.0860 -17.0608 -15.0974 -15.0515 -14.9001 -14.8022
   -14.6979 -14.6548 -13.7318 -13.6757 -13.5231 -13.4711  -3.1437  -3.1121
    -1.4457  -1.4220  -1.3913  -1.3050  -1.1223  -0.8034   2.4161   2.4537
     2.6020   2.6208   2.8539   3.0218   3.1273   3.3086   4.1047   4.1522

          k = 0.7967 0.6440 0.0935 (  5102 PWs)   bands (ev):

   -33.6914 -33.6901 -17.0789 -17.0562 -15.1198 -15.0516 -14.8989 -14.7903
   -14.7217 -14.6763 -13.7510 -13.6631 -13.5226 -13.4435  -3.0763  -2.9934
    -1.4857  -1.4019  -1.3647  -1.2687  -0.9679  -0.8548   2.2456   2.3133
     2.6011   2.6167   2.7084   2.8855   3.1130   3.1930   4.2138   4.2766

          k = 0.6374 0.5520 0.1402 (  5100 PWs)   bands (ev):

   -33.6914 -33.6898 -17.1150 -17.0061 -15.1481 -15.1168 -14.8741 -14.7584
   -14.7119 -14.6610 -13.8012 -13.7216 -13.4649 -13.4095  -3.0605  -2.8632
    -1.5585  -1.3784  -1.3039  -1.2310  -0.9110  -0.8645   2.0392   2.2358
     2.4860   2.6458   2.6858   2.8006   3.1318   3.1861   4.2250   4.4135

          k = 0.9561-0.5520-0.2804 (  5112 PWs)   bands (ev):

   -33.6923 -33.6894 -17.1073 -17.0357 -15.1470 -14.9830 -14.9303 -14.7974
   -14.7107 -14.6435 -13.7744 -13.6421 -13.5403 -13.4469  -3.1462  -3.0598
    -1.4923  -1.3929  -1.3438  -1.2956  -1.0534  -0.8625   2.3372   2.4096
     2.6012   2.6487   2.8452   2.9674   3.0741   3.2998   4.1321   4.1889

          k = 0.7967-0.6440-0.2337 (  5096 PWs)   bands (ev):

   -33.6915 -33.6899 -17.1012 -17.0337 -15.1390 -15.0532 -14.8669 -14.7773
   -14.7234 -14.6909 -13.7560 -13.6991 -13.4859 -13.4473  -3.0890  -2.9822
    -1.4991  -1.4096  -1.3092  -1.2894  -0.9495  -0.8799   2.2114   2.3125
     2.5887   2.6560   2.7503   2.8188   3.1070   3.2244   4.1977   4.2911

          k = 0.6374-0.7360-0.1869 (  5112 PWs)   bands (ev):

   -33.6906 -33.6906 -17.0636 -17.0636 -15.0895 -15.0895 -14.8448 -14.8448
   -14.7175 -14.7175 -13.7146 -13.7146 -13.4645 -13.4645  -2.9637  -2.9637
    -1.4732  -1.4732  -1.2811  -1.2811  -0.8661  -0.8661   2.1535   2.1535
     2.5699   2.5699   2.6921   2.6921   3.1773   3.1773   4.3287   4.3287

          k = 0.7967-0.4600-0.1869 (  5098 PWs)   bands (ev):

   -33.6915 -33.6898 -17.1263 -16.9998 -15.1888 -15.0873 -14.8501 -14.7595
   -14.7198 -14.6197 -13.8212 -13.7526 -13.4535 -13.4013  -3.1209  -2.8880
    -1.5574  -1.3654  -1.2990  -1.2462  -0.9292  -0.8995   2.0888   2.2936
     2.5617   2.6742   2.7009   2.8698   3.0816   3.2087   4.1652   4.3735

          k = 0.0000 0.0000 0.4206 (  5064 PWs)   bands (ev):

   -33.6935 -33.6887 -17.0815 -17.0778 -15.0428 -15.0428 -14.9109 -14.9109
   -14.6334 -14.5921 -13.7068 -13.7068 -13.5112 -13.5112  -3.2738  -3.1787
    -1.4530  -1.4530  -1.3542  -1.3542  -1.2546  -0.7682   2.4898   2.4898
     2.6503   2.6503   3.1365   3.1365   3.3644   3.3644   3.8910   4.0486

          k = 1.1154 0.6440 0.0935 (  5095 PWs)   bands (ev):

   -33.6925 -33.6895 -17.0787 -17.0764 -15.0810 -15.0111 -14.9544 -14.8516
   -14.6488 -14.6136 -13.7365 -13.6098 -13.5945 -13.4807  -3.2254  -3.1629
    -1.4423  -1.4145  -1.3694  -1.3679  -1.1346  -0.8489   2.4844   2.5292
     2.5978   2.6145   3.0243   3.1687   3.2017   3.3159   3.9896   4.0736

          k = 0.9561 0.5520 0.1402 (  5098 PWs)   bands (ev):

   -33.6912 -33.6905 -17.0919 -17.0515 -15.1400 -14.9917 -14.9529 -14.7831
   -14.7094 -14.6292 -13.7850 -13.6050 -13.5838 -13.4351  -3.1559  -3.0525
    -1.4789  -1.3742  -1.3619  -1.3227  -0.9964  -0.9035   2.3438   2.4369
     2.6057   2.6334   2.8003   3.0147   3.1196   3.2200   4.1200   4.2004

          k = 1.1154-0.6440-0.2337 (  5094 PWs)   bands (ev):

   -33.6918 -33.6902 -17.0830 -17.0726 -15.0726 -15.0101 -14.9381 -14.8816
   -14.6362 -14.6287 -13.7048 -13.6228 -13.5762 -13.5105  -3.2010  -3.1919
    -1.4326  -1.4044  -1.3918  -1.3586  -1.0654  -0.9206   2.5129   2.5273
     2.5756   2.6026   3.0710   3.1466   3.1989   3.2988   4.0151   4.0440

          k = 0.9561-0.7360-0.1869 (  5094 PWs)   bands (ev):

   -33.6909 -33.6909 -17.0740 -17.0740 -15.0759 -15.0759 -14.8578 -14.8578
   -14.6678 -14.6678 -13.6982 -13.6982 -13.5024 -13.5024  -3.1327  -3.1327
    -1.4285  -1.4285  -1.3470  -1.3470  -0.9623  -0.9623   2.4331   2.4331
     2.6052   2.6052   2.9493   2.9493   3.2057   3.2057   4.1249   4.1249

          k = 0.0000 0.0000-0.5608 (  5076 PWs)   bands (ev):

   -33.6911 -33.6911 -17.0800 -17.0800 -14.9815 -14.9815 -14.9815 -14.9815
   -14.6122 -14.6122 -13.6044 -13.6044 -13.6044 -13.6044  -3.2338  -3.2338
    -1.4036  -1.4036  -1.4036  -1.4036  -1.0065  -1.0065   2.5707   2.5707
     2.5707   2.5707   3.2466   3.2466   3.2466   3.2466   3.9668   3.9668

     highest occupied level (ev):     4.4874

!    total energy              =    -367.43036143 Ry
     Harris-Foulkes estimate   =    -367.43036447 Ry
     estimated scf accuracy    <       0.00000479 Ry

     The total energy is the sum of the following terms:

     one-electron contribution =    -148.11921542 Ry
     hartree contribution      =     103.42480523 Ry
     xc contribution           =     -75.26258837 Ry
     ewald contribution        =    -247.47336287 Ry

     convergence has been achieved in   7 iterations

     Forces acting on atoms (cartesian axes, Ry/au):

     atom    1 type  1   force =    -0.00000000    0.00000000    0.00000000
     atom    2 type  1   force =     0.00000000    0.00000000    0.00000000
     atom    3 type  2   force =     0.00000000   -0.00000000    0.00000000
     atom    4 type  2   force =    -0.00000000    0.00000000   -0.00000000
     atom    5 type  3   force =     0.00003550   -0.00006150   -0.00000000
     atom    6 type  3   force =    -0.00007101   -0.00000000    0.00000000
     atom    7 type  3   force =     0.00003550    0.00006150    0.00000000
     atom    8 type  3   force =     0.00007101    0.00000000   -0.00000000
     atom    9 type  3   force =    -0.00003550   -0.00006150   -0.00000000
     atom   10 type  3   force =    -0.00003550    0.00006150    0.00000000

     Total force =     0.000174     Total SCF correction =     0.000140
     SCF correction compared to forces is large: reduce conv_thr to get better values


     Computing stress (Cartesian axis) and pressure

          total   stress  (Ry/bohr**3)                   (kbar)     P=   -4.92
  -0.00003467   0.00000000   0.00000000         -5.10      0.00      0.00
   0.00000000  -0.00003467  -0.00000000          0.00     -5.10     -0.00
   0.00000000  -0.00000000  -0.00003094          0.00     -0.00     -4.55


     BFGS Geometry Optimization

     number of scf cycles    =   1
     number of bfgs steps    =   0

     enthalpy new            =    -367.4303614255 Ry

     new trust radius        =       0.0050682116 bohr
     new conv_thr            =       0.0000100000 Ry

     new unit-cell volume =    852.63080 a.u.^3 (   126.34685 Ang^3 )
     density =      2.63087 g/cm^3

CELL_PARAMETERS (alat= 12.16200000)
   0.391897197  -0.226261952   0.890863329
   0.000000000   0.452523904   0.890863329
  -0.391897197  -0.226261952   0.890863329

ATOMIC_POSITIONS (crystal)
Ca       0.500000000   0.500000000   0.500000000
Ca       0.000000000   0.000000000   0.000000000
C        0.250000000   0.250000000   0.250000000
C        0.750000000   0.750000000   0.750000000
O        0.506907688   0.993092312   0.250000000
O        0.993092312   0.250000000   0.506907688
O        0.250000000   0.506907688   0.993092312
O        0.006907688   0.750000000   0.493092312
O        0.750000000   0.493092312   0.006907688
O        0.493092312   0.006907688   0.750000000



     Writing output data file CCO_k.save/
     NEW-OLD atomic charge density approx. for the potential

     Check: negative core charge=   -0.000003
     extrapolated charge   63.83931, renormalised to   64.00000

     total cpu time spent up to now is     1427.2 secs

     Self-consistent Calculation

     iteration #  1     ecut=    50.00 Ry     beta= 0.70
     CG style diagonalization
     ethr =  1.00E-06,  avg # of iterations =  3.6

     total cpu time spent up to now is     1618.1 secs

     total energy              =    -367.42876160 Ry
     Harris-Foulkes estimate   =    -367.71754457 Ry
     estimated scf accuracy    <       0.00119749 Ry

     iteration #  2     ecut=    50.00 Ry     beta= 0.70
     CG style diagonalization
     ethr =  1.87E-06,  avg # of iterations =  4.9

     total cpu time spent up to now is     1855.7 secs

     total energy              =    -367.43023197 Ry
     Harris-Foulkes estimate   =    -367.43151750 Ry
     estimated scf accuracy    <       0.00351681 Ry

     iteration #  3     ecut=    50.00 Ry     beta= 0.70
     CG style diagonalization
     ethr =  1.87E-06,  avg # of iterations =  3.8

     total cpu time spent up to now is     2037.4 secs

     total energy              =    -367.43039544 Ry
     Harris-Foulkes estimate   =    -367.43049724 Ry
     estimated scf accuracy    <       0.00040369 Ry

     iteration #  4     ecut=    50.00 Ry     beta= 0.70
     CG style diagonalization
     ethr =  6.31E-07,  avg # of iterations =  3.0

     total cpu time spent up to now is     2181.8 secs

     total energy              =    -367.43036040 Ry
     Harris-Foulkes estimate   =    -367.43040818 Ry
     estimated scf accuracy    <       0.00017572 Ry

     iteration #  5     ecut=    50.00 Ry     beta= 0.70
     CG style diagonalization
     ethr =  2.75E-07,  avg # of iterations =  3.1

     total cpu time spent up to now is     2330.3 secs

     total energy              =    -367.43035333 Ry
     Harris-Foulkes estimate   =    -367.43036989 Ry
     estimated scf accuracy    <       0.00005002 Ry

     iteration #  6     ecut=    50.00 Ry     beta= 0.70
     CG style diagonalization
     ethr =  7.82E-08,  avg # of iterations =  3.4

     total cpu time spent up to now is     2493.9 secs

     End of self-consistent calculation

          k = 0.0000 0.0000 0.0000 (  5161 PWs)   bands (ev):

   -33.6605 -33.6477 -17.0736 -17.0651 -15.1000 -15.1000 -14.7276 -14.7276
   -14.6340 -14.5271 -13.8902 -13.8902 -13.3503 -13.3503  -3.2911  -3.0153
    -1.6805  -1.5167  -1.5167  -1.2549  -1.2549  -0.3868   2.3764   2.3764
     2.8094   2.8094   2.9847   2.9847   3.5995   3.5995   3.8005   4.2293

          k =-0.1595-0.0921 0.0468 (  5131 PWs)   bands (ev):

   -33.6599 -33.6482 -17.0770 -17.0570 -15.0991 -15.0518 -14.7817 -14.7256
   -14.6528 -14.6045 -13.8562 -13.7649 -13.4128 -13.3619  -3.2284  -3.0238
    -1.6238  -1.4922  -1.4669  -1.2823  -1.2463  -0.4532   2.4072   2.4463
     2.7419   2.7895   2.8684   2.9235   3.5028   3.5234   3.9372   4.2344

          k =-0.3190-0.1842 0.0935 (  5105 PWs)   bands (ev):

   -33.6584 -33.6494 -17.0938 -17.0260 -15.0971 -14.9774 -14.9258 -14.7503
   -14.6505 -14.6386 -13.7750 -13.5925 -13.5422 -13.3975  -3.0874  -3.0213
    -1.5337  -1.4276  -1.3286  -1.2971  -1.2451  -0.5978   2.4415   2.4909
     2.6151   2.6512   2.7651   2.8108   3.3315   3.3653   4.1670   4.2493

          k =-0.4784-0.2762 0.1403 (  5098 PWs)   bands (ev):

   -33.6561 -33.6513 -17.0861 -17.0202 -15.0743 -14.9906 -14.9654 -14.8433
   -14.6330 -14.6091 -13.6808 -13.5976 -13.5247 -13.4631  -2.9793  -2.9674
    -1.5231  -1.4057  -1.2454  -1.2356  -1.1149  -0.7407   2.2347   2.3276
     2.5679   2.6082   2.7713   2.8685   3.1789   3.2079   4.2860   4.3221

          k = 0.6379 0.3683-0.1871 (  5096 PWs)   bands (ev):

   -33.6536 -33.6536 -17.0512 -17.0512 -14.9873 -14.9873 -14.9737 -14.9737
   -14.6147 -14.6147 -13.5689 -13.5689 -13.5528 -13.5528  -2.9367  -2.9367
    -1.4837  -1.4837  -1.2095  -1.2095  -0.9019  -0.9019   2.1802   2.1802
     2.5664   2.5664   2.8636   2.8636   3.1255   3.1255   4.3394   4.3394

          k =-0.1595 0.0921 0.0935 (  5121 PWs)   bands (ev):

   -33.6598 -33.6483 -17.0785 -17.0560 -15.0744 -15.0723 -14.7735 -14.7293
   -14.6455 -14.6304 -13.8110 -13.7910 -13.3961 -13.3874  -3.2249  -3.0329
    -1.6042  -1.4846  -1.4736  -1.2869  -1.2430  -0.4669   2.4079   2.4521
     2.7432   2.7501   2.9008   2.9361   3.4674   3.5445   3.9387   4.2267

          k =-0.3190 0.0000 0.1403 (  5099 PWs)   bands (ev):

   -33.6586 -33.6492 -17.0933 -17.0317 -15.0791 -15.0324 -14.8402 -14.7462
   -14.6759 -14.6430 -13.7629 -13.6746 -13.4750 -13.4061  -3.1205  -3.0391
    -1.5239  -1.4453  -1.3867  -1.2971  -1.2313  -0.5779   2.4344   2.5153
     2.6153   2.6999   2.7694   2.8748   3.3185   3.4427   4.1135   4.2340

          k =-0.4784-0.0921 0.1871 (  5099 PWs)   bands (ev):

   -33.6567 -33.6508 -17.0910 -17.0205 -15.0843 -15.0409 -14.8777 -14.8145
   -14.6380 -14.6291 -13.6976 -13.6750 -13.4649 -13.4484  -3.0016  -2.9983
    -1.5012  -1.3969  -1.3298  -1.2247  -1.1489  -0.7040   2.3051   2.4208
     2.5458   2.6040   2.7435   2.8589   3.1688   3.3018   4.2724   4.2904

          k = 0.6379 0.5525-0.1403 (  5105 PWs)   bands (ev):

   -33.6544 -33.6528 -17.0573 -17.0464 -15.0672 -15.0086 -14.9298 -14.8877
   -14.6229 -14.6183 -13.6829 -13.6044 -13.5190 -13.4524  -2.9485  -2.9243
    -1.4785  -1.4681  -1.2574  -1.2008  -0.9504  -0.8312   2.1901   2.2284
     2.5141   2.5517   2.7874   2.8490   3.1298   3.2017   4.3456   4.3517

          k = 0.4784 0.4604-0.0935 (  5101 PWs)   bands (ev):

   -33.6551 -33.6521 -17.0872 -17.0140 -15.0999 -14.9898 -14.9777 -14.8216
   -14.6430 -14.5936 -13.7279 -13.5868 -13.5264 -13.4290  -2.9735  -2.8970
    -1.5344  -1.3977  -1.2518  -1.1959  -1.0155  -0.7988   2.1369   2.2925
     2.4834   2.5765   2.7474   2.8743   3.1536   3.2040   4.3030   4.3959

          k = 0.3190 0.3683-0.0468 (  5097 PWs)   bands (ev):

   -33.6573 -33.6502 -17.1064 -17.0019 -15.1088 -15.0316 -14.9043 -14.7605
   -14.6627 -14.6144 -13.7385 -13.6517 -13.4759 -13.4251  -3.0177  -2.9747
    -1.5318  -1.3700  -1.2891  -1.2332  -1.2177  -0.6814   2.2803   2.4639
     2.5447   2.6210   2.6696   2.8751   3.2058   3.3181   4.2576   4.3113

          k = 0.1595 0.2762 0.0000 (  5113 PWs)   bands (ev):

   -33.6590 -33.6488 -17.0953 -17.0286 -15.0751 -15.0435 -14.8056 -14.7781
   -14.6664 -14.6486 -13.7701 -13.6820 -13.4655 -13.4017  -3.1192  -3.0300
    -1.5510  -1.4441  -1.3956  -1.3128  -1.2239  -0.5499   2.4367   2.5319
     2.5952   2.7310   2.7597   2.8263   3.3611   3.4457   4.1120   4.2436

          k =-0.3190 0.1842 0.1871 (  5096 PWs)   bands (ev):

   -33.6581 -33.6496 -17.1099 -17.0113 -15.0752 -15.0507 -14.7819 -14.7755
   -14.7079 -14.6541 -13.7177 -13.6808 -13.4672 -13.4345  -3.0682  -3.0518
    -1.4724  -1.4320  -1.4122  -1.2332  -1.2154  -0.6428   2.3872   2.4495
     2.6051   2.6805   2.7555   2.9417   3.1936   3.4413   4.1920   4.2110

          k =-0.4784 0.0921 0.2339 (  5107 PWs)   bands (ev):

   -33.6568 -33.6507 -17.1164 -16.9947 -15.1285 -15.0444 -14.8338 -14.7530
   -14.6569 -14.6470 -13.7813 -13.6471 -13.4806 -13.3980  -3.0550  -2.9482
    -1.4952  -1.3933  -1.3506  -1.2016  -1.1171  -0.7305   2.2228   2.4112
     2.5357   2.6667   2.7278   2.9256   3.0805   3.3609   4.2250   4.3324

          k = 0.6379 0.7366-0.0935 (  5101 PWs)   bands (ev):

   -33.6551 -33.6521 -17.0892 -17.0162 -15.1315 -14.9810 -14.9237 -14.7954
   -14.6537 -14.6193 -13.7901 -13.5772 -13.5320 -13.3874  -2.9743  -2.8984
    -1.4728  -1.4365  -1.3224  -1.1899  -0.9543  -0.7938   2.1353   2.2857
     2.5060   2.5581   2.7126   2.8034   3.1355   3.2800   4.3093   4.4048

          k = 0.4784 0.6445-0.0468 (  5106 PWs)   bands (ev):

   -33.6539 -33.6532 -17.0651 -17.0369 -15.0899 -15.0453 -14.9195 -14.7927
   -14.6629 -14.6184 -13.7375 -13.6601 -13.4658 -13.4088  -2.9289  -2.8846
    -1.5175  -1.3939  -1.3108  -1.1836  -0.8986  -0.8281   2.1498   2.2061
     2.4557   2.5138   2.7068   2.7591   3.1975   3.2364   4.3673   4.4139

          k = 0.3190 0.5525 0.0000 (  5103 PWs)   bands (ev):

   -33.6557 -33.6515 -17.1017 -16.9982 -15.1443 -14.9919 -14.9778 -14.7174
   -14.6798 -14.5855 -13.8091 -13.5989 -13.5139 -13.3780  -2.9881  -2.8794
    -1.5456  -1.3413  -1.2836  -1.2012  -1.0674  -0.7590   2.1362   2.3805
     2.4474   2.5263   2.6830   2.8469   3.1936   3.2515   4.2931   4.4259

          k =-0.4784 0.2762 0.2806 (  5108 PWs)   bands (ev):

   -33.6564 -33.6510 -17.1403 -16.9631 -15.1524 -15.1339 -14.7420 -14.7044
   -14.6604 -14.6316 -13.8299 -13.7555 -13.4075 -13.3667  -3.0973  -2.8524
    -1.5444  -1.3636  -1.2930  -1.1841  -1.0434  -0.7949   2.0736   2.3496
     2.5080   2.7367   2.7534   2.8869   3.0613   3.3432   4.1754   4.4220

          k = 0.6379 0.9208-0.0468 (  5114 PWs)   bands (ev):

   -33.6556 -33.6517 -17.1327 -16.9675 -15.1723 -15.1169 -14.7635 -14.7146
   -14.6693 -14.5966 -13.8784 -13.7226 -13.4174 -13.3447  -3.0637  -2.8064
    -1.5378  -1.3915  -1.2780  -1.1739  -0.9513  -0.8157   2.0020   2.2778
     2.5110   2.6982   2.7278   2.7452   3.1458   3.2935   4.2097   4.4806

          k = 0.4784 0.8287 0.0000 (  5106 PWs)   bands (ev):

   -33.6545 -33.6527 -17.0888 -17.0147 -15.1292 -15.0386 -14.8257 -14.8107
   -14.6824 -14.6234 -13.7883 -13.6630 -13.4526 -13.3852  -2.9637  -2.8496
    -1.4619  -1.4616  -1.3208  -1.1751  -0.8706  -0.8214   2.0649   2.2167
     2.5110   2.5599   2.6789   2.6988   3.1968   3.2646   4.3264   4.4523

          k = 0.6379-0.3683-0.3742 (  5104 PWs)   bands (ev):

   -33.6557 -33.6515 -17.1526 -16.9418 -15.1885 -15.1856 -14.7100 -14.6830
   -14.6607 -14.5351 -13.9293 -13.8198 -13.3649 -13.3247  -3.1083  -2.7584
    -1.5765  -1.3615  -1.2373  -1.1658  -0.9492  -0.8487   1.9376   2.2583
     2.5330   2.7115   2.7556   2.7679   3.1576   3.2812   4.1522   4.5154

          k = 0.0000 0.0000 0.1403 (  5131 PWs)   bands (ev):

   -33.6600 -33.6482 -17.0737 -17.0658 -15.0901 -15.0901 -14.7501 -14.7501
   -14.6293 -14.5306 -13.8614 -13.8614 -13.3667 -13.3667  -3.2876  -3.0374
    -1.6225  -1.5067  -1.5067  -1.2649  -1.2649  -0.4309   2.3933   2.3933
     2.7902   2.7902   3.0083   3.0083   3.5720   3.5720   3.8146   4.2084

          k =-0.1595-0.0921 0.1871 (  5129 PWs)   bands (ev):

   -33.6592 -33.6489 -17.0748 -17.0603 -15.1032 -15.0188 -14.8535 -14.7166
   -14.6506 -14.5819 -13.8519 -13.7124 -13.4546 -13.3664  -3.2283  -3.0478
    -1.5583  -1.4822  -1.4295  -1.2877  -1.2688  -0.5152   2.4252   2.4623
     2.7175   2.7692   2.8777   2.9856   3.4529   3.4903   3.9487   4.2092

          k =-0.3190-0.1842 0.2339 (  5096 PWs)   bands (ev):

   -33.6574 -33.6503 -17.0787 -17.0436 -15.0941 -14.9836 -14.9380 -14.7364
   -14.6665 -14.6105 -13.7740 -13.5769 -13.5676 -13.3968  -3.1098  -3.0160
    -1.4961  -1.4317  -1.3226  -1.2720  -1.2283  -0.6502   2.4126   2.5589
     2.5670   2.6414   2.7604   2.8914   3.2699   3.3299   4.1550   4.2484

          k = 0.7974 0.4604-0.0935 (  5108 PWs)   bands (ev):

   -33.6552 -33.6522 -17.0558 -17.0538 -15.0720 -14.9991 -14.9445 -14.8469
   -14.6376 -14.6066 -13.6913 -13.5789 -13.5624 -13.4393  -3.0209  -2.9321
    -1.4682  -1.4624  -1.2825  -1.2231  -1.0268  -0.7806   2.2468   2.3042
     2.5499   2.6146   2.7863   2.9154   3.1117   3.1969   4.2740   4.3281

          k = 0.6379 0.3683-0.0468 (  5111 PWs)   bands (ev):

   -33.6544 -33.6528 -17.0908 -17.0105 -15.0684 -15.0629 -14.8901 -14.8775
   -14.6446 -14.5845 -13.6837 -13.6405 -13.4753 -13.4680  -3.0030  -2.8694
    -1.5441  -1.3971  -1.2617  -1.1722  -0.9494  -0.8585   2.0907   2.2591
     2.4930   2.6447   2.7718   2.9806   3.0427   3.1777   4.2747   4.4033

          k = 0.4784 0.2762 0.0000 (  5093 PWs)   bands (ev):

   -33.6567 -33.6507 -17.1136 -16.9896 -15.1193 -15.0430 -14.9051 -14.7740
   -14.6616 -14.5932 -13.7594 -13.5947 -13.5226 -13.4122  -3.0271  -2.9160
    -1.5502  -1.3574  -1.2492  -1.2216  -1.1578  -0.7325   2.1604   2.3942
     2.5143   2.6731   2.6843   2.9535   3.1146   3.2825   4.2422   4.3670

          k = 0.3190 0.1842 0.0468 (  5097 PWs)   bands (ev):

   -33.6586 -33.6491 -17.1048 -17.0146 -15.0837 -15.0284 -14.8532 -14.7521
   -14.6737 -14.6557 -13.7564 -13.6328 -13.5022 -13.4093  -3.0667  -3.0396
    -1.5216  -1.4230  -1.3967  -1.2730  -1.2220  -0.5965   2.4291   2.4579
     2.6363   2.6572   2.7170   2.8739   3.2835   3.4262   4.1795   4.2363

          k =-0.1595 0.0921 0.2339 (  5112 PWs)   bands (ev):

   -33.6588 -33.6493 -17.0789 -17.0573 -15.0782 -15.0308 -14.8423 -14.7401
   -14.6319 -14.6230 -13.7838 -13.7322 -13.4409 -13.4057  -3.2177  -3.0711
    -1.5150  -1.4608  -1.4401  -1.2989  -1.2598  -0.5547   2.4296   2.4785
     2.6905   2.7303   2.9274   3.0194   3.3894   3.5116   3.9563   4.1884

          k =-0.3190 0.0000 0.2806 (  5103 PWs)   bands (ev):

   -33.6575 -33.6503 -17.0874 -17.0404 -15.0798 -15.0166 -14.8741 -14.7187
   -14.7002 -14.6262 -13.7426 -13.6588 -13.4944 -13.4213  -3.1224  -3.0618
    -1.4603  -1.4410  -1.3792  -1.2553  -1.2303  -0.6603   2.4320   2.4938
     2.6341   2.6612   2.8051   2.9677   3.2268   3.4081   4.1192   4.2093

          k = 0.7974 0.6445-0.0468 (  5092 PWs)   bands (ev):

   -33.6557 -33.6518 -17.0708 -17.0450 -15.0742 -15.0398 -14.8662 -14.8105
   -14.6596 -14.6287 -13.7186 -13.6359 -13.5048 -13.4275  -3.0294  -2.9823
    -1.4495  -1.4219  -1.3627  -1.2302  -1.0495  -0.7592   2.3023   2.3631
     2.5866   2.6063   2.7441   2.9212   3.1015   3.2735   4.2632   4.2893

          k = 0.6379 0.5525 0.0000 (  5105 PWs)   bands (ev):

   -33.6536 -33.6536 -17.0791 -17.0261 -15.0986 -15.0146 -14.9313 -14.8078
   -14.6519 -14.6118 -13.7372 -13.6111 -13.5158 -13.4114  -2.9976  -2.8766
    -1.5227  -1.3851  -1.3151  -1.1869  -0.8895  -0.8684   2.1294   2.2496
     2.4873   2.6159   2.7437   2.8753   3.1149   3.2031   4.2962   4.3990

          k = 0.4784 0.4604 0.0468 (  5105 PWs)   bands (ev):

   -33.6556 -33.6517 -17.1118 -16.9873 -15.1477 -15.0437 -14.9177 -14.7350
   -14.6709 -14.5765 -13.8168 -13.5955 -13.5187 -13.3750  -3.0171  -2.8516
    -1.5588  -1.3356  -1.2786  -1.1934  -1.0331  -0.7868   2.0719   2.3387
     2.4371   2.6325   2.7080   2.8937   3.1319   3.2459   4.2585   4.4393

          k = 0.3190 0.3683 0.0935 (  5104 PWs)   bands (ev):

   -33.6574 -33.6501 -17.1153 -16.9928 -15.1234 -15.0398 -14.8827 -14.7290
   -14.6757 -14.6230 -13.7733 -13.6330 -13.4925 -13.4014  -3.0376  -2.9562
    -1.5252  -1.3688  -1.3253  -1.2153  -1.1898  -0.6918   2.2469   2.4620
     2.5374   2.6209   2.6866   2.9087   3.1573   3.3515   4.2400   4.3263

          k =-0.3190 0.1842 0.3274 (  5101 PWs)   bands (ev):

   -33.6570 -33.6508 -17.1082 -17.0161 -15.1072 -15.0032 -14.8324 -14.7533
   -14.7063 -14.6323 -13.7260 -13.6688 -13.4722 -13.4409  -3.0990  -3.0424
    -1.4748  -1.3951  -1.3755  -1.2332  -1.1616  -0.7303   2.3652   2.4306
     2.6118   2.6831   2.8113   3.0164   3.0823   3.4052   4.1820   4.2042

          k = 0.7974 0.8287 0.0000 (  5107 PWs)   bands (ev):

   -33.6559 -33.6516 -17.1088 -17.0066 -15.1248 -15.0363 -14.8050 -14.7624
   -14.6876 -14.6426 -13.7621 -13.6744 -13.4578 -13.4131  -3.0654  -2.9496
    -1.4821  -1.3969  -1.3381  -1.2194  -1.0292  -0.7902   2.2174   2.3595
     2.5701   2.6968   2.7605   2.8801   3.0702   3.3256   4.2188   4.3291

          k = 0.6379 0.7366 0.0468 (  5101 PWs)   bands (ev):

   -33.6544 -33.6528 -17.0744 -17.0349 -15.1044 -15.0134 -14.8639 -14.8023
   -14.6757 -14.6526 -13.7509 -13.6317 -13.4851 -13.4074  -2.9585  -2.9178
    -1.4618  -1.4371  -1.3329  -1.2034  -0.8939  -0.8210   2.1464   2.2234
     2.5499   2.5899   2.7143   2.7536   3.1479   3.2548   4.3301   4.3822

          k = 0.4784 0.6445 0.0935 (  5097 PWs)   bands (ev):

   -33.6542 -33.6530 -17.0774 -17.0252 -15.1042 -15.0413 -14.9157 -14.7500
   -14.6808 -14.6292 -13.7676 -13.6454 -13.4752 -13.3907  -2.9473  -2.8660
    -1.5224  -1.3886  -1.2973  -1.2047  -0.8974  -0.8134   2.1091   2.2138
     2.4638   2.5476   2.6893   2.7467   3.2034   3.2370   4.3468   4.4341

          k = 0.3190 0.5525 0.1403 (  5101 PWs)   bands (ev):

   -33.6556 -33.6517 -17.0986 -17.0030 -15.1425 -14.9784 -14.9697 -14.7557
   -14.6574 -14.5947 -13.8066 -13.5822 -13.5283 -13.3794  -2.9845  -2.8845
    -1.5252  -1.3866  -1.2686  -1.2160  -1.0241  -0.7692   2.1349   2.3474
     2.4694   2.5339   2.6944   2.8352   3.1661   3.2703   4.2970   4.4203

          k = 0.7974-0.4604-0.3274 (  5109 PWs)   bands (ev):

   -33.6556 -33.6518 -17.1354 -16.9712 -15.1705 -15.1056 -14.7267 -14.7128
   -14.6974 -14.6011 -13.8031 -13.7987 -13.3849 -13.3802  -3.1078  -2.8484
    -1.5456  -1.3624  -1.2658  -1.2085  -0.9808  -0.8382   2.0763   2.3136
     2.5709   2.7371   2.7547   2.8255   3.0864   3.3077   4.1720   4.4211

          k = 0.6379-0.5525-0.2806 (  5104 PWs)   bands (ev):

   -33.6551 -33.6521 -17.1255 -16.9773 -15.1444 -15.1263 -14.7692 -14.6866
   -14.6830 -14.6378 -13.8311 -13.7461 -13.4028 -13.3664  -3.0596  -2.8127
    -1.5392  -1.3884  -1.2598  -1.2039  -0.9192  -0.8299   2.0150   2.2585
     2.5430   2.6772   2.7114   2.7603   3.1542   3.2634   4.2200   4.4704

          k = 0.4784-0.6445-0.2339 (  5106 PWs)   bands (ev):

   -33.6544 -33.6528 -17.0858 -17.0174 -15.1209 -15.0419 -14.8679 -14.7783
   -14.6669 -14.6377 -13.7837 -13.6552 -13.4623 -13.3849  -2.9595  -2.8538
    -1.4920  -1.4416  -1.2754  -1.2112  -0.8772  -0.8175   2.0770   2.2160
     2.4920   2.5613   2.6826   2.7134   3.2042   3.2506   4.3320   4.4476

          k = 0.3190-0.7366-0.1871 (  5106 PWs)   bands (ev):

   -33.6536 -33.6536 -17.0508 -17.0508 -15.0695 -15.0695 -14.8649 -14.8649
   -14.6314 -14.6314 -13.6975 -13.6975 -13.4373 -13.4373  -2.9067  -2.9067
    -1.4722  -1.4722  -1.2319  -1.2319  -0.8640  -0.8640   2.1852   2.1852
     2.4762   2.4762   2.7366   2.7366   3.2179   3.2179   4.3905   4.3905

          k = 0.6379-0.3683-0.2339 (  5091 PWs)   bands (ev):

   -33.6556 -33.6517 -17.1451 -16.9505 -15.1745 -15.1712 -14.7305 -14.6944
   -14.6839 -14.5415 -13.8917 -13.7938 -13.3778 -13.3414  -3.0954  -2.7723
    -1.5784  -1.3502  -1.2172  -1.2028  -0.9565  -0.8416   1.9569   2.2739
     2.4933   2.7224   2.7541   2.8096   3.1401   3.2615   4.1694   4.5007

          k = 0.4784-0.4604-0.1871 (  5111 PWs)   bands (ev):

   -33.6557 -33.6515 -17.1278 -16.9709 -15.1732 -15.0897 -14.8374 -14.7005
   -14.6750 -14.5758 -13.8753 -13.6660 -13.4592 -13.3459  -3.0487  -2.8198
    -1.5525  -1.3663  -1.2515  -1.2062  -0.9940  -0.7969   2.0228   2.3179
     2.4547   2.6730   2.7108   2.8361   3.1344   3.2827   4.2243   4.4695

          k = 0.4784-0.2762-0.1403 (  5106 PWs)   bands (ev):

   -33.6568 -33.6506 -17.1325 -16.9694 -15.1395 -15.1087 -14.8171 -14.7039
   -14.6868 -14.6028 -13.8155 -13.6791 -13.4563 -13.3763  -3.0687  -2.8757
    -1.5503  -1.3551  -1.2758  -1.2108  -1.1049  -0.7546   2.1030   2.4218
     2.4514   2.6945   2.7241   3.0090   3.0203   3.3315   4.2018   4.4026

          k = 0.0000 0.0000 0.2806 (  5121 PWs)   bands (ev):

   -33.6586 -33.6496 -17.0737 -17.0677 -15.0608 -15.0608 -14.8072 -14.8072
   -14.6164 -14.5409 -13.7863 -13.7863 -13.4143 -13.4143  -3.2755  -3.0916
    -1.4782  -1.4782  -1.4646  -1.2934  -1.2934  -0.5584   2.4410   2.4410
     2.7413   2.7413   3.0702   3.0702   3.4961   3.4961   3.8551   4.1519

          k =-0.1595-0.0921 0.3274 (  5111 PWs)   bands (ev):

   -33.6576 -33.6504 -17.0719 -17.0652 -15.0865 -14.9751 -14.9242 -14.7553
   -14.6334 -14.5734 -13.7992 -13.6441 -13.5167 -13.4001  -3.2212  -3.0920
    -1.4643  -1.4574  -1.3483  -1.3064  -1.2825  -0.6474   2.4594   2.4994
     2.6820   2.6965   2.9521   3.0787   3.3471   3.4320   3.9744   4.1599

          k = 0.9569 0.5525 0.0000 (  5095 PWs)   bands (ev):

   -33.6560 -33.6517 -17.0641 -17.0612 -15.0956 -14.9998 -14.9196 -14.7182
   -14.6918 -14.5947 -13.7683 -13.5869 -13.5638 -13.4026  -3.1270  -3.0202
    -1.4435  -1.4251  -1.3390  -1.2915  -1.1130  -0.7513   2.3842   2.5063
     2.6189   2.6443   2.7562   3.0335   3.1538   3.2865   4.1466   4.2390

          k = 0.7974 0.4604 0.0468 (  5111 PWs)   bands (ev):

   -33.6540 -33.6534 -17.0902 -17.0208 -15.1276 -15.0025 -14.9142 -14.7742
   -14.6663 -14.5885 -13.7613 -13.6479 -13.4972 -13.3974  -3.0669  -2.8915
    -1.5158  -1.3758  -1.3210  -1.2129  -0.9467  -0.8435   2.1695   2.3304
     2.5418   2.6716   2.7258   2.9996   3.0533   3.1894   4.2283   4.3677

          k = 0.6379 0.3683 0.0935 (  5117 PWs)   bands (ev):

   -33.6551 -33.6521 -17.1236 -16.9749 -15.1335 -15.1292 -14.7987 -14.7769
   -14.6696 -14.5589 -13.7989 -13.7268 -13.4154 -13.3903  -3.0586  -2.8115
    -1.5733  -1.3253  -1.2819  -1.1792  -0.9671  -0.8383   2.0112   2.2947
     2.4572   2.7117   2.7299   2.9289   3.0821   3.2192   4.2146   4.4602

          k =-0.1595 0.0921 0.3742 (  5105 PWs)   bands (ev):

   -33.6570 -33.6510 -17.0778 -17.0604 -15.0679 -14.9718 -14.9164 -14.7935
   -14.6130 -14.6038 -13.7439 -13.6397 -13.5171 -13.4396  -3.2033  -3.1217
    -1.4555  -1.4258  -1.3597  -1.2941  -1.2524  -0.7077   2.4734   2.5201
     2.6347   2.6846   2.9975   3.1166   3.2826   3.4318   3.9915   4.1315

          k = 0.9569 0.7366 0.0468 (  5101 PWs)   bands (ev):

   -33.6559 -33.6520 -17.0780 -17.0525 -15.0694 -15.0230 -14.8688 -14.7696
   -14.6633 -14.6197 -13.7125 -13.6554 -13.5003 -13.4477  -3.1200  -3.0881
    -1.4284  -1.4050  -1.3742  -1.2869  -1.1077  -0.7894   2.4380   2.4760
     2.6245   2.6435   2.8766   3.0448   3.1507   3.3326   4.1313   4.1789

          k = 0.7974 0.6445 0.0935 (  5102 PWs)   bands (ev):

   -33.6544 -33.6531 -17.0706 -17.0481 -15.0923 -15.0232 -14.8686 -14.7579
   -14.6861 -14.6415 -13.7322 -13.6420 -13.4996 -13.4196  -3.0524  -2.9686
    -1.4686  -1.3843  -1.3485  -1.2509  -0.9527  -0.8402   2.2673   2.3354
     2.6237   2.6395   2.7305   2.9079   3.1363   3.2164   4.2407   4.3037

          k = 0.6379 0.5525 0.1403 (  5100 PWs)   bands (ev):

   -33.6544 -33.6528 -17.1068 -16.9980 -15.1211 -15.0893 -14.8429 -14.7246
   -14.6764 -14.6269 -13.7824 -13.7020 -13.4410 -13.3852  -3.0365  -2.8375
    -1.5420  -1.3615  -1.2864  -1.2134  -0.8959  -0.8494   2.0602   2.2576
     2.5078   2.6689   2.7084   2.8227   3.1551   3.2094   4.2516   4.4412

          k = 0.9569-0.5525-0.2806 (  5112 PWs)   bands (ev):

   -33.6554 -33.6524 -17.0991 -17.0275 -15.1195 -14.9539 -14.9006 -14.7636
   -14.6757 -14.6083 -13.7567 -13.6206 -13.5180 -13.4230  -3.1226  -3.0355
    -1.4752  -1.3753  -1.3268  -1.2778  -1.0388  -0.8485   2.3591   2.4316
     2.6239   2.6715   2.8677   2.9902   3.0971   3.3238   4.1586   4.2158

          k = 0.7974-0.6445-0.2339 (  5096 PWs)   bands (ev):

   -33.6545 -33.6529 -17.0930 -17.0256 -15.1116 -15.0251 -14.8364 -14.7441
   -14.6880 -14.6562 -13.7374 -13.6784 -13.4626 -13.4233  -3.0650  -2.9573
    -1.4820  -1.3922  -1.2923  -1.2719  -0.9344  -0.8652   2.2330   2.3345
     2.6112   2.6790   2.7723   2.8412   3.1300   3.2480   4.2244   4.3183

          k = 0.6379-0.7366-0.1871 (  5112 PWs)   bands (ev):

   -33.6536 -33.6536 -17.0554 -17.0554 -15.0618 -15.0618 -14.8143 -14.8143
   -14.6819 -14.6819 -13.6942 -13.6942 -13.4408 -13.4408  -2.9389  -2.9389
    -1.4564  -1.4564  -1.2638  -1.2638  -0.8508  -0.8508   2.1751   2.1751
     2.5924   2.5924   2.7141   2.7141   3.2008   3.2008   4.3559   4.3559

          k = 0.7974-0.4604-0.1871 (  5098 PWs)   bands (ev):

   -33.6546 -33.6528 -17.1180 -16.9918 -15.1619 -15.0597 -14.8189 -14.7248
   -14.6841 -14.5849 -13.8048 -13.7324 -13.4298 -13.3768  -3.0973  -2.8623
    -1.5406  -1.3482  -1.2816  -1.2287  -0.9142  -0.8848   2.1099   2.3154
     2.5840   2.6961   2.7244   2.8924   3.1045   3.2323   4.1916   4.4011

          k = 0.0000 0.0000 0.4209 (  5064 PWs)   bands (ev):

   -33.6565 -33.6517 -17.0732 -17.0699 -15.0136 -15.0136 -14.8795 -14.8795
   -14.5977 -14.5569 -13.6871 -13.6871 -13.4889 -13.4889  -3.2509  -3.1549
    -1.4358  -1.4358  -1.3359  -1.3359  -1.2420  -0.7543   2.5115   2.5115
     2.6730   2.6730   3.1604   3.1604   3.3887   3.3887   3.9168   4.0750

          k = 1.1164 0.6445 0.0935 (  5095 PWs)   bands (ev):

   -33.6555 -33.6525 -17.0704 -17.0684 -15.0525 -14.9817 -14.9238 -14.8191
   -14.6136 -14.5784 -13.7177 -13.5889 -13.5726 -13.4577  -3.2022  -3.1391
    -1.4248  -1.3975  -1.3514  -1.3499  -1.1210  -0.8351   2.5063   2.5513
     2.6203   2.6370   3.0476   3.1926   3.2255   3.3400   4.0158   4.1001

          k = 0.9569 0.5525 0.1403 (  5098 PWs)   bands (ev):

   -33.6542 -33.6535 -17.0837 -17.0434 -15.1124 -14.9626 -14.9230 -14.7495
   -14.6742 -14.5941 -13.7675 -13.5829 -13.5621 -13.4112  -3.1324  -3.0280
    -1.4616  -1.3565  -1.3452  -1.3049  -0.9820  -0.8892   2.3656   2.4593
     2.6283   2.6562   2.8224   3.0378   3.1428   3.2438   4.1466   4.2273

          k = 1.1164-0.6445-0.2339 (  5094 PWs)   bands (ev):

   -33.6548 -33.6532 -17.0749 -17.0644 -15.0440 -14.9807 -14.9073 -14.8496
   -14.6011 -14.5933 -13.6855 -13.6021 -13.5542 -13.4877  -3.1776  -3.1684
    -1.4152  -1.3867  -1.3740  -1.3408  -1.0519  -0.9068   2.5350   2.5495
     2.5979   2.6251   3.0944   3.1702   3.2227   3.3230   4.0413   4.0704

          k = 0.9569-0.7366-0.1871 (  5094 PWs)   bands (ev):

   -33.6539 -33.6539 -17.0658 -17.0658 -15.0477 -15.0477 -14.8259 -14.8259
   -14.6329 -14.6329 -13.6785 -13.6785 -13.4792 -13.4792  -3.1089  -3.1089
    -1.4109  -1.4109  -1.3297  -1.3297  -0.9481  -0.9481   2.4553   2.4553
     2.6278   2.6278   2.9721   2.9721   3.2294   3.2294   4.1515   4.1515

          k =-0.0000-0.0000-0.5613 (  5076 PWs)   bands (ev):

   -33.6541 -33.6541 -17.0719 -17.0719 -14.9514 -14.9514 -14.9514 -14.9514
   -14.5768 -14.5768 -13.5832 -13.5832 -13.5832 -13.5832  -3.2105  -3.2105
    -1.3858  -1.3858  -1.3858  -1.3858  -0.9931  -0.9931   2.5929   2.5929
     2.5929   2.5929   3.2707   3.2707   3.2707   3.2707   3.9929   3.9929

     highest occupied level (ev):     4.5154

!    total energy              =    -367.43035321 Ry
     Harris-Foulkes estimate   =    -367.43035835 Ry
     estimated scf accuracy    <       0.00000648 Ry

     The total energy is the sum of the following terms:

     one-electron contribution =    -147.79851124 Ry
     hartree contribution      =     103.32286081 Ry
     xc contribution           =     -75.27572952 Ry
     ewald contribution        =    -247.67897326 Ry

     convergence has been achieved in   6 iterations

     Forces acting on atoms (cartesian axes, Ry/au):

     atom    1 type  1   force =     0.00000000    0.00000000    0.00000000
     atom    2 type  1   force =     0.00000000    0.00000000    0.00000000
     atom    3 type  2   force =    -0.00000000   -0.00000000   -0.00000000
     atom    4 type  2   force =    -0.00000000   -0.00000000   -0.00000000
     atom    5 type  3   force =     0.00088301   -0.00152943   -0.00000000
     atom    6 type  3   force =    -0.00176603    0.00000000    0.00000000
     atom    7 type  3   force =     0.00088301    0.00152943    0.00000000
     atom    8 type  3   force =     0.00176603   -0.00000000   -0.00000000
     atom    9 type  3   force =    -0.00088301   -0.00152943   -0.00000000
     atom   10 type  3   force =    -0.00088301    0.00152943    0.00000000

     Total force =     0.004326     Total SCF correction =     0.001767
     SCF correction compared to forces is large: reduce conv_thr to get better values


     Computing stress (Cartesian axis) and pressure

          total   stress  (Ry/bohr**3)                   (kbar)     P=   -2.08
  -0.00000852   0.00000000  -0.00000000         -1.25      0.00     -0.00
  -0.00000000  -0.00000852  -0.00000000         -0.00     -1.25     -0.00
  -0.00000000  -0.00000000  -0.00002533         -0.00     -0.00     -3.73


     BFGS Geometry Optimization

     number of scf cycles    =   1
     number of bfgs steps    =   0

     enthalpy new            =    -367.4303532102 Ry

     new trust radius        =       0.0036986900 bohr
     new conv_thr            =       0.0000100000 Ry

     new unit-cell volume =    851.72781 a.u.^3 (   126.21304 Ang^3 )
     density =      2.63366 g/cm^3

CELL_PARAMETERS (alat= 12.16200000)
   0.391813715  -0.226213754   0.890299109
   0.000000000   0.452427507   0.890299109
  -0.391813715  -0.226213754   0.890299109

ATOMIC_POSITIONS (crystal)
Ca       0.500000000   0.500000000   0.500000000
Ca       0.000000000   0.000000000   0.000000000
C        0.250000000   0.250000000   0.250000000
C        0.750000000   0.750000000   0.750000000
O        0.507092952   0.992907048   0.250000000
O        0.992907048   0.250000000   0.507092952
O        0.250000000   0.507092952   0.992907048
O        0.007092952   0.750000000   0.492907048
O        0.750000000   0.492907048   0.007092952
O        0.492907048   0.007092952   0.750000000



     Writing output data file CCO_k.save/
     NEW-OLD atomic charge density approx. for the potential

     Check: negative core charge=   -0.000003
     extrapolated charge   63.93216, renormalised to   64.00000

     total cpu time spent up to now is     2537.2 secs

     Self-consistent Calculation

     iteration #  1     ecut=    50.00 Ry     beta= 0.70
     CG style diagonalization
     ethr =  1.00E-06,  avg # of iterations =  2.8

     total cpu time spent up to now is     2687.7 secs

     total energy              =    -367.43008698 Ry
     Harris-Foulkes estimate   =    -367.55131434 Ry
     estimated scf accuracy    <       0.00020755 Ry

     iteration #  2     ecut=    50.00 Ry     beta= 0.70
     CG style diagonalization
     ethr =  3.24E-07,  avg # of iterations =  5.0

     total cpu time spent up to now is     2925.1 secs

     total energy              =    -367.43033275 Ry
     Harris-Foulkes estimate   =    -367.43055794 Ry
     estimated scf accuracy    <       0.00061730 Ry

     iteration #  3     ecut=    50.00 Ry     beta= 0.70
     CG style diagonalization
     ethr =  3.24E-07,  avg # of iterations =  3.8

     total cpu time spent up to now is     3107.1 secs

     total energy              =    -367.43036763 Ry
     Harris-Foulkes estimate   =    -367.43038148 Ry
     estimated scf accuracy    <       0.00006623 Ry

     iteration #  4     ecut=    50.00 Ry     beta= 0.70
     CG style diagonalization
     ethr =  1.03E-07,  avg # of iterations =  3.0

     total cpu time spent up to now is     3250.3 secs

     total energy              =    -367.43035737 Ry
     Harris-Foulkes estimate   =    -367.43036931 Ry
     estimated scf accuracy    <       0.00003705 Ry

     iteration #  5     ecut=    50.00 Ry     beta= 0.70
     CG style diagonalization
     ethr =  5.79E-08,  avg # of iterations =  3.3

     total cpu time spent up to now is     3409.4 secs

     End of self-consistent calculation

          k = 0.0000 0.0000 0.0000 (  5161 PWs)   bands (ev):

   -33.6430 -33.6302 -17.0578 -17.0489 -15.0867 -15.0867 -14.7109 -14.7109
   -14.6172 -14.5092 -13.8783 -13.8783 -13.3338 -13.3338  -3.2852  -3.0096
    -1.6694  -1.5083  -1.5083  -1.2451  -1.2451  -0.3706   2.3833   2.3833
     2.8176   2.8176   2.9941   2.9941   3.6093   3.6093   3.8046   4.2348

          k =-0.1595-0.0921 0.0468 (  5131 PWs)   bands (ev):

   -33.6424 -33.6306 -17.0609 -17.0410 -15.0858 -15.0383 -14.7658 -14.7090
   -14.6362 -14.5874 -13.8439 -13.7514 -13.3966 -13.3455  -3.2225  -3.0183
    -1.6126  -1.4836  -1.4582  -1.2725  -1.2364  -0.4374   2.4143   2.4535
     2.7500   2.7977   2.8776   2.9326   3.5119   3.5330   3.9422   4.2399

          k =-0.3190-0.1842 0.0936 (  5105 PWs)   bands (ev):

   -33.6409 -33.6318 -17.0779 -17.0098 -15.0838 -14.9633 -14.9114 -14.7347
   -14.6334 -14.6215 -13.7618 -13.5775 -13.5269 -13.3813  -3.0815  -3.0161
    -1.5232  -1.4186  -1.3186  -1.2871  -1.2352  -0.5828   2.4493   2.4991
     2.6236   2.6591   2.7736   2.8190   3.3404   3.3744   4.1724   4.2547

          k =-0.4785-0.2763 0.1404 (  5098 PWs)   bands (ev):

   -33.6386 -33.6337 -17.0702 -17.0039 -15.0610 -14.9766 -14.9512 -14.8288
   -14.6157 -14.5914 -13.6665 -13.5827 -13.5093 -13.4473  -2.9742  -2.9617
    -1.5135  -1.3964  -1.2356  -1.2256  -1.1027  -0.7264   2.2428   2.3359
     2.5761   2.6167   2.7791   2.8768   3.1874   3.2165   4.2912   4.3276

          k = 0.6381 0.3684-0.1872 (  5096 PWs)   bands (ev):

   -33.6361 -33.6361 -17.0351 -17.0351 -14.9732 -14.9732 -14.9600 -14.9600
   -14.5971 -14.5971 -13.5537 -13.5537 -13.5376 -13.5376  -2.9314  -2.9314
    -1.4743  -1.4743  -1.1995  -1.1995  -0.8885  -0.8885   2.1883   2.1883
     2.5748   2.5748   2.8718   2.8718   3.1339   3.1339   4.3448   4.3448

          k =-0.1595 0.0921 0.0936 (  5121 PWs)   bands (ev):

   -33.6423 -33.6307 -17.0624 -17.0400 -15.0610 -15.0588 -14.7575 -14.7126
   -14.6288 -14.6138 -13.7981 -13.7777 -13.3798 -13.3712  -3.2190  -3.0274
    -1.5929  -1.4759  -1.4649  -1.2773  -1.2332  -0.4511   2.4150   2.4594
     2.7515   2.7582   2.9099   2.9451   3.4765   3.5542   3.9436   4.2321

          k =-0.3190 0.0000 0.1404 (  5099 PWs)   bands (ev):

   -33.6411 -33.6316 -17.0774 -17.0156 -15.0657 -15.0187 -14.8250 -14.7304
   -14.6591 -14.6261 -13.7494 -13.6604 -13.4592 -13.3900  -3.1146  -3.0338
    -1.5131  -1.4361  -1.3774  -1.2870  -1.2214  -0.5628   2.4420   2.5231
     2.6236   2.7085   2.7779   2.8833   3.3274   3.4520   4.1189   4.2393

          k =-0.4785-0.0921 0.1872 (  5099 PWs)   bands (ev):

   -33.6392 -33.6332 -17.0751 -17.0042 -15.0711 -15.0272 -14.8628 -14.7996
   -14.6209 -14.6117 -13.6834 -13.6607 -13.4491 -13.4326  -2.9960  -2.9930
    -1.4914  -1.3875  -1.3199  -1.2148  -1.1373  -0.6895   2.3131   2.4292
     2.5539   2.6124   2.7515   2.8670   3.1774   3.3106   4.2776   4.2960

          k = 0.6381 0.5526-0.1404 (  5105 PWs)   bands (ev):

   -33.6369 -33.6353 -17.0412 -17.0303 -15.0539 -14.9947 -14.9157 -14.8730
   -14.6054 -14.6008 -13.6686 -13.5895 -13.5036 -13.4366  -2.9431  -2.9190
    -1.4691  -1.4587  -1.2474  -1.1908  -0.9375  -0.8174   2.1981   2.2365
     2.5223   2.5600   2.7954   2.8570   3.1383   3.2104   4.3510   4.3571

          k = 0.4785 0.4605-0.0936 (  5101 PWs)   bands (ev):

   -33.6376 -33.6346 -17.0713 -16.9976 -15.0868 -14.9757 -14.9638 -14.8066
   -14.6257 -14.5758 -13.7139 -13.5718 -13.5112 -13.4129  -2.9685  -2.8913
    -1.5251  -1.3881  -1.2419  -1.1859  -1.0026  -0.7849   2.1449   2.3008
     2.4914   2.5850   2.7551   2.8825   3.1623   3.2126   4.3082   4.4014

          k = 0.3190 0.3684-0.0468 (  5097 PWs)   bands (ev):

   -33.6398 -33.6326 -17.0907 -16.9855 -15.0957 -15.0179 -14.8897 -14.7451
   -14.6458 -14.5968 -13.7247 -13.6373 -13.4603 -13.4090  -3.0128  -2.9688
    -1.5222  -1.3605  -1.2794  -1.2216  -1.2078  -0.6669   2.2883   2.4723
     2.5527   2.6297   2.6771   2.8835   3.2145   3.3271   4.2628   4.3169

          k = 0.1595 0.2763 0.0000 (  5113 PWs)   bands (ev):

   -33.6415 -33.6312 -17.0794 -17.0124 -15.0616 -15.0299 -14.7900 -14.7626
   -14.6498 -14.6316 -13.7568 -13.6678 -13.4497 -13.3856  -3.1132  -3.0248
    -1.5401  -1.4349  -1.3865  -1.3030  -1.2140  -0.5347   2.4443   2.5396
     2.6034   2.7395   2.7683   2.8348   3.3700   3.4550   4.1174   4.2490

          k =-0.3190 0.1842 0.1872 (  5096 PWs)   bands (ev):

   -33.6406 -33.6321 -17.0942 -16.9949 -15.0618 -15.0371 -14.7664 -14.7598
   -14.6912 -14.6375 -13.7038 -13.6668 -13.4513 -13.4185  -3.0632  -3.0457
    -1.4630  -1.4212  -1.4031  -1.2229  -1.2054  -0.6280   2.3950   2.4570
     2.6131   2.6892   2.7640   2.9501   3.2022   3.4507   4.1974   4.2162

          k =-0.4785 0.0921 0.2340 (  5107 PWs)   bands (ev):

   -33.6393 -33.6331 -17.1007 -16.9782 -15.1155 -15.0308 -14.8186 -14.7372
   -14.6400 -14.6300 -13.7680 -13.6327 -13.4648 -13.3818  -3.0502  -2.9422
    -1.4861  -1.3836  -1.3400  -1.1916  -1.1057  -0.7161   2.2305   2.4189
     2.5439   2.6752   2.7362   2.9338   3.0889   3.3700   4.2301   4.3380

          k = 0.6381 0.7368-0.0936 (  5101 PWs)   bands (ev):

   -33.6376 -33.6346 -17.0734 -16.9998 -15.1186 -14.9670 -14.9092 -14.7798
   -14.6367 -14.6018 -13.7768 -13.5622 -13.5166 -13.3712  -2.9693  -2.8928
    -1.4635  -1.4270  -1.3120  -1.1798  -0.9417  -0.7799   2.1430   2.2936
     2.5142   2.5665   2.7205   2.8113   3.1441   3.2888   4.3146   4.4104

          k = 0.4785 0.6447-0.0468 (  5106 PWs)   bands (ev):

   -33.6364 -33.6357 -17.0491 -17.0207 -15.0767 -15.0318 -14.9050 -14.7772
   -14.6459 -14.6010 -13.7236 -13.6456 -13.4500 -13.3927  -2.9237  -2.8792
    -1.5082  -1.3842  -1.3007  -1.1735  -0.8851  -0.8146   2.1577   2.2140
     2.4639   2.5222   2.7146   2.7669   3.2062   3.2453   4.3727   4.4194

          k = 0.3190 0.5526 0.0000 (  5103 PWs)   bands (ev):

   -33.6382 -33.6340 -17.0860 -16.9817 -15.1314 -14.9779 -14.9639 -14.7013
   -14.6631 -14.5676 -13.7959 -13.5839 -13.4986 -13.3617  -2.9832  -2.8737
    -1.5363  -1.3314  -1.2738  -1.1912  -1.0547  -0.7449   2.1440   2.3886
     2.4558   2.5346   2.6906   2.8551   3.2025   3.2602   4.2983   4.4316

          k =-0.4785 0.2763 0.2808 (  5108 PWs)   bands (ev):

   -33.6389 -33.6334 -17.1249 -16.9463 -15.1396 -15.1211 -14.7258 -14.6877
   -14.6437 -14.6147 -13.8168 -13.7424 -13.3912 -13.3502  -3.0927  -2.8462
    -1.5357  -1.3539  -1.2816  -1.1740  -1.0317  -0.7810   2.0811   2.3570
     2.5163   2.7450   2.7625   2.8949   3.0698   3.3524   4.1803   4.4278

          k = 0.6381 0.9210-0.0468 (  5114 PWs)   bands (ev):

   -33.6381 -33.6341 -17.1172 -16.9508 -15.1596 -15.1038 -14.7474 -14.6983
   -14.6525 -14.5790 -13.8660 -13.7090 -13.4011 -13.3282  -3.0591  -2.8003
    -1.5291  -1.3817  -1.2669  -1.1637  -0.9389  -0.8020   2.0094   2.2852
     2.5194   2.7069   2.7360   2.7530   3.1544   3.3025   4.2146   4.4863

          k = 0.4785 0.8289 0.0000 (  5106 PWs)   bands (ev):

   -33.6369 -33.6352 -17.0731 -16.9984 -15.1164 -15.0251 -14.8103 -14.7952
   -14.6656 -14.6061 -13.7749 -13.6487 -13.4366 -13.3690  -2.9588  -2.8440
    -1.4525  -1.4522  -1.3101  -1.1649  -0.8575  -0.8077   2.0724   2.2243
     2.5197   2.5683   2.6866   2.7065   3.2055   3.2735   4.3317   4.4580

          k = 0.6381-0.3684-0.3744 (  5104 PWs)   bands (ev):

   -33.6382 -33.6340 -17.1373 -16.9249 -15.1759 -15.1730 -14.6931 -14.6662
   -14.6440 -14.5168 -13.9175 -13.8075 -13.3484 -13.3080  -3.1039  -2.7521
    -1.5680  -1.3516  -1.2257  -1.1556  -0.9370  -0.8352   1.9449   2.2655
     2.5416   2.7188   2.7640   2.7770   3.1664   3.2902   4.1568   4.5213

          k = 0.0000 0.0000 0.1404 (  5131 PWs)   bands (ev):

   -33.6425 -33.6306 -17.0578 -17.0496 -15.0767 -15.0767 -14.7337 -14.7337
   -14.6125 -14.5128 -13.8491 -13.8491 -13.3503 -13.3503  -3.2818  -3.0317
    -1.6112  -1.4982  -1.4982  -1.2552  -1.2552  -0.4149   2.4002   2.4002
     2.7985   2.7985   3.0176   3.0176   3.5817   3.5817   3.8188   4.2138

          k =-0.1595-0.0921 0.1872 (  5129 PWs)   bands (ev):

   -33.6417 -33.6313 -17.0587 -17.0443 -15.0899 -15.0050 -14.8384 -14.6998
   -14.6341 -14.5645 -13.8395 -13.6985 -13.4387 -13.3500  -3.2225  -3.0423
    -1.5473  -1.4735  -1.4202  -1.2779  -1.2591  -0.4996   2.4323   2.4697
     2.7257   2.7776   2.8865   2.9946   3.4623   3.4995   3.9537   4.2146

          k =-0.3190-0.1842 0.2340 (  5096 PWs)   bands (ev):

   -33.6399 -33.6327 -17.0627 -17.0275 -15.0808 -14.9697 -14.9236 -14.7207
   -14.6495 -14.5932 -13.7607 -13.5619 -13.5525 -13.3806  -3.1040  -3.0107
    -1.4857  -1.4227  -1.3131  -1.2622  -1.2172  -0.6354   2.4203   2.5676
     2.5751   2.6496   2.7684   2.8998   3.2787   3.3388   4.1605   4.2537

          k = 0.7976 0.4605-0.0936 (  5108 PWs)   bands (ev):

   -33.6377 -33.6347 -17.0398 -17.0377 -15.0585 -14.9854 -14.9304 -14.8319
   -14.6202 -14.5890 -13.6773 -13.5638 -13.5472 -13.4234  -3.0155  -2.9267
    -1.4591  -1.4526  -1.2725  -1.2130  -1.0145  -0.7665   2.2549   2.3125
     2.5581   2.6230   2.7944   2.9235   3.1201   3.2054   4.2794   4.3334

          k = 0.6381 0.3684-0.0468 (  5111 PWs)   bands (ev):

   -33.6369 -33.6353 -17.0750 -16.9941 -15.0550 -15.0496 -14.8753 -14.8631
[...]
    -1.5728  -1.5015  -1.4484  -1.3083  -1.2891  -0.5351   2.4018   2.4387
     2.6983   2.7500   2.8558   2.9625   3.4255   3.4621   3.9199   4.1794

          k =-0.3190-0.1842 0.2332 (  5098 PWs)   bands (ev):

   -33.6906 -33.6836 -17.0895 -17.0561 -15.1205 -15.0109 -14.9663 -14.7664
   -14.6985 -14.6409 -13.7931 -13.5992 -13.5894 -13.4210  -3.1355  -3.0424
    -1.5118  -1.4511  -1.3426  -1.2913  -1.2470  -0.6695   2.3896   2.5358
     2.5438   2.6206   2.7399   2.8666   3.2429   3.3019   4.1271   4.2203

          k = 0.7976 0.4605-0.0933 (  5096 PWs)   bands (ev):

   -33.6884 -33.6854 -17.0675 -17.0647 -15.0985 -15.0264 -14.9727 -14.8760
   -14.6698 -14.6375 -13.7120 -13.6008 -13.5846 -13.4630  -3.0464  -2.9582
    -1.4861  -1.4796  -1.3015  -1.2422  -1.0455  -0.7993   2.2237   2.2813
     2.5280   2.5929   2.7623   2.8893   3.0851   3.1692   4.2471   4.3013

          k = 0.6381 0.3684-0.0466 (  5109 PWs)   bands (ev):

   -33.6876 -33.6861 -17.1020 -17.0217 -15.0950 -15.0899 -14.9190 -14.9060
   -14.6765 -14.6160 -13.7049 -13.6621 -13.4984 -13.4907  -3.0283  -2.8958
    -1.5610  -1.4152  -1.2804  -1.1914  -0.9672  -0.8777   2.0678   2.2361
     2.4706   2.6226   2.7474   2.9541   3.0161   3.1499   4.2486   4.3766

          k = 0.4785 0.2763 0.0000 (  5093 PWs)   bands (ev):

   -33.6899 -33.6840 -17.1244 -17.0015 -15.1457 -15.0698 -14.9335 -14.8033
   -14.6931 -14.6251 -13.7795 -13.6166 -13.5454 -13.4355  -3.0526  -2.9424
    -1.5669  -1.3762  -1.2686  -1.2398  -1.1757  -0.7518   2.1379   2.3719
     2.4905   2.6510   2.6614   2.9280   3.0876   3.2541   4.2158   4.3396

          k = 0.3190 0.1842 0.0466 (  5093 PWs)   bands (ev):

   -33.6917 -33.6824 -17.1154 -17.0274 -15.1102 -15.0553 -14.8814 -14.7814
   -14.7047 -14.6875 -13.7762 -13.6538 -13.5254 -13.4331  -3.0930  -3.0660
    -1.5364  -1.4423  -1.4145  -1.2930  -1.2422  -0.6158   2.4070   2.4340
     2.6167   2.6336   2.6937   2.8522   3.2560   3.3973   4.1514   4.2081

          k =-0.1595 0.0921 0.2332 (  5110 PWs)   bands (ev):

   -33.6919 -33.6826 -17.0896 -17.0704 -15.1047 -15.0580 -14.8714 -14.7716
   -14.6630 -14.6517 -13.8027 -13.7523 -13.4645 -13.4297  -3.2434  -3.0978
    -1.5307  -1.4805  -1.4582  -1.3193  -1.2804  -0.5745   2.4063   2.4552
     2.6699   2.7116   2.9044   2.9975   3.3627   3.4833   3.9275   4.1587

          k =-0.3190 0.0000 0.2799 (  5102 PWs)   bands (ev):

   -33.6907 -33.6836 -17.0983 -17.0530 -15.1062 -15.0438 -14.9028 -14.7479
   -14.7318 -14.6569 -13.7622 -13.6802 -13.5171 -13.4452  -3.1482  -3.0880
    -1.4767  -1.4601  -1.3987  -1.2752  -1.2494  -0.6796   2.4089   2.4715
     2.6109   2.6408   2.7832   2.9442   3.2008   3.3796   4.0910   4.1809

          k = 0.7976 0.6447-0.0466 (  5091 PWs)   bands (ev):

   -33.6889 -33.6850 -17.0818 -17.0569 -15.1008 -15.0666 -14.8951 -14.8394
   -14.6917 -14.6597 -13.7394 -13.6569 -13.5279 -13.4509  -3.0550  -3.0082
    -1.4677  -1.4398  -1.3809  -1.2501  -1.0683  -0.7781   2.2795   2.3401
     2.5644   2.5848   2.7206   2.8961   3.0752   3.2453   4.2359   4.2622

          k = 0.6381 0.5526 0.0000 (  5104 PWs)   bands (ev):

   -33.6869 -33.6868 -17.0904 -17.0372 -15.1250 -15.0419 -14.9592 -14.8376
   -14.6840 -14.6429 -13.7580 -13.6332 -13.5381 -13.4347  -3.0228  -2.9027
    -1.5398  -1.4035  -1.3332  -1.2064  -0.9088  -0.8866   2.1065   2.2267
     2.4653   2.5933   2.7192   2.8504   3.0874   3.1752   4.2700   4.3724

          k = 0.4785 0.4605 0.0466 (  5104 PWs)   bands (ev):

   -33.6888 -33.6849 -17.1228 -16.9987 -15.1740 -15.0705 -14.9461 -14.7653
   -14.7027 -14.6082 -13.8364 -13.6176 -13.5413 -13.3984  -3.0422  -2.8781
    -1.5756  -1.3538  -1.2982  -1.2122  -1.0507  -0.8063   2.0496   2.3159
     2.4142   2.6102   2.6843   2.8682   3.1046   3.2174   4.2326   4.4123

          k = 0.3190 0.3684 0.0933 (  5106 PWs)   bands (ev):

   -33.6905 -33.6834 -17.1261 -17.0050 -15.1496 -15.0667 -14.9111 -14.7585
   -14.7072 -14.6547 -13.7935 -13.6541 -13.5158 -13.4246  -3.0633  -2.9826
    -1.5420  -1.3879  -1.3425  -1.2350  -1.2087  -0.7111   2.2249   2.4383
     2.5151   2.5988   2.6641   2.8841   3.1303   3.3226   4.2131   4.2986

          k =-0.3190 0.1842 0.3265 (  5094 PWs)   bands (ev):

   -33.6901 -33.6840 -17.1192 -17.0284 -15.1333 -15.0303 -14.8607 -14.7832
   -14.7378 -14.6631 -13.7461 -13.6904 -13.4948 -13.4643  -3.1247  -3.0686
    -1.4934  -1.4148  -1.3920  -1.2538  -1.1802  -0.7492   2.3431   2.4072
     2.5910   2.6597   2.7882   2.9928   3.0577   3.3763   4.1544   4.1762

          k = 0.7976 0.8289 0.0000 (  5107 PWs)   bands (ev):

   -33.6890 -33.6849 -17.1199 -17.0184 -15.1509 -15.0628 -14.8339 -14.7923
   -14.7197 -14.6737 -13.7824 -13.6956 -13.4809 -13.4363  -3.0907  -2.9758
    -1.5009  -1.4154  -1.3549  -1.2400  -1.0477  -0.8091   2.1950   2.3361
     2.5479   2.6741   2.7373   2.8564   3.0443   3.2966   4.1921   4.3016

          k = 0.6381 0.7368 0.0466 (  5106 PWs)   bands (ev):

   -33.6876 -33.6861 -17.0855 -17.0462 -15.1310 -15.0402 -14.8919 -14.8317
   -14.7075 -14.6846 -13.7717 -13.6539 -13.5076 -13.4305  -2.9838  -2.9435
    -1.4790  -1.4559  -1.3498  -1.2238  -0.9129  -0.8398   2.1240   2.2005
     2.5275   2.5666   2.6900   2.7300   3.1206   3.2263   4.3038   4.3556

          k = 0.4785 0.6447 0.0933 (  5094 PWs)   bands (ev):

   -33.6874 -33.6862 -17.0885 -17.0364 -15.1308 -15.0684 -14.9439 -14.7794
   -14.7128 -14.6608 -13.7883 -13.6676 -13.4977 -13.4139  -2.9725  -2.8917
    -1.5391  -1.4063  -1.3163  -1.2243  -0.9157  -0.8329   2.0871   2.1916
     2.4409   2.5242   2.6649   2.7223   3.1753   3.2089   4.3209   4.4076

          k = 0.3190 0.5526 0.1399 (  5097 PWs)   bands (ev):

   -33.6888 -33.6849 -17.1095 -17.0145 -15.1689 -15.0059 -14.9973 -14.7859
   -14.6889 -14.6266 -13.8265 -13.6044 -13.5509 -13.4027  -3.0098  -2.9106
    -1.5421  -1.4046  -1.2873  -1.2358  -1.0422  -0.7886   2.1131   2.3242
     2.4465   2.5118   2.6704   2.8102   3.1386   3.2417   4.2709   4.3933

          k = 0.7976-0.4605-0.3265 (  5103 PWs)   bands (ev):

   -33.6888 -33.6850 -17.1466 -16.9828 -15.1960 -15.1320 -14.7569 -14.7451
   -14.7292 -14.6313 -13.8221 -13.8191 -13.4079 -13.4040  -3.1326  -2.8751
    -1.5637  -1.3807  -1.2825  -1.2296  -0.9990  -0.8569   2.0537   2.2899
     2.5473   2.7150   2.7321   2.8018   3.0601   3.2785   4.1461   4.3937

          k = 0.6381-0.5526-0.2799 (  5106 PWs)   bands (ev):

   -33.6883 -33.6854 -17.1366 -16.9886 -15.1706 -15.1522 -14.7997 -14.7179
   -14.7152 -14.6679 -13.8509 -13.7663 -13.4264 -13.3896  -3.0843  -2.8394
    -1.5571  -1.4058  -1.2767  -1.2251  -0.9376  -0.8489   1.9924   2.2351
     2.5189   2.6552   2.6884   2.7367   3.1271   3.2344   4.1944   4.4433

          k = 0.4785-0.6447-0.2332 (  5103 PWs)   bands (ev):

   -33.6876 -33.6860 -17.0969 -17.0286 -15.1475 -15.0685 -14.8963 -14.8080
   -14.6988 -14.6693 -13.8042 -13.6772 -13.4849 -13.4080  -2.9845  -2.8797
    -1.5096  -1.4586  -1.2934  -1.2317  -0.8961  -0.8367   2.0549   2.1936
     2.4684   2.5385   2.6584   2.6894   3.1764   3.2220   4.3062   4.4210

          k = 0.3190-0.7368-0.1866 (  5114 PWs)   bands (ev):

   -33.6868 -33.6868 -17.0620 -17.0620 -15.0964 -15.0964 -14.8937 -14.8937
   -14.6630 -14.6630 -13.7190 -13.7190 -13.4601 -13.4601  -2.9322  -2.9322
    -1.4893  -1.4893  -1.2513  -1.2513  -0.8829  -0.8829   2.1632   2.1632
     2.4531   2.4531   2.7120   2.7120   3.1897   3.1897   4.3642   4.3642

          k = 0.6381-0.3684-0.2332 (  5093 PWs)   bands (ev):

   -33.6888 -33.6849 -17.1562 -16.9618 -15.2000 -15.1976 -14.7623 -14.7252
   -14.7161 -14.5728 -13.9104 -13.8130 -13.4016 -13.3647  -3.1200  -2.7994
    -1.5960  -1.3676  -1.2339  -1.2241  -0.9746  -0.8606   1.9341   2.2502
     2.4702   2.6986   2.7318   2.7861   3.1130   3.2323   4.1442   4.4735

          k = 0.4785-0.4605-0.1866 (  5111 PWs)   bands (ev):

   -33.6889 -33.6848 -17.1388 -16.9823 -15.1994 -15.1159 -14.8666 -14.7321
   -14.7065 -14.6074 -13.8940 -13.6873 -13.4823 -13.3693  -3.0735  -2.8465
    -1.5700  -1.3838  -1.2689  -1.2268  -1.0122  -0.8161   2.0004   2.2945
     2.4320   2.6506   2.6871   2.8116   3.1072   3.2537   4.1987   4.4423

          k = 0.4785-0.2763-0.1399 (  5100 PWs)   bands (ev):

   -33.6900 -33.6839 -17.1434 -16.9813 -15.1658 -15.1348 -14.8467 -14.7339
   -14.7188 -14.6342 -13.8352 -13.7001 -13.4795 -13.3996  -3.0939  -2.9024
    -1.5677  -1.3735  -1.2920  -1.2314  -1.1236  -0.7736   2.0805   2.3982
     2.4290   2.6716   2.7019   2.9833   2.9943   3.3024   4.1757   4.3751

          k =-0.0000 0.0000 0.2799 (  5115 PWs)   bands (ev):

   -33.6917 -33.6829 -17.0868 -17.0785 -15.0877 -15.0877 -14.8375 -14.8375
   -14.6474 -14.5703 -13.8055 -13.8055 -13.4381 -13.4381  -3.3011  -3.1183
    -1.4978  -1.4978  -1.4797  -1.3140  -1.3140  -0.5785   2.4180   2.4180
     2.7219   2.7219   3.0477   3.0477   3.4692   3.4692   3.8257   4.1215

          k =-0.1595-0.0921 0.3265 (  5100 PWs)   bands (ev):

   -33.6908 -33.6837 -17.0829 -17.0780 -15.1129 -15.0030 -14.9523 -14.7864
   -14.6642 -14.6032 -13.8180 -13.6653 -13.5395 -13.4240  -3.2468  -3.1183
    -1.4819  -1.4769  -1.3671  -1.3264  -1.3019  -0.6670   2.4366   2.4762
     2.6616   2.6761   2.9306   3.0550   3.3210   3.4047   3.9456   4.1304

          k = 0.9571 0.5526 0.0000 (  5096 PWs)   bands (ev):

   -33.6892 -33.6850 -17.0763 -17.0723 -15.1218 -15.0270 -14.9481 -14.7481
   -14.7239 -14.6250 -13.7877 -13.6088 -13.5861 -13.4265  -3.1524  -3.0463
    -1.4626  -1.4424  -1.3592  -1.3106  -1.1317  -0.7702   2.3616   2.4835
     2.5951   2.6229   2.7362   3.0076   3.1282   3.2591   4.1189   4.2110

          k = 0.7976 0.4605 0.0466 (  5109 PWs)   bands (ev):

   -33.6873 -33.6866 -17.1018 -17.0319 -15.1535 -15.0300 -14.9422 -14.8047
   -14.6986 -14.6191 -13.7810 -13.6697 -13.5195 -13.4211  -3.0920  -2.9179
    -1.5334  -1.3941  -1.3398  -1.2319  -0.9659  -0.8617   2.1466   2.3070
     2.5197   2.6495   2.7024   2.9743   3.0264   3.1618   4.2018   4.3407

          k = 0.6381 0.3684 0.0933 (  5117 PWs)   bands (ev):

   -33.6883 -33.6854 -17.1347 -16.9862 -15.1594 -15.1559 -14.8291 -14.8064
   -14.7017 -14.5903 -13.8189 -13.7472 -13.4390 -13.4134  -3.0835  -2.8383
    -1.5903  -1.3429  -1.3020  -1.1974  -0.9847  -0.8577   1.9883   2.2713
     2.4346   2.6895   2.7060   2.9037   3.0551   3.1907   4.1890   4.4332

          k =-0.1595 0.0921 0.3732 (  5096 PWs)   bands (ev):

   -33.6902 -33.6843 -17.0889 -17.0731 -15.0945 -14.9996 -14.9445 -14.8238
   -14.6438 -14.6336 -13.7636 -13.6611 -13.5397 -13.4631  -3.2288  -3.1477
    -1.4741  -1.4458  -1.3789  -1.3145  -1.2702  -0.7272   2.4507   2.4974
     2.6135   2.6642   2.9748   3.0936   3.2576   3.4044   3.9627   4.1023

          k = 0.9571 0.7368 0.0466 (  5098 PWs)   bands (ev):

   -33.6891 -33.6852 -17.0892 -17.0647 -15.0958 -15.0499 -14.8979 -14.7995
   -14.6940 -14.6504 -13.7327 -13.6769 -13.5229 -13.4712  -3.1456  -3.1138
    -1.4474  -1.4240  -1.3932  -1.3069  -1.1259  -0.8083   2.4154   2.4540
     2.6016   2.6219   2.8546   3.0205   3.1257   3.3049   4.1032   4.1508

          k = 0.7976 0.6447 0.0933 (  5104 PWs)   bands (ev):

   -33.6876 -33.6863 -17.0822 -17.0593 -15.1185 -15.0503 -14.8970 -14.7876
   -14.7183 -14.6723 -13.7526 -13.6636 -13.5222 -13.4431  -3.0777  -2.9945
    -1.4868  -1.4034  -1.3666  -1.2703  -0.9716  -0.8587   2.2445   2.3125
     2.6008   2.6167   2.7082   2.8839   3.1092   3.1888   4.2138   4.2766

          k = 0.6381 0.5526 0.1399 (  5098 PWs)   bands (ev):

   -33.6876 -33.6861 -17.1180 -17.0092 -15.1471 -15.1161 -14.8719 -14.7555
   -14.7086 -14.6574 -13.8027 -13.7229 -13.4641 -13.4085  -3.0614  -2.8639
    -1.5593  -1.3792  -1.3062  -1.2319  -0.9140  -0.8687   2.0375   2.2344
     2.4853   2.6460   2.6845   2.7987   3.1277   3.1810   4.2258   4.4143

          k = 0.9571-0.5526-0.2799 (  5106 PWs)   bands (ev):

   -33.6885 -33.6856 -17.1105 -17.0394 -15.1455 -14.9814 -14.9284 -14.7946
   -14.7070 -14.6389 -13.7764 -13.6428 -13.5400 -13.4465  -3.1479  -3.0614
    -1.4937  -1.3952  -1.3452  -1.2979  -1.0569  -0.8673   2.3370   2.4087
     2.6016   2.6487   2.8449   2.9668   3.0723   3.2957   4.1311   4.1878

          k = 0.7976-0.6447-0.2332 (  5098 PWs)   bands (ev):

   -33.6878 -33.6862 -17.1043 -17.0371 -15.1377 -15.0520 -14.8648 -14.7745
   -14.7199 -14.6870 -13.7576 -13.7000 -13.4852 -13.4467  -3.0903  -2.9834
    -1.5003  -1.4109  -1.3106  -1.2918  -0.9528  -0.8841   2.2104   2.3114
     2.5878   2.6561   2.7499   2.8180   3.1034   3.2198   4.1977   4.2910

          k = 0.6381-0.7368-0.1866 (  5100 PWs)   bands (ev):

   -33.6868 -33.6868 -17.0666 -17.0666 -15.0885 -15.0885 -14.8426 -14.8426
   -14.7141 -14.7141 -13.7157 -13.7157 -13.4636 -13.4636  -2.9644  -2.9644
    -1.4740  -1.4740  -1.2830  -1.2830  -0.8697  -0.8697   2.1525   2.1525
     2.5692   2.5692   2.6906   2.6906   3.1729   3.1729   4.3295   4.3295

          k = 0.7976-0.4605-0.1866 (  5100 PWs)   bands (ev):

   -33.6878 -33.6861 -17.1294 -17.0031 -15.1874 -15.0866 -14.8479 -14.7565
   -14.7164 -14.6154 -13.8237 -13.7536 -13.4525 -13.4006  -3.1222  -2.8889
    -1.5583  -1.3666  -1.3016  -1.2469  -0.9322  -0.9038   2.0871   2.2919
     2.5605   2.6740   2.7019   2.8683   3.0780   3.2037   4.1655   4.3738

          k = 0.0000 0.0000 0.4198 (  5091 PWs)   bands (ev):

   -33.6897 -33.6849 -17.0858 -17.0813 -15.0409 -15.0409 -14.9084 -14.9084
   -14.6284 -14.5867 -13.7078 -13.7078 -13.5119 -13.5119  -3.2763  -3.1808
    -1.4556  -1.4556  -1.3563  -1.3563  -1.2589  -0.7738   2.4890   2.4890
     2.6523   2.6523   3.1375   3.1375   3.3633   3.3633   3.8874   4.0451

          k = 1.1166 0.6447 0.0933 (  5093 PWs)   bands (ev):

   -33.6887 -33.6858 -17.0827 -17.0799 -15.0792 -15.0091 -14.9523 -14.8490
   -14.6442 -14.6085 -13.7379 -13.6108 -13.5948 -13.4810  -3.2277  -3.1649
    -1.4445  -1.4169  -1.3711  -1.3703  -1.1390  -0.8540   2.4841   2.5289
     2.5990   2.6157   3.0254   3.1678   3.2008   3.3141   3.9870   4.0709

          k = 0.9571 0.5526 0.1399 (  5098 PWs)   bands (ev):

   -33.6874 -33.6867 -17.0955 -17.0549 -15.1384 -14.9900 -14.9511 -14.7804
   -14.7056 -14.6245 -13.7870 -13.6054 -13.5839 -13.4348  -3.1577  -3.0540
    -1.4803  -1.3763  -1.3643  -1.3240  -1.0006  -0.9076   2.3434   2.4366
     2.6050   2.6340   2.8011   3.0134   3.1164   3.2168   4.1191   4.1994

          k = 1.1166-0.6447-0.2332 (  5091 PWs)   bands (ev):

   -33.6880 -33.6864 -17.0866 -17.0765 -15.0708 -15.0081 -14.9359 -14.8791
   -14.6314 -14.6238 -13.7062 -13.6237 -13.5767 -13.5107  -3.2031  -3.1940
    -1.4346  -1.4070  -1.3938  -1.3609  -1.0699  -0.9256   2.5130   2.5279
     2.5758   2.6035   3.0711   3.1466   3.1983   3.2968   4.0124   4.0414

          k = 0.9571-0.7368-0.1866 (  5096 PWs)   bands (ev):

   -33.6871 -33.6871 -17.0775 -17.0775 -15.0743 -15.0743 -14.8555 -14.8555
   -14.6635 -14.6635 -13.6994 -13.6994 -13.5023 -13.5023  -3.1345  -3.1345
    -1.4302  -1.4302  -1.3492  -1.3492  -0.9666  -0.9666   2.4331   2.4331
     2.6053   2.6053   2.9492   2.9492   3.2030   3.2030   4.1234   4.1234

          k = 0.0000-0.0000-0.5598 (  5076 PWs)   bands (ev):

   -33.6873 -33.6873 -17.0839 -17.0839 -14.9794 -14.9794 -14.9794 -14.9794
   -14.6070 -14.6070 -13.6052 -13.6052 -13.6052 -13.6052  -3.2360  -3.2360
    -1.4059  -1.4059  -1.4059  -1.4059  -1.0115  -1.0115   2.5713   2.5713
     2.5713   2.5713   3.2467   3.2467   3.2467   3.2467   3.9633   3.9633

     highest occupied level (ev):     4.4881

!    total energy              =    -367.43036882 Ry
     Harris-Foulkes estimate   =    -367.43036882 Ry
     estimated scf accuracy    <          9.0E-09 Ry

     The total energy is the sum of the following terms:

     one-electron contribution =    -148.14620349 Ry
     hartree contribution      =     103.45739125 Ry
     xc contribution           =     -75.26916008 Ry
     ewald contribution        =    -247.47239650 Ry

     convergence has been achieved in   9 iterations

     Forces acting on atoms (cartesian axes, Ry/au):

     atom    1 type  1   force =     0.00000000    0.00000000    0.00000000
     atom    2 type  1   force =    -0.00000000    0.00000000   -0.00000000
     atom    3 type  2   force =    -0.00000000    0.00000000    0.00000000
     atom    4 type  2   force =     0.00000000   -0.00000000   -0.00000000
     atom    5 type  3   force =    -0.00012197    0.00021125    0.00000000
     atom    6 type  3   force =     0.00024394    0.00000000   -0.00000000
     atom    7 type  3   force =    -0.00012197   -0.00021125   -0.00000000
     atom    8 type  3   force =    -0.00024394   -0.00000000    0.00000000
     atom    9 type  3   force =     0.00012197    0.00021125    0.00000000
     atom   10 type  3   force =     0.00012197   -0.00021125   -0.00000000

     Total force =     0.000598     Total SCF correction =     0.000109
     SCF correction compared to forces is large: reduce conv_thr to get better values


     Computing stress (Cartesian axis) and pressure

          total   stress  (Ry/bohr**3)                   (kbar)     P=   -0.73
  -0.00000533  -0.00000000   0.00000000         -0.78     -0.00      0.00
  -0.00000000  -0.00000533  -0.00000000         -0.00     -0.78     -0.00
   0.00000000  -0.00000000  -0.00000429          0.00     -0.00     -0.63


     Writing output data file CCO_k.save/
 
     init_run     :    124.99s CPU    126.64s WALL (       2 calls)
     electrons    :  11504.31s CPU  11665.20s WALL (       8 calls)
     update_pot   :     24.24s CPU     24.31s WALL (       6 calls)
     forces       :     59.46s CPU     60.40s WALL (       8 calls)
     stress       :    239.77s CPU    240.85s WALL (       8 calls)

     Called by init_run:
     wfcinit      :    111.95s CPU    113.17s WALL (       2 calls)
     potinit      :      1.54s CPU      1.59s WALL (       2 calls)
     hinit0       :     10.84s CPU     10.93s WALL (       2 calls)

     Called by electrons:
     c_bands      :  10401.29s CPU  10547.39s WALL (      64 calls)
     sum_band     :   1065.44s CPU   1076.28s WALL (      64 calls)
     v_of_rho     :     22.66s CPU     22.84s WALL (      72 calls)
     newd         :     18.42s CPU     21.45s WALL (      72 calls)
     mix_rho      :      0.84s CPU      1.09s WALL (      64 calls)

     Called by c_bands:
     init_us_2    :     91.99s CPU     92.73s WALL (    9490 calls)
     ccgdiagg     :   8528.10s CPU   8654.63s WALL (    4181 calls)
     wfcrot       :   1932.06s CPU   1945.96s WALL (    3791 calls)

     Called by sum_band:
     sum_band:bec :      0.73s CPU      0.86s WALL (    4160 calls)
     addusdens    :     17.99s CPU     20.76s WALL (      64 calls)

     Called by *cgdiagg:
     h_psi        :   8525.48s CPU   8610.72s WALL (  387408 calls)
     s_psi        :   1063.19s CPU   1101.86s WALL (  771025 calls)
     cdiaghg      :      4.46s CPU      5.48s WALL (    3791 calls)

     Called by h_psi:
     h_psi:pot    :   8506.09s CPU   8589.53s WALL (  387408 calls)
     h_psi:calbec :    540.74s CPU    555.74s WALL (  387408 calls)
     vloc_psi     :   7397.49s CPU   7453.51s WALL (  387408 calls)
     add_vuspsi   :    548.26s CPU    567.13s WALL (  387408 calls)
     hs_1psi      :   7219.23s CPU   7302.79s WALL (  383617 calls)
     s_1psi       :   1053.60s CPU   1080.66s WALL (  383617 calls)

     General routines
     calbec       :   1072.62s CPU   1114.36s WALL (  777785 calls)
     fft          :      6.59s CPU      6.62s WALL (     998 calls)
     ffts         :      0.44s CPU      0.44s WALL (      64 calls)
     fftw         :   7447.85s CPU   7480.31s WALL ( 1148178 calls)
 
     Parallel routines
 
     PWSCF        :      3h19m CPU      3h22m WALL

 
   This run was terminated on:  22:44:11  23Apr2022            

=------------------------------------------------------------------------------=
   JOB DONE.
=------------------------------------------------------------------------------=
