
     Program PWSCF v.6.4.1 starts on 24Apr2022 at 15:22:49 

     This program is part of the open-source Quantum ESPRESSO suite
     for quantum simulation of materials; please cite
         "P. Giannozzi et al., J. Phys.:Condens. Matter 21 395502 (2009);
         "P. Giannozzi et al., J. Phys.:Condens. Matter 29 465901 (2017);
          URL http://www.quantum-espresso.org", 
     in publications or presentations arising from this work. More details at
     http://www.quantum-espresso.org/quote

     Parallel version (MPI & OpenMP), running on     120 processor cores
     Number of MPI processes:               120
     Threads/MPI process:                     1

     MPI processes distributed on     2 nodes
     R & G space division:  proc/nbgrp/npool/nimage =     120
     Waiting for input...
     Reading input from standard input

     Current dimensions of program PWSCF are:
     Max number of different atomic species (ntypx) = 10
     Max number of k-points (npk) =  40000
     Max angular momentum in pseudopotentials (lmaxx) =  3

     Subspace diagonalization in iterative solution of the eigenvalue problem:
     one sub-group per band group will be used
     scalapack distributed-memory algorithm (size of sub-group:  7*  7 procs)

 
     Parallelization info
     --------------------
     sticks:   dense  smooth     PW     G-vecs:    dense   smooth      PW
     Min          16      16      4                  484      484      70
     Max          17      17      5                  491      491      78
     Sum        1981    1981    571                58383    58383    8873
 


     bravais-lattice index     =            5
     lattice parameter (alat)  =      12.0000  a.u.
     unit-cell volume          =    1221.8805 (a.u.)^3
     number of atoms/cell      =           10
     number of atomic types    =            3
     number of electrons       =        64.00
     number of Kohn-Sham states=           32
     kinetic-energy cutoff     =      50.0000  Ry
     charge density cutoff     =     200.0000  Ry
     convergence threshold     =      1.0E-05
     mixing beta               =       0.7000
     number of iterations used =            8  plain     mixing
     Exchange-correlation      = SLA  PW   PBE  PBE ( 1  4  3  4 0 0)
     nstep                     =           50


     celldm(1)=  12.000000  celldm(2)=   0.000000  celldm(3)=   0.000000
     celldm(4)=   0.500000  celldm(5)=   0.000000  celldm(6)=   0.000000

     crystal axes: (cart. coord. in units of alat)
               a(1) = (   0.500000  -0.288675   0.816497 )  
               a(2) = (   0.000000   0.577350   0.816497 )  
               a(3) = (  -0.500000  -0.288675   0.816497 )  

     reciprocal axes: (cart. coord. in units 2 pi/alat)
               b(1) = (  1.000000 -0.577350  0.408248 )  
               b(2) = (  0.000000  1.154701  0.408248 )  
               b(3) = ( -1.000000 -0.577350  0.408248 )  


     PseudoPot. # 1 for Ca read from file:
     ./Ca_PBE.UPF
     MD5 check sum: 403a4c14b9e4d4dfdc3024c9a3812218
     Pseudo is Ultrasoft + core correction, Zval = 10.0
     Generated by new atomic code, or converted to UPF format
     Using radial grid of  845 points,  6 beta functions with: 
                l(1) =   0
                l(2) =   0
                l(3) =   1
                l(4) =   1
                l(5) =   2
                l(6) =   2
     Q(r) pseudized with  8 coefficients,  rinner =    1.500   1.500   1.500
                                                       1.500   1.500

     PseudoPot. # 2 for C  read from file:
     ./C_PBE.UPF
     MD5 check sum: d1aef80898a10debaa0f26306b886e00
     Pseudo is Ultrasoft + core correction, Zval =  4.0
     Generated by new atomic code, or converted to UPF format
     Using radial grid of  721 points,  4 beta functions with: 
                l(1) =   0
                l(2) =   0
                l(3) =   1
                l(4) =   1
     Q(r) pseudized with  8 coefficients,  rinner =    1.100   1.100   1.100


     PseudoPot. # 3 for O  read from file:
     ./O_PBE.UPF
     MD5 check sum: 734c27235a0248c51dbae37a1fbe46ec
     Pseudo is Ultrasoft + core correction, Zval =  6.0
     Generated by new atomic code, or converted to UPF format
     Using radial grid of  737 points,  5 beta functions with: 
                l(1) =   0
                l(2) =   0
                l(3) =   1
                l(4) =   1
                l(5) =   2
     Q(r) pseudized with  8 coefficients,  rinner =    0.900   0.900   0.900
                                                       0.900   0.900

     atomic species   valence    mass     pseudopotential
        Ca            10.00    40.07800     Ca( 1.00)
        C              4.00    12.01070     C ( 1.00)
        O              6.00    16.00000     O ( 1.00)

     12 Sym. Ops., with inversion, found ( 6 have fractional translation)



   Cartesian axes

     site n.     atom                  positions (alat units)
         1           Ca  tau(   1) = (   0.0000000  -0.0000000   1.2247449  )
         2           Ca  tau(   2) = (   0.0000000   0.0000000   0.0000000  )
         3           C   tau(   3) = (   0.0000000  -0.0000000   0.6123724  )
         4           C   tau(   4) = (  -0.0000000  -0.0000000   1.8371173  )
         5           O   tau(   5) = (   0.1284501   0.3548681   1.4288690  )
         6           O   tau(   6) = (   0.2430998  -0.2886751   1.4288690  )
         7           O   tau(   7) = (  -0.3715499  -0.0661930   1.4288690  )
         8           O   tau(   8) = (  -0.2430998   0.2886751   1.0206207  )
         9           O   tau(   9) = (   0.3715499   0.0661930   1.0206207  )
        10           O   tau(  10) = (  -0.1284501  -0.3548681   1.0206207  )

     number of k points=    13
                       cart. coord. in units 2pi/alat
        k(    1) = (   0.0000000   0.0000000   0.0000000), wk =   0.0312500
        k(    2) = (  -0.2500000  -0.1443376   0.1020621), wk =   0.1875000
        k(    3) = (   0.5000000   0.2886751  -0.2041241), wk =   0.0937500
        k(    4) = (  -0.2500000   0.1443376   0.2041241), wk =   0.1875000
        k(    5) = (   0.5000000   0.5773503  -0.1020621), wk =   0.3750000
        k(    6) = (   0.2500000   0.4330127   0.0000000), wk =   0.1875000
        k(    7) = (   0.5000000  -0.2886751  -0.4082483), wk =   0.0937500
        k(    8) = (   0.0000000   0.0000000   0.3061862), wk =   0.0625000
        k(    9) = (   0.7500000   0.4330127   0.0000000), wk =   0.1875000
        k(   10) = (   0.5000000   0.2886751   0.1020621), wk =   0.1875000
        k(   11) = (   0.7500000  -0.4330127  -0.3061862), wk =   0.1875000
        k(   12) = (   0.5000000  -0.5773503  -0.2041241), wk =   0.1875000
        k(   13) = (   0.0000000   0.0000000  -0.6123724), wk =   0.0312500

     Dense  grid:    58383 G-vectors     FFT dimensions: (  60,  60,  60)

     Estimated max dynamical RAM per process >      15.66 MB

     Estimated total dynamical RAM >       1.83 GB
     Message from routine sym_rho_init:
     some processors have no G-vectors for symmetrization
     Message from routine sym_rho_init:
     some processors have no G-vectors for symmetrization
     Message from routine sym_rho_init:
     some processors have no G-vectors for symmetrization
     Message from routine sym_rho_init:
     some processors have no G-vectors for symmetrization
     Message from routine sym_rho_init:
     some processors have no G-vectors for symmetrization

     Check: negative core charge=   -0.000002

     Initial potential from superposition of free atoms

     starting charge   63.98899, renormalised to   64.00000
     Starting wfcs are   52 randomized atomic wfcs

     total cpu time spent up to now is        2.8 secs

     Self-consistent Calculation

     iteration #  1     ecut=    50.00 Ry     beta= 0.70
     CG style diagonalization
     ethr =  1.00E-02,  avg # of iterations =  2.2

     total cpu time spent up to now is        5.6 secs

     total energy              =    -365.13668324 Ry
     Harris-Foulkes estimate   =    -366.89784799 Ry
     estimated scf accuracy    <       2.39122096 Ry

     iteration #  2     ecut=    50.00 Ry     beta= 0.70
     CG style diagonalization
     ethr =  3.74E-03,  avg # of iterations =  4.8

     total cpu time spent up to now is       11.6 secs

     total energy              =    -364.98316598 Ry
     Harris-Foulkes estimate   =    -368.32670773 Ry
     estimated scf accuracy    <       9.59863598 Ry

     iteration #  3     ecut=    50.00 Ry     beta= 0.70
     CG style diagonalization
     ethr =  3.74E-03,  avg # of iterations =  4.2

     total cpu time spent up to now is       16.8 secs

     total energy              =    -366.39964409 Ry
     Harris-Foulkes estimate   =    -366.42488390 Ry
     estimated scf accuracy    <       0.05409509 Ry

     iteration #  4     ecut=    50.00 Ry     beta= 0.70
     CG style diagonalization
     ethr =  8.45E-05,  avg # of iterations =  4.3

     total cpu time spent up to now is       22.1 secs

     total energy              =    -366.43463784 Ry
     Harris-Foulkes estimate   =    -366.43814957 Ry
     estimated scf accuracy    <       0.01071010 Ry

     iteration #  5     ecut=    50.00 Ry     beta= 0.70
     CG style diagonalization
     ethr =  1.67E-05,  avg # of iterations =  3.8

     total cpu time spent up to now is       26.9 secs

     total energy              =    -366.43762904 Ry
     Harris-Foulkes estimate   =    -366.43761817 Ry
     estimated scf accuracy    <       0.00015542 Ry

     iteration #  6     ecut=    50.00 Ry     beta= 0.70
     CG style diagonalization
     ethr =  2.43E-07,  avg # of iterations =  5.2

     total cpu time spent up to now is       33.3 secs

     total energy              =    -366.43784690 Ry
     Harris-Foulkes estimate   =    -366.43789716 Ry
     estimated scf accuracy    <       0.00012024 Ry

     iteration #  7     ecut=    50.00 Ry     beta= 0.70
     CG style diagonalization
     ethr =  1.88E-07,  avg # of iterations =  3.7

     total cpu time spent up to now is       37.9 secs

     total energy              =    -366.43787887 Ry
     Harris-Foulkes estimate   =    -366.43788339 Ry
     estimated scf accuracy    <       0.00001624 Ry

     iteration #  8     ecut=    50.00 Ry     beta= 0.70
     CG style diagonalization
     ethr =  2.54E-08,  avg # of iterations =  3.6

     total cpu time spent up to now is       42.4 secs

     End of self-consistent calculation

          k = 0.0000 0.0000 0.0000 (  7391 PWs)   bands (ev):

   -38.5910 -38.5892 -19.5839 -19.5604 -19.5024 -19.5024 -19.4773 -19.4773
   -15.9214 -15.6385 -14.6381 -14.6381 -14.4897 -14.4897  -6.2873  -6.1405
    -2.5708  -2.5708  -2.4854  -2.4854  -1.7023  -0.5839   0.2949   0.2949
     0.4587   0.4587   0.5566   0.5566   0.8596   1.4271   1.4949   1.4949

          k =-0.2500-0.1443 0.1021 (  7303 PWs)   bands (ev):

   -38.5908 -38.5895 -19.5802 -19.5638 -19.4996 -19.4995 -19.4823 -19.4814
   -15.8665 -15.6841 -14.6175 -14.6068 -14.5270 -14.5155  -6.2681  -6.1388
    -2.5986  -2.5457  -2.4839  -2.4398  -1.5389  -0.7970   0.2236   0.2574
     0.3139   0.3588   0.6648   0.7191   0.9920   1.2846   1.4059   1.4559

          k = 0.5000 0.2887-0.2041 (  7336 PWs)   bands (ev):

   -38.5901 -38.5901 -19.5719 -19.5719 -19.4928 -19.4928 -19.4903 -19.4903
   -15.7680 -15.7680 -14.5829 -14.5829 -14.5590 -14.5590  -6.1929  -6.1929
    -2.5758  -2.5758  -2.4398  -2.4398  -1.1652  -1.1652   0.0728   0.0728
     0.3847   0.3847   0.7968   0.7968   1.0574   1.0574   1.4140   1.4140

          k =-0.2500 0.1443 0.2041 (  7331 PWs)   bands (ev):

   -38.5907 -38.5895 -19.5805 -19.5654 -19.5054 -19.4922 -19.4883 -19.4757
   -15.8552 -15.6921 -14.6297 -14.5839 -14.5537 -14.5028  -6.2718  -6.1371
    -2.6428  -2.5072  -2.4837  -2.4178  -1.5179  -0.8518   0.2566   0.2881
     0.3678   0.3834   0.5446   0.8023   1.0152   1.2842   1.2983   1.4240

          k = 0.5000 0.5774-0.1021 (  7287 PWs)   bands (ev):

   -38.5903 -38.5899 -19.5758 -19.5711 -19.5038 -19.4965 -19.4841 -19.4792
   -15.7885 -15.7401 -14.6209 -14.6003 -14.5474 -14.5224  -6.2230  -6.1620
    -2.6218  -2.5689  -2.4423  -2.3830  -1.2898  -1.0681   0.0863   0.1121
     0.4432   0.4526   0.6645   0.7938   1.0711   1.1250   1.2892   1.4141

          k = 0.2500 0.4330 0.0000 (  7306 PWs)   bands (ev):

   -38.5904 -38.5898 -19.5763 -19.5686 -19.5018 -19.4944 -19.4891 -19.4797
   -15.8013 -15.7323 -14.6152 -14.5963 -14.5467 -14.5280  -6.2344  -6.1488
    -2.6464  -2.5142  -2.4340  -2.4322  -1.3288  -1.0104   0.0340   0.1180
     0.3539   0.4583   0.6610   0.8219   1.0617   1.2523   1.2911   1.4164

          k = 0.5000-0.2887-0.4082 (  7216 PWs)   bands (ev):

   -38.5904 -38.5898 -19.5779 -19.5721 -19.5084 -19.4975 -19.4810 -19.4742
   -15.7818 -15.7409 -14.6359 -14.6106 -14.5268 -14.5238  -6.2536  -6.1292
    -2.7012  -2.4931  -2.4618  -2.3346  -1.3368  -1.0952   0.1658   0.2273
     0.4261   0.5440   0.5955   0.7501   0.9992   1.1331   1.2572   1.3802

          k = 0.0000 0.0000 0.3062 (  7303 PWs)   bands (ev):

   -38.5908 -38.5895 -19.5813 -19.5648 -19.4989 -19.4989 -19.4812 -19.4812
   -15.8788 -15.6790 -14.6165 -14.6165 -14.5116 -14.5116  -6.2736  -6.1697
    -2.5505  -2.5505  -2.4878  -2.4878  -1.5445  -0.7720   0.3084   0.3084
     0.4193   0.4193   0.6935   0.6935   0.9210   1.3147   1.3468   1.3468

          k = 0.7500 0.4330 0.0000 (  7306 PWs)   bands (ev):

   -38.5904 -38.5898 -19.5775 -19.5697 -19.5008 -19.4926 -19.4887 -19.4801
   -15.8188 -15.7238 -14.6126 -14.5757 -14.5573 -14.5283  -6.2337  -6.1851
    -2.5837  -2.5305  -2.4985  -2.4234  -1.3598  -1.0017   0.2236   0.2504
     0.3822   0.5056   0.6048   0.9091   1.0331   1.0690   1.2706   1.3316

          k = 0.5000 0.2887 0.1021 (  7287 PWs)   bands (ev):

   -38.5903 -38.5899 -19.5758 -19.5711 -19.5035 -19.4965 -19.4846 -19.4790
   -15.7794 -15.7500 -14.6199 -14.5944 -14.5451 -14.5309  -6.2359  -6.1485
    -2.6758  -2.4707  -2.4638  -2.4007  -1.2776  -1.1027   0.0882   0.1621
     0.3896   0.4525   0.6331   0.9114   0.9914   1.2246   1.2994   1.3102

          k = 0.7500-0.4330-0.3062 (  7287 PWs)   bands (ev):

   -38.5903 -38.5899 -19.5769 -19.5721 -19.5027 -19.4956 -19.4839 -19.4789
   -15.7936 -15.7456 -14.6077 -14.5882 -14.5541 -14.5269  -6.2410  -6.1798
    -2.6258  -2.5233  -2.4669  -2.4035  -1.2989  -1.0913   0.2440   0.3009
     0.4217   0.4564   0.7137   0.8815   0.9743   1.1437   1.1503   1.2799

          k = 0.5000-0.5774-0.2041 (  7256 PWs)   bands (ev):

   -38.5901 -38.5901 -19.5744 -19.5744 -19.5018 -19.5018 -19.4795 -19.4795
   -15.7618 -15.7618 -14.6173 -14.6173 -14.5307 -14.5307  -6.1933  -6.1933
    -2.6050  -2.6050  -2.3973  -2.3973  -1.1879  -1.1879   0.1124   0.1124
     0.5358   0.5358   0.6695   0.6695   1.1017   1.1017   1.2972   1.2972

          k = 0.0000 0.0000-0.6124 (  7336 PWs)   bands (ev):

   -38.5901 -38.5901 -19.5739 -19.5739 -19.4902 -19.4902 -19.4902 -19.4902
   -15.7779 -15.7779 -14.5642 -14.5642 -14.5642 -14.5642  -6.2296  -6.2296
    -2.5102  -2.5102  -2.5102  -2.5102  -1.1686  -1.1686   0.3555   0.3555
     0.3555   0.3555   1.0100   1.0100   1.0100   1.0100   1.0945   1.0945

     highest occupied level (ev):     1.4949

!    total energy              =    -366.43788028 Ry
     Harris-Foulkes estimate   =    -366.43788186 Ry
     estimated scf accuracy    <       0.00000201 Ry

     The total energy is the sum of the following terms:

     one-electron contribution =    -167.19480004 Ry
     hartree contribution      =     105.90469328 Ry
     xc contribution           =     -72.68170077 Ry
     ewald contribution        =    -232.46607275 Ry

     convergence has been achieved in   8 iterations

     Forces acting on atoms (cartesian axes, Ry/au):

     atom    1 type  1   force =     0.00000000    0.00000000    0.00000000
     atom    2 type  1   force =     0.00000000   -0.00000000    0.00000000
     atom    3 type  2   force =    -0.00000000    0.00000000   -0.00000000
     atom    4 type  2   force =     0.00000000    0.00000000    0.00000000
     atom    5 type  3   force =    -0.12154585    0.21052360    0.00000000
     atom    6 type  3   force =     0.24309171    0.00000000    0.00000000
     atom    7 type  3   force =    -0.12154585   -0.21052360   -0.00000000
     atom    8 type  3   force =    -0.24309171   -0.00000000   -0.00000000
     atom    9 type  3   force =     0.12154585    0.21052360    0.00000000
     atom   10 type  3   force =     0.12154585   -0.21052360   -0.00000000

     Total force =     0.595451     Total SCF correction =     0.001743


     Computing stress (Cartesian axis) and pressure

          total   stress  (Ry/bohr**3)                   (kbar)     P= -286.56
  -0.00282276   0.00000000  -0.00000000       -415.24      0.00     -0.00
   0.00000000  -0.00282276  -0.00000000          0.00   -415.24     -0.00
  -0.00000000  -0.00000000  -0.00019850         -0.00     -0.00    -29.20


     BFGS Geometry Optimization

     number of scf cycles    =   1
     number of bfgs steps    =   0

     enthalpy new            =    -366.4378802757 Ry

     new trust radius        =       0.4933541107 bohr
     new conv_thr            =       0.0000100000 Ry

     new unit-cell volume =   1050.27352 a.u.^3 (   155.63448 Ang^3 )
     density =      2.13579 g/cm^3

CELL_PARAMETERS (alat= 12.00000000)
   0.464715465  -0.268303599   0.812444684
   0.000000000   0.536607198   0.812444684
  -0.464715465  -0.268303599   0.812444684

ATOMIC_POSITIONS (crystal)
Ca       0.500000000   0.500000000   0.500000000
Ca       0.000000000  -0.000000000  -0.000000000
C        0.250000000   0.250000000   0.250000000
C        0.750000000   0.750000000   0.750000000
O        0.486642603   1.013357397   0.250000000
O        1.013357397   0.250000000   0.486642603
O        0.250000000   0.486642603   1.013357397
O       -0.013357397   0.750000000   0.513357397
O        0.750000000   0.513357397  -0.013357397
O        0.513357397  -0.013357397   0.750000000



     Writing output data file CCO_k.save/
     NEW-OLD atomic charge density approx. for the potential

     Check: negative core charge=   -0.000002
     extrapolated charge   53.54467, renormalised to   64.00000

     total cpu time spent up to now is       43.3 secs

     Self-consistent Calculation

     iteration #  1     ecut=    50.00 Ry     beta= 0.70
     CG style diagonalization
     c_bands:  2 eigenvalues not converged
     c_bands:  4 eigenvalues not converged
     c_bands:  4 eigenvalues not converged
     c_bands:  3 eigenvalues not converged
     c_bands:  3 eigenvalues not converged
     c_bands:  1 eigenvalues not converged
     c_bands:  4 eigenvalues not converged
     c_bands:  4 eigenvalues not converged
     c_bands:  5 eigenvalues not converged
     c_bands:  3 eigenvalues not converged
     c_bands:  4 eigenvalues not converged
     ethr =  1.00E-06,  avg # of iterations = 12.5

     total cpu time spent up to now is       59.4 secs

     total energy              =    -360.78680857 Ry
     Harris-Foulkes estimate   =    -388.24814663 Ry
     estimated scf accuracy    <       5.66391466 Ry

     iteration #  2     ecut=    50.00 Ry     beta= 0.70
     CG style diagonalization
     ethr =  8.85E-03,  avg # of iterations =  5.4

     total cpu time spent up to now is       66.7 secs

     total energy              =    -364.87662076 Ry
     Harris-Foulkes estimate   =    -373.43903485 Ry
     estimated scf accuracy    <      26.30987845 Ry

     iteration #  3     ecut=    50.00 Ry     beta= 0.70
     CG style diagonalization
     ethr =  8.85E-03,  avg # of iterations =  4.1

     total cpu time spent up to now is       71.9 secs

     total energy              =    -367.22841787 Ry
     Harris-Foulkes estimate   =    -367.68273633 Ry
     estimated scf accuracy    <       1.76101727 Ry

     iteration #  4     ecut=    50.00 Ry     beta= 0.70
     CG style diagonalization
     ethr =  2.75E-03,  avg # of iterations =  3.1

     total cpu time spent up to now is       75.8 secs

     total energy              =    -367.20238651 Ry
     Harris-Foulkes estimate   =    -367.34934268 Ry
     estimated scf accuracy    <       0.75912914 Ry

     iteration #  5     ecut=    50.00 Ry     beta= 0.70
     CG style diagonalization
     ethr =  1.19E-03,  avg # of iterations =  3.0

     total cpu time spent up to now is       79.6 secs

     total energy              =    -367.10385437 Ry
     Harris-Foulkes estimate   =    -367.23862517 Ry
     estimated scf accuracy    <       0.34823161 Ry

     iteration #  6     ecut=    50.00 Ry     beta= 0.70
     CG style diagonalization
     ethr =  5.44E-04,  avg # of iterations =  3.7

     total cpu time spent up to now is       84.3 secs

     total energy              =    -367.16839868 Ry
     Harris-Foulkes estimate   =    -367.16986747 Ry
     estimated scf accuracy    <       0.00348128 Ry

     iteration #  7     ecut=    50.00 Ry     beta= 0.70
     CG style diagonalization
     ethr =  5.44E-06,  avg # of iterations =  5.1

     total cpu time spent up to now is       90.6 secs

     total energy              =    -367.17407965 Ry
     Harris-Foulkes estimate   =    -367.17517722 Ry
     estimated scf accuracy    <       0.00222597 Ry

     iteration #  8     ecut=    50.00 Ry     beta= 0.70
     CG style diagonalization
     ethr =  3.48E-06,  avg # of iterations =  3.8

     total cpu time spent up to now is       95.8 secs

     total energy              =    -367.17448849 Ry
     Harris-Foulkes estimate   =    -367.17462318 Ry
     estimated scf accuracy    <       0.00022211 Ry

     iteration #  9     ecut=    50.00 Ry     beta= 0.70
     CG style diagonalization
     ethr =  3.47E-07,  avg # of iterations =  4.3

     total cpu time spent up to now is      101.6 secs

     total energy              =    -367.17457216 Ry
     Harris-Foulkes estimate   =    -367.17459872 Ry
     estimated scf accuracy    <       0.00010109 Ry

     iteration # 10     ecut=    50.00 Ry     beta= 0.70
     CG style diagonalization
     ethr =  1.58E-07,  avg # of iterations =  3.2

     total cpu time spent up to now is      106.2 secs

     total energy              =    -367.17456627 Ry
     Harris-Foulkes estimate   =    -367.17457854 Ry
     estimated scf accuracy    <       0.00002869 Ry

     iteration # 11     ecut=    50.00 Ry     beta= 0.70
     CG style diagonalization
     ethr =  4.48E-08,  avg # of iterations =  3.7

     total cpu time spent up to now is      111.2 secs

     End of self-consistent calculation

          k = 0.0000 0.0000 0.0000 (  7391 PWs)   bands (ev):

   -36.9760 -36.9719 -18.0264 -17.9537 -17.9272 -17.9272 -17.8820 -17.8820
   -16.9920 -16.7297 -14.5029 -14.5029 -14.3199 -14.3199  -4.6827  -4.5874
    -2.3005  -2.3005  -2.2707  -2.2707  -1.9399  -0.8452   1.1855   1.1855
     1.4651   1.4651   1.4820   1.4820   2.3910   2.4984   2.4984   2.8505

          k =-0.2690-0.1553 0.1026 (  7303 PWs)   bands (ev):

   -36.9754 -36.9725 -18.0090 -17.9617 -17.9408 -17.9256 -17.9003 -17.8919
   -16.9069 -16.7758 -14.4774 -14.4627 -14.3721 -14.3490  -4.6087  -4.5961
    -2.3702  -2.2977  -2.2661  -2.2164  -1.7455  -1.0124   1.1860   1.1880
     1.2315   1.2405   1.6372   1.6609   2.3061   2.3312   2.6281   2.7717

          k = 0.5380 0.3106-0.2051 (  7336 PWs)   bands (ev):

   -36.9739 -36.9739 -17.9796 -17.9796 -17.9415 -17.9415 -17.9066 -17.9066
   -16.8219 -16.8219 -14.4378 -14.4378 -14.4026 -14.4026  -4.5668  -4.5668
    -2.3679  -2.3679  -2.2160  -2.2160  -1.3491  -1.3491   1.0111   1.0111
     1.2365   1.2365   1.7861   1.7861   2.1637   2.1637   2.7348   2.7348

          k =-0.2690 0.1553 0.2051 (  7331 PWs)   bands (ev):

   -36.9753 -36.9726 -18.0094 -17.9822 -17.9447 -17.9094 -17.9076 -17.8783
   -16.8893 -16.7901 -14.4837 -14.4408 -14.3958 -14.3417  -4.6135  -4.5976
    -2.4034  -2.2850  -2.2583  -2.1826  -1.7245  -1.0507   1.1451   1.2081
     1.2846   1.3462   1.4924   1.7702   2.1607   2.4136   2.6099   2.7298

          k = 0.5380 0.6212-0.1026 (  7287 PWs)   bands (ev):

   -36.9744 -36.9734 -17.9970 -17.9915 -17.9554 -17.9339 -17.8928 -17.8857
   -16.8247 -16.8157 -14.4738 -14.4485 -14.3953 -14.3659  -4.5842  -4.5498
    -2.3968  -2.3628  -2.2369  -2.1509  -1.4704  -1.2472   0.9739   1.0401
     1.3201   1.3423   1.6238   1.7586   2.0923   2.2658   2.7054   2.7359

          k = 0.2690 0.4659 0.0000 (  7306 PWs)   bands (ev):

   -36.9746 -36.9732 -17.9921 -17.9724 -17.9658 -17.9344 -17.9042 -17.8852
   -16.8290 -16.8155 -14.4662 -14.4559 -14.3901 -14.3694  -4.5892  -4.5405
    -2.4423  -2.2821  -2.2270  -2.2036  -1.5195  -1.1956   0.9361   1.0594
     1.2372   1.3266   1.6299   1.7998   2.1728   2.2562   2.7124   2.7514

          k = 0.5380-0.3106-0.4103 (  7216 PWs)   bands (ev):

   -36.9746 -36.9732 -18.0280 -17.9948 -17.9536 -17.9202 -17.8842 -17.8745
   -16.8492 -16.7900 -14.4938 -14.4468 -14.3775 -14.3676  -4.6316  -4.4979
    -2.4785  -2.2803  -2.2616  -2.0916  -1.5239  -1.2551   0.9742   1.2021
     1.3276   1.4502   1.5151   1.6761   2.0111   2.3247   2.6058   2.7747

          k =-0.0000 0.0000 0.3077 (  7303 PWs)   bands (ev):

   -36.9754 -36.9725 -18.0209 -17.9711 -17.9211 -17.9211 -17.8892 -17.8892
   -16.9461 -16.7625 -14.4758 -14.4758 -14.3464 -14.3464  -4.6878  -4.6222
    -2.2898  -2.2898  -2.2680  -2.2680  -1.7592  -0.9919   1.2126   1.2126
     1.3604   1.3604   1.6755   1.6755   2.3469   2.3469   2.4392   2.7614

          k = 0.8069 0.4659 0.0000 (  7306 PWs)   bands (ev):

   -36.9746 -36.9732 -18.0115 -17.9855 -17.9294 -17.9156 -17.9090 -17.8882
   -16.8777 -16.7925 -14.4616 -14.4336 -14.3919 -14.3765  -4.6335  -4.6003
    -2.3586  -2.2872  -2.2637  -2.2169  -1.5450  -1.1888   1.1572   1.1790
     1.2675   1.4142   1.5527   1.9030   2.0566   2.2378   2.6018   2.7147

          k = 0.5380 0.3106 0.1026 (  7287 PWs)   bands (ev):

   -36.9744 -36.9734 -18.0080 -17.9892 -17.9513 -17.9208 -17.9004 -17.8858
   -16.8414 -16.8001 -14.4768 -14.4338 -14.3977 -14.3750  -4.6129  -4.5187
    -2.4690  -2.2572  -2.2306  -2.1834  -1.4658  -1.2722   0.9630   1.1270
     1.2615   1.3148   1.6064   1.9493   1.9577   2.2667   2.6536   2.7611

          k = 0.8069-0.4659-0.3077 (  7287 PWs)   bands (ev):

   -36.9744 -36.9734 -18.0071 -18.0041 -17.9376 -17.9169 -17.8914 -17.8846
   -16.8381 -16.8288 -14.4536 -14.4282 -14.4074 -14.3752  -4.6373  -4.6026
    -2.3929  -2.2872  -2.2572  -2.1675  -1.4848  -1.2655   1.1301   1.2502
     1.3272   1.3661   1.6644   1.8360   1.9668   2.2474   2.6365   2.6392

          k = 0.5380-0.6212-0.2051 (  7256 PWs)   bands (ev):

   -36.9739 -36.9739 -18.0021 -18.0021 -17.9430 -17.9430 -17.8842 -17.8842
   -16.8182 -16.8182 -14.4649 -14.4649 -14.3778 -14.3778  -4.5691  -4.5691
    -2.3906  -2.3906  -2.1779  -2.1779  -1.3614  -1.3614   1.0112   1.0112
     1.4223   1.4223   1.6159   1.6159   2.1624   2.1624   2.7049   2.7049

          k = 0.0000-0.0000-0.6154 (  7336 PWs)   bands (ev):

   -36.9739 -36.9739 -18.0018 -18.0018 -17.9057 -17.9057 -17.9057 -17.9057
   -16.8480 -16.8480 -14.4108 -14.4108 -14.4108 -14.4108  -4.6745  -4.6745
    -2.2723  -2.2723  -2.2723  -2.2723  -1.3574  -1.3574   1.2768   1.2768
     1.2768   1.2768   2.0031   2.0031   2.0031   2.0031   2.5798   2.5798

     highest occupied level (ev):     2.8505

!    total energy              =    -367.17457137 Ry
     Harris-Foulkes estimate   =    -367.17457326 Ry
     estimated scf accuracy    <       0.00000246 Ry

     The total energy is the sum of the following terms:

     one-electron contribution =    -166.20628963 Ry
     hartree contribution      =     108.18537493 Ry
     xc contribution           =     -74.04972224 Ry
     ewald contribution        =    -235.10393443 Ry

     convergence has been achieved in  11 iterations

     Forces acting on atoms (cartesian axes, Ry/au):

     atom    1 type  1   force =     0.00000000    0.00000000    0.00000000
     atom    2 type  1   force =     0.00000000    0.00000000    0.00000000
     atom    3 type  2   force =     0.00000000    0.00000000   -0.00000000
     atom    4 type  2   force =    -0.00000000   -0.00000000    0.00000000
     atom    5 type  3   force =    -0.06972545    0.12076803    0.00000000
     atom    6 type  3   force =     0.13945091   -0.00000000    0.00000000
     atom    7 type  3   force =    -0.06972545   -0.12076803   -0.00000000
     atom    8 type  3   force =    -0.13945091   -0.00000000    0.00000000
     atom    9 type  3   force =     0.06972545    0.12076803    0.00000000
     atom   10 type  3   force =     0.06972545   -0.12076803   -0.00000000

     Total force =     0.341584     Total SCF correction =     0.004072


     Computing stress (Cartesian axis) and pressure

          total   stress  (Ry/bohr**3)                   (kbar)     P= -209.00
  -0.00205118  -0.00000000   0.00000000       -301.74     -0.00      0.00
  -0.00000000  -0.00205118  -0.00000000         -0.00   -301.74     -0.00
   0.00000000  -0.00000000  -0.00015990          0.00     -0.00    -23.52


     number of scf cycles    =   2
     number of bfgs steps    =   1

     enthalpy old            =    -366.4378802757 Ry
     enthalpy new            =    -367.1745713697 Ry

     CASE: enthalpy_new < enthalpy_old

     new trust radius        =       0.7381926653 bohr
     new conv_thr            =       0.0000100000 Ry

     new unit-cell volume =    818.27970 a.u.^3 (   121.25654 Ang^3 )
     density =      2.74131 g/cm^3

CELL_PARAMETERS (alat= 12.00000000)
   0.411788663  -0.237746296   0.806155167
   0.000000000   0.475492591   0.806155167
  -0.411788663  -0.237746296   0.806155167

ATOMIC_POSITIONS (crystal)
Ca       0.500000000   0.500000000   0.500000000
Ca       0.000000000  -0.000000000  -0.000000000
C        0.250000000   0.250000000   0.250000000
C        0.750000000   0.750000000   0.750000000
O        0.462422861   1.037577139   0.250000000
O        1.037577139   0.250000000   0.462422861
O        0.250000000   0.462422861   1.037577139
O       -0.037577139   0.750000000   0.537577139
O        0.750000000   0.537577139  -0.037577139
O        0.537577139  -0.037577139   0.750000000



     Writing output data file CCO_k.save/
     NEW-OLD atomic charge density approx. for the potential

     Check: negative core charge=   -0.000003

     negative rho (up, down):  1.835E-03 0.000E+00
     extrapolated charge   45.85822, renormalised to   64.00000

     total cpu time spent up to now is      112.0 secs

     Self-consistent Calculation

     iteration #  1     ecut=    50.00 Ry     beta= 0.70
     CG style diagonalization
     c_bands:  5 eigenvalues not converged
     c_bands:  2 eigenvalues not converged
     c_bands:  4 eigenvalues not converged
     ethr =  1.00E-06,  avg # of iterations = 18.7

     negative rho (up, down):  2.815E-04 0.000E+00

     total cpu time spent up to now is      134.5 secs

     total energy              =    -354.01440423 Ry
     Harris-Foulkes estimate   =    -406.13308821 Ry
     estimated scf accuracy    <      10.95436725 Ry

     iteration #  2     ecut=    50.00 Ry     beta= 0.70
     CG style diagonalization
     ethr =  1.00E-02,  avg # of iterations =  6.1

     total cpu time spent up to now is      142.0 secs

     total energy              =    -360.29503258 Ry
     Harris-Foulkes estimate   =    -377.05300684 Ry
     estimated scf accuracy    <      52.80122487 Ry

     iteration #  3     ecut=    50.00 Ry     beta= 0.70
     CG style diagonalization
     ethr =  1.00E-02,  avg # of iterations =  4.6

     total cpu time spent up to now is      147.7 secs

     total energy              =    -366.53344160 Ry
     Harris-Foulkes estimate   =    -367.73748090 Ry
     estimated scf accuracy    <       3.27759309 Ry

     iteration #  4     ecut=    50.00 Ry     beta= 0.70
     CG style diagonalization
     ethr =  5.12E-03,  avg # of iterations =  3.3

     total cpu time spent up to now is      152.2 secs

     total energy              =    -366.47115870 Ry
     Harris-Foulkes estimate   =    -366.84771863 Ry
     estimated scf accuracy    <       1.10020920 Ry

     iteration #  5     ecut=    50.00 Ry     beta= 0.70
     CG style diagonalization
     ethr =  1.72E-03,  avg # of iterations =  3.4

     total cpu time spent up to now is      156.6 secs

     total energy              =    -366.61481891 Ry
     Harris-Foulkes estimate   =    -366.65395454 Ry
     estimated scf accuracy    <       0.12575367 Ry

     iteration #  6     ecut=    50.00 Ry     beta= 0.70
     CG style diagonalization
     ethr =  1.96E-04,  avg # of iterations =  3.6

     total cpu time spent up to now is      161.7 secs

     total energy              =    -366.62745567 Ry
     Harris-Foulkes estimate   =    -366.63512584 Ry
     estimated scf accuracy    <       0.02052343 Ry

     iteration #  7     ecut=    50.00 Ry     beta= 0.70
     CG style diagonalization
     ethr =  3.21E-05,  avg # of iterations =  3.7

     total cpu time spent up to now is      166.8 secs

     total energy              =    -366.63128039 Ry
     Harris-Foulkes estimate   =    -366.63174694 Ry
     estimated scf accuracy    <       0.00170559 Ry

     iteration #  8     ecut=    50.00 Ry     beta= 0.70
     CG style diagonalization
     ethr =  2.66E-06,  avg # of iterations =  4.0

     total cpu time spent up to now is      171.7 secs

     total energy              =    -366.63155994 Ry
     Harris-Foulkes estimate   =    -366.63178982 Ry
     estimated scf accuracy    <       0.00048249 Ry

     iteration #  9     ecut=    50.00 Ry     beta= 0.70
     CG style diagonalization
     ethr =  7.54E-07,  avg # of iterations =  3.6

     total cpu time spent up to now is      176.2 secs

     total energy              =    -366.63161039 Ry
     Harris-Foulkes estimate   =    -366.63164528 Ry
     estimated scf accuracy    <       0.00005512 Ry

     iteration # 10     ecut=    50.00 Ry     beta= 0.70
     CG style diagonalization
     ethr =  8.61E-08,  avg # of iterations =  3.9

     total cpu time spent up to now is      181.6 secs

     End of self-consistent calculation

          k = 0.0000 0.0000 0.0000 (  7391 PWs)   bands (ev):

   -33.8343 -33.8202 -19.3211 -19.2013 -15.2652 -15.2652 -14.8770 -14.8648
   -14.8648 -14.8263 -14.8263 -14.8203 -14.2692 -14.2692  -2.8323  -2.3301
    -1.8603  -1.6923  -1.4070  -1.4070  -1.2064  -1.2064   2.8995   2.8995
     3.1863   3.1863   3.3898   3.3898   4.3332   4.3332   5.5598   5.9593

          k =-0.3036-0.1753 0.1034 (  7303 PWs)   bands (ev):

   -33.8321 -33.8221 -19.3130 -19.2143 -15.2793 -15.1755 -15.1680 -14.9969
   -14.8424 -14.8059 -14.6549 -14.4946 -14.4345 -14.2976  -2.6958  -2.2046
    -1.9636  -1.7614  -1.3339  -1.3274  -1.2542  -1.1941   2.8770   2.9138
     3.0228   3.0894   3.4055   3.4327   4.1247   4.1602   5.7604   5.8613

          k = 0.6071 0.3505-0.2067 (  7336 PWs)   bands (ev):

   -33.8270 -33.8270 -19.2668 -19.2668 -15.1966 -15.1966 -15.1680 -15.1680
   -14.8070 -14.8070 -14.4935 -14.4935 -14.4095 -14.4095  -2.4224  -2.4224
    -1.8063  -1.8063  -1.2751  -1.2751  -1.2412  -1.2412   2.7317   2.7317
     2.9478   2.9478   3.5965   3.5965   3.9504   3.9504   5.8515   5.8515

          k =-0.3036 0.1753 0.2067 (  7331 PWs)   bands (ev):

   -33.8318 -33.8224 -19.3138 -19.2140 -15.2799 -15.2332 -15.0835 -15.0551
   -14.8278 -14.8096 -14.5803 -14.5429 -14.3722 -14.3637  -2.6851  -2.2693
    -1.8754  -1.7854  -1.4127  -1.3061  -1.2314  -1.1630   2.8418   2.9201
     3.0752   3.1711   3.2688   3.5670   3.9305   4.2503   5.7880   5.8145

          k = 0.6071 0.7010-0.1034 (  7287 PWs)   bands (ev):

   -33.8286 -33.8253 -19.2880 -19.2458 -15.2942 -15.2165 -15.1655 -15.0116
   -14.8191 -14.7883 -14.6160 -14.4673 -14.4171 -14.3519  -2.4883  -2.3404
    -1.8298  -1.8148  -1.4007  -1.2614  -1.1793  -1.1649   2.6502   2.7849
     2.9981   3.0706   3.3893   3.5243   3.9161   4.1099   5.8136   5.8996

          k = 0.3036 0.5258 0.0000 (  7306 PWs)   bands (ev):

   -33.8293 -33.8246 -19.2963 -19.2366 -15.3096 -15.1954 -15.1836 -14.9629
   -14.8138 -14.7936 -14.6815 -14.4775 -14.3885 -14.3427  -2.5242  -2.2601
    -1.8757  -1.8260  -1.3472  -1.2813  -1.2194  -1.1529   2.6178   2.8158
     2.9590   3.0265   3.4042   3.5688   3.9640   4.0952   5.8047   5.9249

          k = 0.6071-0.3505-0.4135 (  7216 PWs)   bands (ev):

   -33.8293 -33.8246 -19.3066 -19.2268 -15.3963 -15.3104 -14.8537 -14.8505
   -14.7953 -14.7874 -14.7768 -14.7519 -14.3358 -14.2889  -2.4757  -2.2922
    -1.9275  -1.7466  -1.5270  -1.2700  -1.1544  -1.0908   2.5424   2.9811
     3.0949   3.1132   3.3229   3.3826   3.8939   4.1412   5.6650   6.0145

          k =-0.0000 0.0000 0.3101 (  7303 PWs)   bands (ev):

   -33.8322 -33.8222 -19.3049 -19.2201 -15.2403 -15.2403 -15.0287 -15.0287
   -14.8667 -14.8263 -14.6393 -14.6393 -14.3170 -14.3170  -2.8089  -2.5168
    -1.7057  -1.6512  -1.3747  -1.3747  -1.2328  -1.2328   2.9342   2.9342
     3.1085   3.1085   3.5470   3.5470   4.1908   4.1908   5.5929   5.8768

          k = 0.9107 0.5258 0.0000 (  7306 PWs)   bands (ev):

   -33.8294 -33.8247 -19.2851 -19.2453 -15.3094 -15.2296 -15.0901 -14.9527
   -14.8567 -14.8037 -14.6764 -14.4961 -14.4339 -14.2956  -2.6396  -2.4771
    -1.7765  -1.7008  -1.3480  -1.2815  -1.2438  -1.2248   2.8935   2.9284
     3.0121   3.1367   3.3208   3.7481   3.8697   4.0645   5.7305   5.8464

          k = 0.6071 0.3505 0.1034 (  7287 PWs)   bands (ev):

   -33.8286 -33.8253 -19.2949 -19.2386 -15.3424 -15.2732 -15.0186 -14.9908
   -14.8170 -14.7943 -14.6399 -14.5792 -14.3708 -14.3218  -2.4788  -2.3271
    -1.8866  -1.7580  -1.4272  -1.2954  -1.1927  -1.1212   2.5943   2.9085
     2.9519   3.0451   3.3964   3.6716   3.8043   4.0898   5.7244   5.9665

          k = 0.9107-0.5258-0.3101 (  7287 PWs)   bands (ev):

   -33.8287 -33.8254 -19.2866 -19.2443 -15.3301 -15.1784 -15.1526 -14.9447
   -14.8460 -14.8147 -14.6314 -14.4679 -14.4468 -14.3305  -2.6219  -2.5091
    -1.7629  -1.6864  -1.4052  -1.2971  -1.2291  -1.1733   2.8366   3.0004
     3.0691   3.0774   3.4792   3.6141   3.8031   4.0928   5.7472   5.8099

          k = 0.6071-0.7010-0.2067 (  7256 PWs)   bands (ev):

   -33.8269 -33.8269 -19.2674 -19.2674 -15.2569 -15.2569 -15.1057 -15.1057
   -14.7950 -14.7950 -14.5232 -14.5232 -14.3921 -14.3921  -2.4285  -2.4285
    -1.8036  -1.8036  -1.3589  -1.3589  -1.1450  -1.1450   2.7127   2.7127
     3.1035   3.1035   3.3890   3.3890   4.0126   4.0126   5.8480   5.8480

          k = 0.0000-0.0000-0.6202 (  7336 PWs)   bands (ev):

   -33.8272 -33.8272 -19.2639 -19.2639 -15.1624 -15.1624 -15.1624 -15.1624
   -14.8444 -14.8444 -14.4502 -14.4502 -14.4502 -14.4502  -2.7195  -2.7195
    -1.6053  -1.6053  -1.3008  -1.3008  -1.3008  -1.3008   3.0119   3.0119
     3.0119   3.0119   3.8642   3.8642   3.8642   3.8642   5.7092   5.7092

     highest occupied level (ev):     6.0145

!    total energy              =    -366.63162634 Ry
     Harris-Foulkes estimate   =    -366.63162829 Ry
     estimated scf accuracy    <       0.00000267 Ry

     The total energy is the sum of the following terms:

     one-electron contribution =    -171.62086877 Ry
     hartree contribution      =     116.21712171 Ry
     xc contribution           =     -76.98981839 Ry
     ewald contribution        =    -234.23806088 Ry

     convergence has been achieved in  10 iterations

     Forces acting on atoms (cartesian axes, Ry/au):

     atom    1 type  1   force =    -0.00000000   -0.00000000    0.00000000
     atom    2 type  1   force =     0.00000000    0.00000000    0.00000000
     atom    3 type  2   force =     0.00000000    0.00000000    0.00000000
     atom    4 type  2   force =    -0.00000000    0.00000000    0.00000000
     atom    5 type  3   force =     0.45515960   -0.78835956   -0.00000000
     atom    6 type  3   force =    -0.91031921   -0.00000000    0.00000000
     atom    7 type  3   force =     0.45515960    0.78835956    0.00000000
     atom    8 type  3   force =     0.91031921    0.00000000   -0.00000000
     atom    9 type  3   force =    -0.45515960   -0.78835956   -0.00000000
     atom   10 type  3   force =    -0.45515960    0.78835956    0.00000000

     Total force =     2.229818     Total SCF correction =     0.007696


     Computing stress (Cartesian axis) and pressure

          total   stress  (Ry/bohr**3)                   (kbar)     P=  618.01
   0.00629922   0.00000000  -0.00000000        926.65      0.00     -0.00
   0.00000000   0.00629922   0.00000000          0.00    926.65      0.00
  -0.00000000   0.00000000   0.00000497         -0.00      0.00      0.73


     number of scf cycles    =   3
     number of bfgs steps    =   2

     enthalpy old            =    -367.1745713697 Ry
     enthalpy new            =    -366.6316263373 Ry

     CASE: enthalpy_new > enthalpy_old

     new trust radius        =       0.2093570717 bohr
     new conv_thr            =       0.0000100000 Ry

     new unit-cell volume =    981.09818 a.u.^3 (   145.38375 Ang^3 )
     density =      2.28638 g/cm^3

CELL_PARAMETERS (alat= 12.00000000)
   0.449646579  -0.259603574   0.810653984
   0.000000000   0.519207147   0.810653984
  -0.449646579  -0.259603574   0.810653984

ATOMIC_POSITIONS (crystal)
Ca       0.500000000   0.500000000   0.500000000
Ca       0.000000000  -0.000000000  -0.000000000
C        0.250000000   0.250000000   0.250000000
C        0.750000000   0.750000000   0.750000000
O        0.479746956   1.020253044   0.250000000
O        1.020253044   0.250000000   0.479746956
O        0.250000000   0.479746956   1.020253044
O       -0.020253044   0.750000000   0.520253044
O        0.750000000   0.520253044  -0.020253044
O        0.520253044  -0.020253044   0.750000000



     Writing output data file CCO_k.save/
     NEW-OLD atomic charge density approx. for the potential

     Check: negative core charge=   -0.000002
     extrapolated charge   74.61932, renormalised to   64.00000

     total cpu time spent up to now is      182.4 secs

     Self-consistent Calculation

     iteration #  1     ecut=    50.00 Ry     beta= 0.70
     CG style diagonalization
     c_bands:  4 eigenvalues not converged
     c_bands:  1 eigenvalues not converged
     c_bands:  2 eigenvalues not converged
     c_bands:  2 eigenvalues not converged
     ethr =  1.00E-06,  avg # of iterations = 21.5

     total cpu time spent up to now is      208.1 secs

     total energy              =    -350.70467016 Ry
     Harris-Foulkes estimate   =    -348.42286386 Ry
     estimated scf accuracy    <      14.87226066 Ry

     iteration #  2     ecut=    50.00 Ry     beta= 0.70
     CG style diagonalization
     ethr =  1.00E-02,  avg # of iterations =  5.6

     total cpu time spent up to now is      215.0 secs

     total energy              =    -367.70823075 Ry
     Harris-Foulkes estimate   =    -379.34871454 Ry
     estimated scf accuracy    <      27.54890402 Ry

     iteration #  3     ecut=    50.00 Ry     beta= 0.70
     CG style diagonalization
     ethr =  1.00E-02,  avg # of iterations =  3.8

     total cpu time spent up to now is      219.8 secs

     total energy              =    -368.13539511 Ry
     Harris-Foulkes estimate   =    -369.61069159 Ry
     estimated scf accuracy    <       5.28244421 Ry

     iteration #  4     ecut=    50.00 Ry     beta= 0.70
     CG style diagonalization
     ethr =  8.25E-03,  avg # of iterations =  3.0

     total cpu time spent up to now is      223.6 secs

     total energy              =    -367.78813411 Ry
     Harris-Foulkes estimate   =    -368.23965479 Ry
     estimated scf accuracy    <       2.64944930 Ry

     iteration #  5     ecut=    50.00 Ry     beta= 0.70
     CG style diagonalization
     ethr =  4.14E-03,  avg # of iterations =  3.0

     total cpu time spent up to now is      227.6 secs

     total energy              =    -367.87896156 Ry
     Harris-Foulkes estimate   =    -367.83399343 Ry
     estimated scf accuracy    <       1.58340407 Ry

     iteration #  6     ecut=    50.00 Ry     beta= 0.70
     CG style diagonalization
     ethr =  2.47E-03,  avg # of iterations =  3.0

     total cpu time spent up to now is      231.8 secs

     total energy              =    -367.00217218 Ry
     Harris-Foulkes estimate   =    -367.88762027 Ry
     estimated scf accuracy    <       1.66901393 Ry

     iteration #  7     ecut=    50.00 Ry     beta= 0.70
     CG style diagonalization
     ethr =  2.47E-03,  avg # of iterations =  3.6

     total cpu time spent up to now is      236.8 secs

     total energy              =    -367.30729319 Ry
     Harris-Foulkes estimate   =    -367.31356617 Ry
     estimated scf accuracy    <       0.04833487 Ry

     iteration #  8     ecut=    50.00 Ry     beta= 0.70
     CG style diagonalization
     ethr =  7.55E-05,  avg # of iterations =  3.9

     total cpu time spent up to now is      242.2 secs

     total energy              =    -367.33026165 Ry
     Harris-Foulkes estimate   =    -367.32917631 Ry
     estimated scf accuracy    <       0.04761194 Ry

     iteration #  9     ecut=    50.00 Ry     beta= 0.70
     CG style diagonalization
     ethr =  7.44E-05,  avg # of iterations =  3.0

     total cpu time spent up to now is      245.9 secs

     total energy              =    -367.32186903 Ry
     Harris-Foulkes estimate   =    -367.33076197 Ry
     estimated scf accuracy    <       0.04964135 Ry

     iteration # 10     ecut=    50.00 Ry     beta= 0.70
     CG style diagonalization
     ethr =  7.44E-05,  avg # of iterations =  3.1

     total cpu time spent up to now is      249.9 secs

     total energy              =    -367.31906731 Ry
     Harris-Foulkes estimate   =    -367.32433704 Ry
     estimated scf accuracy    <       0.03580812 Ry

     iteration # 11     ecut=    50.00 Ry     beta= 0.70
     CG style diagonalization
     ethr =  5.60E-05,  avg # of iterations =  3.8

     total cpu time spent up to now is      254.6 secs

     total energy              =    -367.33028501 Ry
     Harris-Foulkes estimate   =    -367.32974479 Ry
     estimated scf accuracy    <       0.06179614 Ry

     iteration # 12     ecut=    50.00 Ry     beta= 0.70
     CG style diagonalization
     ethr =  5.60E-05,  avg # of iterations =  3.3

     total cpu time spent up to now is      258.7 secs

     total energy              =    -367.32680211 Ry
     Harris-Foulkes estimate   =    -367.33298140 Ry
     estimated scf accuracy    <       0.06077808 Ry

     iteration # 13     ecut=    50.00 Ry     beta= 0.70
     CG style diagonalization
     ethr =  5.60E-05,  avg # of iterations =  3.0

     total cpu time spent up to now is      262.5 secs

     total energy              =    -367.31897717 Ry
     Harris-Foulkes estimate   =    -367.32732702 Ry
     estimated scf accuracy    <       0.04176187 Ry

     iteration # 14     ecut=    50.00 Ry     beta= 0.70
     CG style diagonalization
     ethr =  5.60E-05,  avg # of iterations =  3.0

     total cpu time spent up to now is      266.3 secs

     total energy              =    -367.30777905 Ry
     Harris-Foulkes estimate   =    -367.32002674 Ry
     estimated scf accuracy    <       0.01774997 Ry

     iteration # 15     ecut=    50.00 Ry     beta= 0.70
     CG style diagonalization
     ethr =  2.77E-05,  avg # of iterations =  4.1

     total cpu time spent up to now is      271.6 secs

     total energy              =    -367.31544088 Ry
     Harris-Foulkes estimate   =    -367.31837627 Ry
     estimated scf accuracy    <       0.01062414 Ry

     iteration # 16     ecut=    50.00 Ry     beta= 0.70
     CG style diagonalization
     ethr =  1.66E-05,  avg # of iterations =  3.2

     total cpu time spent up to now is      275.7 secs

     total energy              =    -367.31552012 Ry
     Harris-Foulkes estimate   =    -367.31619897 Ry
     estimated scf accuracy    <       0.00290662 Ry

     iteration # 17     ecut=    50.00 Ry     beta= 0.70
     CG style diagonalization
     ethr =  4.54E-06,  avg # of iterations =  3.1

     total cpu time spent up to now is      279.6 secs

     total energy              =    -367.31563454 Ry
     Harris-Foulkes estimate   =    -367.31567587 Ry
     estimated scf accuracy    <       0.00106235 Ry

     iteration # 18     ecut=    50.00 Ry     beta= 0.70
     CG style diagonalization
     ethr =  1.66E-06,  avg # of iterations =  3.0

     total cpu time spent up to now is      283.4 secs

     total energy              =    -367.31548478 Ry
     Harris-Foulkes estimate   =    -367.31564766 Ry
     estimated scf accuracy    <       0.00098082 Ry

     iteration # 19     ecut=    50.00 Ry     beta= 0.70
     CG style diagonalization
     ethr =  1.53E-06,  avg # of iterations =  3.0

     total cpu time spent up to now is      287.2 secs

     total energy              =    -367.31525217 Ry
     Harris-Foulkes estimate   =    -367.31550800 Ry
     estimated scf accuracy    <       0.00052737 Ry

     iteration # 20     ecut=    50.00 Ry     beta= 0.70
     CG style diagonalization
     ethr =  8.24E-07,  avg # of iterations =  3.6

     total cpu time spent up to now is      291.7 secs

     total energy              =    -367.31536180 Ry
     Harris-Foulkes estimate   =    -367.31536412 Ry
     estimated scf accuracy    <       0.00001581 Ry

     iteration # 21     ecut=    50.00 Ry     beta= 0.70
     CG style diagonalization
     ethr =  2.47E-08,  avg # of iterations =  4.1

     total cpu time spent up to now is      296.8 secs

     total energy              =    -367.31537107 Ry
     Harris-Foulkes estimate   =    -367.31536996 Ry
     estimated scf accuracy    <       0.00001064 Ry

     iteration # 22     ecut=    50.00 Ry     beta= 0.70
     CG style diagonalization
     ethr =  1.66E-08,  avg # of iterations =  3.1

     total cpu time spent up to now is      300.7 secs

     total energy              =    -367.31537110 Ry
     Harris-Foulkes estimate   =    -367.31537157 Ry
     estimated scf accuracy    <       0.00001334 Ry

     iteration # 23     ecut=    50.00 Ry     beta= 0.70
     CG style diagonalization
     ethr =  1.66E-08,  avg # of iterations =  3.0

     total cpu time spent up to now is      304.5 secs

     total energy              =    -367.31537195 Ry
     Harris-Foulkes estimate   =    -367.31537116 Ry
     estimated scf accuracy    <       0.00001233 Ry

     iteration # 24     ecut=    50.00 Ry     beta= 0.70
     CG style diagonalization
     ethr =  1.66E-08,  avg # of iterations =  3.0

     total cpu time spent up to now is      308.3 secs

     total energy              =    -367.31537358 Ry
     Harris-Foulkes estimate   =    -367.31537213 Ry
     estimated scf accuracy    <       0.00001711 Ry

     iteration # 25     ecut=    50.00 Ry     beta= 0.70
     CG style diagonalization
     ethr =  1.66E-08,  avg # of iterations =  3.0

     total cpu time spent up to now is      312.1 secs

     total energy              =    -367.31537469 Ry
     Harris-Foulkes estimate   =    -367.31537394 Ry
     estimated scf accuracy    <       0.00002544 Ry

     iteration # 26     ecut=    50.00 Ry     beta= 0.70
     CG style diagonalization
     ethr =  1.66E-08,  avg # of iterations =  3.0

     total cpu time spent up to now is      316.1 secs

     total energy              =    -367.31536405 Ry
     Harris-Foulkes estimate   =    -367.31537491 Ry
     estimated scf accuracy    <       0.00002495 Ry

     iteration # 27     ecut=    50.00 Ry     beta= 0.70
     CG style diagonalization
     ethr =  1.66E-08,  avg # of iterations =  4.0

     total cpu time spent up to now is      321.2 secs

     End of self-consistent calculation

          k = 0.0000 0.0000 0.0000 (  7391 PWs)   bands (ev):

   -36.1582 -36.1524 -17.5644 -17.5546 -17.1452 -17.1452 -17.1402 -17.0803
   -17.0803 -16.9916 -14.5296 -14.5296 -14.3237 -14.3237  -4.0366  -3.8086
    -2.0963  -2.0907  -2.0907  -2.0736  -2.0736  -1.0182   1.6073   1.6073
     1.9149   1.9149   1.9432   1.9432   2.9632   2.9632   3.1454   3.5776

          k =-0.2780-0.1605 0.1028 (  7303 PWs)   bands (ev):

   -36.1573 -36.1532 -17.6310 -17.5256 -17.1551 -17.1506 -17.1176 -17.1101
   -17.0210 -16.9844 -14.5001 -14.4785 -14.3874 -14.3543  -3.9244  -3.8336
    -2.2065  -2.0944  -2.0753  -2.0250  -1.8503  -1.1616   1.6007   1.6355
     1.6511   1.7017   2.0915   2.1038   2.7908   2.7957   3.3464   3.4938

          k = 0.5560 0.3210-0.2056 (  7336 PWs)   bands (ev):

   -36.1552 -36.1552 -17.5973 -17.5973 -17.1767 -17.1767 -17.1173 -17.1173
   -16.9505 -16.9505 -14.4547 -14.4547 -14.4150 -14.4150  -3.8285  -3.8285
    -2.2025  -2.2025  -2.0233  -2.0233  -1.4584  -1.4584   1.4453   1.4453
     1.6469   1.6469   2.2473   2.2473   2.6256   2.6256   3.4584   3.4584

          k =-0.2780 0.1605 0.2056 (  7331 PWs)   bands (ev):

   -36.1572 -36.1533 -17.6536 -17.5083 -17.1558 -17.1269 -17.1234 -17.0775
   -17.0706 -16.9794 -14.4997 -14.4608 -14.4060 -14.3536  -3.9089  -3.8608
    -2.2069  -2.0984  -2.0879  -1.9800  -1.8305  -1.1957   1.5632   1.6321
     1.7234   1.8058   1.9356   2.2264   2.6145   2.8800   3.3559   3.4524

          k = 0.5560 0.6420-0.1028 (  7287 PWs)   bands (ev):

   -36.1559 -36.1545 -17.6497 -17.5560 -17.1925 -17.1611 -17.0975 -17.0862
   -17.0079 -16.9306 -14.4918 -14.4613 -14.4100 -14.3780  -3.8396  -3.8193
    -2.2077  -2.1920  -2.0809  -1.9515  -1.5656  -1.3645   1.3890   1.4724
     1.7320   1.7673   2.0707   2.2077   2.5546   2.7400   3.4337   3.4733

          k = 0.2780 0.4815 0.0000 (  7306 PWs)   bands (ev):

   -36.1562 -36.1543 -17.6603 -17.5263 -17.1971 -17.1704 -17.1139 -17.0838
   -17.0164 -16.9143 -14.4803 -14.4803 -14.3977 -14.3819  -3.8406  -3.8113
    -2.2810  -2.0762  -2.0680  -2.0070  -1.6275  -1.3136   1.3541   1.4975
     1.6583   1.7401   2.0802   2.2521   2.6341   2.7227   3.4370   3.4894

          k = 0.5560-0.3210-0.4112 (  7216 PWs)   bands (ev):

   -36.1562 -36.1543 -17.7188 -17.4361 -17.2067 -17.1776 -17.1258 -17.0795
   -17.0688 -16.8662 -14.5195 -14.4444 -14.4044 -14.3747  -3.8972  -3.7543
    -2.2828  -2.1253  -2.0912  -1.8867  -1.6258  -1.3730   1.3585   1.6509
     1.7582   1.8602   1.9679   2.1058   2.4888   2.7894   3.3228   3.5373

          k =-0.0000 0.0000 0.3084 (  7303 PWs)   bands (ev):

   -36.1573 -36.1532 -17.5744 -17.5645 -17.1367 -17.1367 -17.1063 -17.0908
   -17.0908 -17.0043 -14.4986 -14.4986 -14.3530 -14.3530  -4.0343  -3.8812
    -2.0823  -2.0823  -2.0704  -2.0704  -1.8941  -1.1417   1.6381   1.6381
     1.8002   1.8002   2.1426   2.1426   2.8130   2.8130   3.1892   3.4931

          k = 0.8340 0.4815 0.0000 (  7306 PWs)   bands (ev):

   -36.1562 -36.1543 -17.5932 -17.5887 -17.1517 -17.1438 -17.1374 -17.0917
   -17.0044 -16.9831 -14.4733 -14.4584 -14.3951 -14.3943  -3.9425  -3.8651
    -2.1680  -2.0823  -2.0809  -2.0405  -1.6465  -1.3162   1.5922   1.6140
     1.6905   1.8405   1.9989   2.3703   2.5132   2.7094   3.3331   3.4507

          k = 0.5560 0.3210 0.1028 (  7287 PWs)   bands (ev):

   -36.1559 -36.1545 -17.6847 -17.4930 -17.1956 -17.1691 -17.1327 -17.0873
   -17.0303 -16.8889 -14.4991 -14.4368 -14.4178 -14.3876  -3.8775  -3.7769
    -2.2985  -2.0868  -2.0319  -2.0011  -1.5759  -1.3822   1.3692   1.5758
     1.6743   1.7315   2.0593   2.3921   2.4228   2.7319   3.3716   3.5132

          k = 0.8340-0.4815-0.3084 (  7287 PWs)   bands (ev):

   -36.1559 -36.1546 -17.6422 -17.5448 -17.1611 -17.1254 -17.1144 -17.0892
   -17.0433 -16.9736 -14.4654 -14.4323 -14.4297 -14.3935  -3.9201  -3.8987
    -2.1965  -2.0950  -2.0761  -1.9696  -1.5972  -1.3863   1.5498   1.6896
     1.7572   1.7893   2.1187   2.2822   2.4321   2.7155   3.3686   3.3881

          k = 0.5560-0.6420-0.2056 (  7256 PWs)   bands (ev):

   -36.1552 -36.1552 -17.6120 -17.6120 -17.1716 -17.1716 -17.0844 -17.0844
   -16.9723 -16.9723 -14.4780 -14.4780 -14.3930 -14.3930  -3.8329  -3.8329
    -2.2138  -2.2138  -1.9965  -1.9965  -1.4652  -1.4652   1.4317   1.4317
     1.8370   1.8370   2.0629   2.0629   2.6336   2.6336   3.4422   3.4422

          k = 0.0000-0.0000-0.6168 (  7336 PWs)   bands (ev):

   -36.1553 -36.1553 -17.5787 -17.5787 -17.1148 -17.1148 -17.1148 -17.1148
   -17.0453 -17.0453 -14.4249 -14.4249 -14.4249 -14.4249  -3.9904  -3.9904
    -2.0706  -2.0706  -2.0706  -2.0706  -1.4801  -1.4801   1.7082   1.7082
     1.7082   1.7082   2.4714   2.4714   2.4714   2.4714   3.3205   3.3205

     highest occupied level (ev):     3.5776

!    total energy              =    -367.31536630 Ry
     Harris-Foulkes estimate   =    -367.31536936 Ry
     estimated scf accuracy    <       0.00000463 Ry

     The total energy is the sum of the following terms:

     one-electron contribution =    -166.40122176 Ry
     hartree contribution      =     109.63148992 Ry
     xc contribution           =     -74.75037806 Ry
     ewald contribution        =    -235.79525640 Ry

     convergence has been achieved in  27 iterations

     Forces acting on atoms (cartesian axes, Ry/au):

     atom    1 type  1   force =     0.00000000    0.00000000    0.00000000
     atom    2 type  1   force =    -0.00000000    0.00000000   -0.00000000
     atom    3 type  2   force =    -0.00000000    0.00000000   -0.00000000
     atom    4 type  2   force =    -0.00000000   -0.00000000   -0.00000000
     atom    5 type  3   force =    -0.00075039    0.00129971    0.00000000
     atom    6 type  3   force =     0.00150077    0.00000000   -0.00000000
     atom    7 type  3   force =    -0.00075039   -0.00129971   -0.00000000
     atom    8 type  3   force =    -0.00150077   -0.00000000    0.00000000
     atom    9 type  3   force =     0.00075039    0.00129971    0.00000000
     atom   10 type  3   force =     0.00075039   -0.00129971   -0.00000000

     Total force =     0.003676     Total SCF correction =     0.004603
     SCF correction compared to forces is large: reduce conv_thr to get better values


     Computing stress (Cartesian axis) and pressure

          total   stress  (Ry/bohr**3)                   (kbar)     P= -102.13
  -0.00097434  -0.00000000   0.00000000       -143.33     -0.00      0.00
  -0.00000000  -0.00097434  -0.00000000         -0.00   -143.33     -0.00
  -0.00000000  -0.00000000  -0.00013409         -0.00     -0.00    -19.73


     number of scf cycles    =   4
     number of bfgs steps    =   2

     enthalpy old            =    -367.1745713697 Ry
     enthalpy new            =    -367.3153662957 Ry

     CASE: enthalpy_new < enthalpy_old

     new trust radius        =       0.1948220452 bohr
     new conv_thr            =       0.0000001501 Ry

     new unit-cell volume =    917.60711 a.u.^3 (   135.97534 Ang^3 )
     density =      2.44458 g/cm^3

CELL_PARAMETERS (alat= 12.00000000)
   0.435662845  -0.251530061   0.807646584
   0.000000000   0.503060122   0.807646584
  -0.435662845  -0.251530061   0.807646584

ATOMIC_POSITIONS (crystal)
Ca       0.500000000   0.500000000   0.500000000
Ca      -0.000000000   0.000000000   0.000000000
C        0.250000000   0.250000000   0.250000000
C        0.750000000   0.750000000   0.750000000
O        0.480320287   1.019679713   0.250000000
O        1.019679713   0.250000000   0.480320287
O        0.250000000   0.480320287   1.019679713
O       -0.019679713   0.750000000   0.519679713
O        0.750000000   0.519679713  -0.019679713
O        0.519679713  -0.019679713   0.750000000



     Writing output data file CCO_k.save/
     NEW-OLD atomic charge density approx. for the potential

     Check: negative core charge=   -0.000003
     extrapolated charge   59.57247, renormalised to   64.00000

     total cpu time spent up to now is      321.9 secs

     Self-consistent Calculation

     iteration #  1     ecut=    50.00 Ry     beta= 0.70
     CG style diagonalization
     c_bands:  2 eigenvalues not converged
     c_bands:  2 eigenvalues not converged
     c_bands:  5 eigenvalues not converged
     c_bands:  1 eigenvalues not converged
     c_bands:  2 eigenvalues not converged
     c_bands:  5 eigenvalues not converged
     c_bands:  4 eigenvalues not converged
     ethr =  1.00E-06,  avg # of iterations = 13.9

     total cpu time spent up to now is      339.3 secs

     total energy              =    -366.24627172 Ry
     Harris-Foulkes estimate   =    -375.99926635 Ry
     estimated scf accuracy    <       0.81684085 Ry

     iteration #  2     ecut=    50.00 Ry     beta= 0.70
     CG style diagonalization
     ethr =  1.28E-03,  avg # of iterations =  5.1

     total cpu time spent up to now is      345.9 secs

     total energy              =    -367.19392761 Ry
     Harris-Foulkes estimate   =    -368.26553788 Ry
     estimated scf accuracy    <       3.11803804 Ry

     iteration #  3     ecut=    50.00 Ry     beta= 0.70
     CG style diagonalization
     ethr =  1.28E-03,  avg # of iterations =  4.0

     total cpu time spent up to now is      351.3 secs

     total energy              =    -367.37361638 Ry
     Harris-Foulkes estimate   =    -367.45283169 Ry
     estimated scf accuracy    <       0.33739033 Ry

     iteration #  4     ecut=    50.00 Ry     beta= 0.70
     CG style diagonalization
     ethr =  5.27E-04,  avg # of iterations =  3.0

     total cpu time spent up to now is      355.5 secs

     total energy              =    -367.34865557 Ry
     Harris-Foulkes estimate   =    -367.38506518 Ry
     estimated scf accuracy    <       0.15071058 Ry

     iteration #  5     ecut=    50.00 Ry     beta= 0.70
     CG style diagonalization
     ethr =  2.35E-04,  avg # of iterations =  3.3

     total cpu time spent up to now is      360.1 secs

     total energy              =    -367.35023898 Ry
     Harris-Foulkes estimate   =    -367.36083008 Ry
     estimated scf accuracy    <       0.03230667 Ry

     iteration #  6     ecut=    50.00 Ry     beta= 0.70
     CG style diagonalization
     ethr =  5.05E-05,  avg # of iterations =  3.3

     total cpu time spent up to now is      364.6 secs

     total energy              =    -367.35156107 Ry
     Harris-Foulkes estimate   =    -367.35301202 Ry
     estimated scf accuracy    <       0.00623817 Ry

     iteration #  7     ecut=    50.00 Ry     beta= 0.70
     CG style diagonalization
     ethr =  9.75E-06,  avg # of iterations =  3.3

     total cpu time spent up to now is      368.9 secs

     total energy              =    -367.35198310 Ry
     Harris-Foulkes estimate   =    -367.35225838 Ry
     estimated scf accuracy    <       0.00214189 Ry

     iteration #  8     ecut=    50.00 Ry     beta= 0.70
     CG style diagonalization
     ethr =  3.35E-06,  avg # of iterations =  3.4

     total cpu time spent up to now is      373.1 secs

     total energy              =    -367.35204249 Ry
     Harris-Foulkes estimate   =    -367.35226937 Ry
     estimated scf accuracy    <       0.00094250 Ry

     iteration #  9     ecut=    50.00 Ry     beta= 0.70
     CG style diagonalization
     ethr =  1.47E-06,  avg # of iterations =  3.1

     total cpu time spent up to now is      377.1 secs

     total energy              =    -367.35189925 Ry
     Harris-Foulkes estimate   =    -367.35210204 Ry
     estimated scf accuracy    <       0.00036374 Ry

     iteration # 10     ecut=    50.00 Ry     beta= 0.70
     CG style diagonalization
     ethr =  5.68E-07,  avg # of iterations =  3.9

     total cpu time spent up to now is      382.0 secs

     total energy              =    -367.35201019 Ry
     Harris-Foulkes estimate   =    -367.35203171 Ry
     estimated scf accuracy    <       0.00005027 Ry

     iteration # 11     ecut=    50.00 Ry     beta= 0.70
     CG style diagonalization
     ethr =  7.85E-08,  avg # of iterations =  3.8

     total cpu time spent up to now is      387.0 secs

     total energy              =    -367.35202830 Ry
     Harris-Foulkes estimate   =    -367.35202939 Ry
     estimated scf accuracy    <       0.00000196 Ry

     iteration # 12     ecut=    50.00 Ry     beta= 0.70
     CG style diagonalization
     ethr =  3.07E-09,  avg # of iterations =  4.1

     total cpu time spent up to now is      392.1 secs

     End of self-consistent calculation

          k = 0.0000 0.0000 0.0000 (  7391 PWs)   bands (ev):

   -35.2160 -35.2076 -17.6396 -17.5180 -16.2797 -16.2797 -16.2043 -16.1727
   -16.1659 -16.1659 -14.3454 -14.3454 -14.0727 -14.0727  -3.5257  -3.2279
    -2.0129  -1.7935  -1.7935  -1.7239  -1.7239  -0.8573   2.0402   2.0402
     2.3196   2.3196   2.4273   2.4273   3.4376   3.4376   3.7300   4.1654

          k =-0.2869-0.1657 0.1032 (  7303 PWs)   bands (ev):

   -35.2147 -35.2087 -17.6543 -17.5193 -16.2844 -16.2367 -16.2355 -16.2220
   -16.1577 -16.1169 -14.3048 -14.2642 -14.1645 -14.1096  -3.3850  -3.2649
    -1.9724  -1.7916  -1.7366  -1.7059  -1.6549  -0.9989   2.0245   2.0671
     2.1003   2.1591   2.5206   2.5313   3.2493   3.2564   3.9416   4.0767

          k = 0.5738 0.3313-0.2064 (  7336 PWs)   bands (ev):

   -35.2117 -35.2117 -17.5987 -17.5987 -16.2706 -16.2706 -16.2342 -16.2342
   -16.1045 -16.1045 -14.2404 -14.2404 -14.1903 -14.1903  -3.2614  -3.2614
    -1.9276  -1.9276  -1.6956  -1.6956  -1.2781  -1.2781   1.8710   1.8710
     2.0735   2.0735   2.6896   2.6896   3.0685   3.0685   4.0500   4.0500

          k =-0.2869 0.1657 0.2064 (  7331 PWs)   bands (ev):

   -35.2145 -35.2089 -17.6633 -17.5119 -16.2785 -16.2713 -16.2041 -16.2039
   -16.1574 -16.1379 -14.2917 -14.2554 -14.1729 -14.1214  -3.3656  -3.3025
    -1.9228  -1.8231  -1.7912  -1.6432  -1.6212  -1.0345   1.9867   2.0590
     2.1800   2.2525   2.3598   2.6653   3.0589   3.3483   3.9569   4.0325

          k = 0.5738 0.6626-0.1032 (  7287 PWs)   bands (ev):

   -35.2127 -35.2107 -17.6388 -17.5615 -16.3099 -16.2571 -16.2130 -16.1776
   -16.1600 -16.0954 -14.2905 -14.2376 -14.1904 -14.1455  -3.2763  -3.2510
    -1.9136  -1.9047  -1.7992  -1.6153  -1.3657  -1.1880   1.8004   1.9029
     2.1487   2.1983   2.5005   2.6369   3.0055   3.2006   4.0208   4.0772

          k = 0.2869 0.4970 0.0000 (  7306 PWs)   bands (ev):

   -35.2131 -35.2103 -17.6515 -17.5428 -16.3156 -16.2651 -16.2297 -16.1682
   -16.1628 -16.0777 -14.2873 -14.2631 -14.1582 -14.1554  -3.2772  -3.2401
    -2.0151  -1.7866  -1.7426  -1.6758  -1.4545  -1.1304   1.7671   1.9352
     2.0838   2.1624   2.5070   2.6891   3.0833   3.1790   4.0209   4.0962

          k = 0.5738-0.3313-0.4127 (  7216 PWs)   bands (ev):

   -35.2131 -35.2103 -17.6864 -17.5059 -16.3299 -16.3229 -16.2027 -16.1588
   -16.1486 -16.0513 -14.3361 -14.2127 -14.1892 -14.1321  -3.3510  -3.1638
    -1.9777  -1.8429  -1.8140  -1.5440  -1.4268  -1.2039   1.7480   2.0688
     2.2151   2.2747   2.4113   2.5129   2.9536   3.2494   3.8932   4.1567

          k =-0.0000 0.0000 0.3095 (  7303 PWs)   bands (ev):

   -35.2147 -35.2088 -17.6260 -17.5399 -16.2655 -16.2655 -16.1945 -16.1853
   -16.1853 -16.1725 -14.3027 -14.3027 -14.1103 -14.1103  -3.5256  -3.3340
    -1.7772  -1.7772  -1.7736  -1.7283  -1.7283  -0.9750   2.0719   2.0719
     2.2288   2.2288   2.6021   2.6021   3.2829   3.2829   3.7732   4.0785

          k = 0.8608 0.4970 0.0000 (  7306 PWs)   bands (ev):

   -35.2131 -35.2103 -17.6132 -17.5735 -16.2767 -16.2579 -16.2378 -16.1829
   -16.1517 -16.1330 -14.2638 -14.2507 -14.1810 -14.1468  -3.4112  -3.3115
    -1.8586  -1.8125  -1.7529  -1.7187  -1.4580  -1.1464   2.0236   2.0487
     2.1285   2.2725   2.4234   2.8229   2.9610   3.1669   3.9232   4.0398

          k = 0.5738 0.3313 0.1032 (  7287 PWs)   bands (ev):

   -35.2126 -35.2107 -17.6609 -17.5341 -16.3102 -16.2990 -16.2218 -16.1794
   -16.1392 -16.0669 -14.3049 -14.2146 -14.1915 -14.1548  -3.3253  -3.1936
    -2.0215  -1.7992  -1.7055  -1.6834  -1.3984  -1.1977   1.7738   2.0079
     2.0843   2.1768   2.4945   2.8159   2.8819   3.1847   3.9490   4.1239

          k = 0.8608-0.4970-0.3095 (  7287 PWs)   bands (ev):

   -35.2127 -35.2107 -17.6334 -17.5549 -16.2949 -16.2444 -16.2142 -16.1785
   -16.1545 -16.1533 -14.2461 -14.2298 -14.1885 -14.1760  -3.3836  -3.3557
    -1.8891  -1.7832  -1.7676  -1.6431  -1.4240  -1.2170   1.9730   2.1128
     2.2041   2.2183   2.5570   2.7170   2.8828   3.1812   3.9516   3.9855

          k = 0.5738-0.6626-0.2064 (  7256 PWs)   bands (ev):

   -35.2117 -35.2117 -17.6032 -17.6032 -16.2813 -16.2813 -16.1829 -16.1829
   -16.1392 -16.1392 -14.2632 -14.2632 -14.1687 -14.1687  -3.2685  -3.2685
    -1.9246  -1.9246  -1.6848  -1.6848  -1.2748  -1.2748   1.8480   1.8480
     2.2626   2.2626   2.4887   2.4887   3.0913   3.0913   4.0385   4.0385

          k = 0.0000-0.0000-0.6191 (  7336 PWs)   bands (ev):

   -35.2117 -35.2117 -17.5870 -17.5870 -16.2280 -16.2280 -16.2280 -16.2280
   -16.1786 -16.1786 -14.2040 -14.2040 -14.2040 -14.2040  -3.4756  -3.4756
    -1.7468  -1.7468  -1.7468  -1.7468  -1.3200  -1.3200   2.1400   2.1400
     2.1400   2.1400   2.9333   2.9333   2.9333   2.9333   3.9035   3.9035

     highest occupied level (ev):     4.1654

!    total energy              =    -367.35202917 Ry
     Harris-Foulkes estimate   =    -367.35202922 Ry
     estimated scf accuracy    <       0.00000007 Ry

     The total energy is the sum of the following terms:

     one-electron contribution =    -160.21418984 Ry
     hartree contribution      =     107.95428986 Ry
     xc contribution           =     -75.17929016 Ry
     ewald contribution        =    -239.91283903 Ry

     convergence has been achieved in  12 iterations

     Forces acting on atoms (cartesian axes, Ry/au):

     atom    1 type  1   force =     0.00000000    0.00000000    0.00000000
     atom    2 type  1   force =     0.00000000   -0.00000000    0.00000000
     atom    3 type  2   force =    -0.00000000    0.00000000   -0.00000000
     atom    4 type  2   force =     0.00000000   -0.00000000   -0.00000000
     atom    5 type  3   force =     0.04362559   -0.07556174   -0.00000000
     atom    6 type  3   force =    -0.08725118    0.00000000    0.00000000
     atom    7 type  3   force =     0.04362559    0.07556174    0.00000000
     atom    8 type  3   force =     0.08725118   -0.00000000   -0.00000000
     atom    9 type  3   force =    -0.04362559   -0.07556174   -0.00000000
     atom   10 type  3   force =    -0.04362559    0.07556174    0.00000000

     Total force =     0.213721     Total SCF correction =     0.000040


     Computing stress (Cartesian axis) and pressure

          total   stress  (Ry/bohr**3)                   (kbar)     P=  -15.10
  -0.00013180  -0.00000000  -0.00000000        -19.39     -0.00     -0.00
  -0.00000000  -0.00013180  -0.00000000         -0.00    -19.39     -0.00
   0.00000000  -0.00000000  -0.00004441          0.00     -0.00     -6.53


     number of scf cycles    =   5
     number of bfgs steps    =   3

     enthalpy old            =    -367.3153662957 Ry
     enthalpy new            =    -367.3520291735 Ry

     CASE: enthalpy_new < enthalpy_old

     new trust radius        =       0.1669954347 bohr
     new conv_thr            =       0.0000087251 Ry

     new unit-cell volume =    864.85849 a.u.^3 (   128.15880 Ang^3 )
     density =      2.59368 g/cm^3

CELL_PARAMETERS (alat= 12.00000000)
   0.423654124  -0.244596823   0.804985049
   0.000000000   0.489193645   0.804985049
  -0.423654124  -0.244596823   0.804985049

ATOMIC_POSITIONS (crystal)
Ca       0.500000000   0.500000000   0.500000000
Ca      -0.000000000   0.000000000   0.000000000
C        0.250000000   0.250000000   0.250000000
C        0.750000000   0.750000000   0.750000000
O        0.486358211   1.013641789   0.250000000
O        1.013641789   0.250000000   0.486358211
O        0.250000000   0.486358211   1.013641789
O       -0.013641789   0.750000000   0.513641789
O        0.750000000   0.513641789  -0.013641789
O        0.513641789  -0.013641789   0.750000000



     Writing output data file CCO_k.save/
     NEW-OLD atomic charge density approx. for the potential

     Check: negative core charge=   -0.000003
     extrapolated charge   60.09724, renormalised to   64.00000

     total cpu time spent up to now is      392.8 secs

     Self-consistent Calculation

     iteration #  1     ecut=    50.00 Ry     beta= 0.70
     CG style diagonalization
     c_bands:  2 eigenvalues not converged
     c_bands:  4 eigenvalues not converged
     c_bands:  4 eigenvalues not converged
     c_bands:  4 eigenvalues not converged
     c_bands:  4 eigenvalues not converged
     c_bands:  4 eigenvalues not converged
     ethr =  1.00E-06,  avg # of iterations = 13.1

     total cpu time spent up to now is      408.4 secs

     total energy              =    -366.63095313 Ry
     Harris-Foulkes estimate   =    -374.48495447 Ry
     estimated scf accuracy    <       0.50815159 Ry

     iteration #  2     ecut=    50.00 Ry     beta= 0.70
     CG style diagonalization
     ethr =  7.94E-04,  avg # of iterations =  5.1

     total cpu time spent up to now is      414.7 secs

     total energy              =    -367.32693151 Ry
     Harris-Foulkes estimate   =    -367.98868516 Ry
     estimated scf accuracy    <       1.93818149 Ry

     iteration #  3     ecut=    50.00 Ry     beta= 0.70
     CG style diagonalization
     ethr =  7.94E-04,  avg # of iterations =  3.9

     total cpu time spent up to now is      419.7 secs

     total energy              =    -367.40132034 Ry
     Harris-Foulkes estimate   =    -367.46504173 Ry
     estimated scf accuracy    <       0.25975110 Ry

     iteration #  4     ecut=    50.00 Ry     beta= 0.70
     CG style diagonalization
     ethr =  4.06E-04,  avg # of iterations =  3.0

     total cpu time spent up to now is      423.5 secs

     total energy              =    -367.38080521 Ry
     Harris-Foulkes estimate   =    -367.40980485 Ry
     estimated scf accuracy    <       0.10775231 Ry

     iteration #  5     ecut=    50.00 Ry     beta= 0.70
     CG style diagonalization
     ethr =  1.68E-04,  avg # of iterations =  3.2

     total cpu time spent up to now is      427.6 secs

     total energy              =    -367.38304067 Ry
     Harris-Foulkes estimate   =    -367.38993250 Ry
     estimated scf accuracy    <       0.02145364 Ry

     iteration #  6     ecut=    50.00 Ry     beta= 0.70
     CG style diagonalization
     ethr =  3.35E-05,  avg # of iterations =  3.3

     total cpu time spent up to now is      431.7 secs

     total energy              =    -367.38460623 Ry
     Harris-Foulkes estimate   =    -367.38492811 Ry
     estimated scf accuracy    <       0.00438054 Ry

     iteration #  7     ecut=    50.00 Ry     beta= 0.70
     CG style diagonalization
     ethr =  6.84E-06,  avg # of iterations =  3.2

     total cpu time spent up to now is      435.7 secs

     total energy              =    -367.38425801 Ry
     Harris-Foulkes estimate   =    -367.38492272 Ry
     estimated scf accuracy    <       0.00352432 Ry

     iteration #  8     ecut=    50.00 Ry     beta= 0.70
     CG style diagonalization
     ethr =  5.51E-06,  avg # of iterations =  3.1

     total cpu time spent up to now is      439.7 secs

     total energy              =    -367.38380781 Ry
     Harris-Foulkes estimate   =    -367.38445691 Ry
     estimated scf accuracy    <       0.00144146 Ry

     iteration #  9     ecut=    50.00 Ry     beta= 0.70
     CG style diagonalization
     ethr =  2.25E-06,  avg # of iterations =  3.7

     total cpu time spent up to now is      444.6 secs

     total energy              =    -367.38408551 Ry
     Harris-Foulkes estimate   =    -367.38408846 Ry
     estimated scf accuracy    <       0.00001518 Ry

     iteration # 10     ecut=    50.00 Ry     beta= 0.70
     CG style diagonalization
     ethr =  2.37E-08,  avg # of iterations =  5.2

     total cpu time spent up to now is      451.5 secs

     total energy              =    -367.38410206 Ry
     Harris-Foulkes estimate   =    -367.38412580 Ry
     estimated scf accuracy    <       0.00004613 Ry

     iteration # 11     ecut=    50.00 Ry     beta= 0.70
     CG style diagonalization
     ethr =  2.37E-08,  avg # of iterations =  4.2

     total cpu time spent up to now is      456.8 secs

     End of self-consistent calculation

          k = 0.0000 0.0000 0.0000 (  7391 PWs)   bands (ev):

   -34.2451 -34.2330 -17.2881 -17.1466 -15.4489 -15.4489 -15.2439 -15.2351
   -15.2351 -15.2195 -13.9721 -13.9721 -13.5675 -13.5675  -3.1337  -2.8232
    -1.7162  -1.4414  -1.4414  -1.3111  -1.3111  -0.4041   2.4545   2.4545
     2.6705   2.6705   2.8906   2.8906   3.8792   3.8792   4.1151   4.5740

          k =-0.2951-0.1703 0.1035 (  7303 PWs)   bands (ev):

   -34.2433 -34.2347 -17.3004 -17.1484 -15.4456 -15.3723 -15.3506 -15.2807
   -15.2192 -15.1820 -13.9080 -13.8254 -13.7072 -13.6148  -2.9725  -2.8687
    -1.6317  -1.4225  -1.3291  -1.3252  -1.2816  -0.5733   2.4274   2.4700
     2.5361   2.5852   2.8992   2.9149   3.6636   3.6744   4.3587   4.4816

          k = 0.5901 0.3407-0.2070 (  7336 PWs)   bands (ev):

   -34.2389 -34.2389 -17.2357 -17.2357 -15.3752 -15.3752 -15.3715 -15.3715
   -15.1669 -15.1669 -13.8001 -13.8001 -13.7325 -13.7325  -2.8473  -2.8473
    -1.5662  -1.5662  -1.2932  -1.2932  -0.8802  -0.8802   2.2648   2.2648
     2.4843   2.4843   3.0834   3.0834   3.4621   3.4621   4.4663   4.4663

          k =-0.2951 0.1703 0.2070 (  7331 PWs)   bands (ev):

   -34.2430 -34.2350 -17.3095 -17.1407 -15.4410 -15.4174 -15.2874 -15.2556
   -15.2301 -15.2226 -13.8715 -13.8381 -13.6938 -13.6463  -2.9480  -2.9149
    -1.5625  -1.4626  -1.4147  -1.2394  -1.2368  -0.6150   2.3861   2.4607
     2.6230   2.6477   2.7537   3.0565   3.4617   3.7775   4.3747   4.4329

          k = 0.5901 0.6814-0.1035 (  7287 PWs)   bands (ev):

   -34.2403 -34.2375 -17.2795 -17.1944 -15.4613 -15.3714 -15.3399 -15.2630
   -15.2208 -15.1592 -13.8860 -13.7777 -13.7447 -13.6647  -2.8758  -2.8274
    -1.5403  -1.5383  -1.4183  -1.2052  -0.9656  -0.7796   2.1819   2.3057
     2.5376   2.6050   2.8860   3.0165   3.4102   3.6143   4.4302   4.5061

          k = 0.2951 0.5110 0.0000 (  7306 PWs)   bands (ev):

   -34.2409 -34.2369 -17.2940 -17.1740 -15.4691 -15.3795 -15.3657 -15.2393
   -15.2284 -15.1370 -13.8934 -13.8177 -13.6951 -13.6699  -2.8813  -2.8105
    -1.6596  -1.4086  -1.3432  -1.2714  -1.0765  -0.7149   2.1507   2.3496
     2.4835   2.5588   2.8830   3.0803   3.4907   3.5865   4.4278   4.5286

          k = 0.5901-0.3407-0.4141 (  7216 PWs)   bands (ev):

   -34.2409 -34.2369 -17.3310 -17.1350 -15.5171 -15.4897 -15.2499 -15.2174
   -15.2098 -15.1081 -13.9652 -13.8264 -13.6758 -13.6368  -2.9749  -2.7101
    -1.6211  -1.4646  -1.4199  -1.1283  -1.0263  -0.8093   2.1106   2.4332
     2.6567   2.6647   2.8254   2.8679   3.3711   3.6661   4.2802   4.5980

          k =-0.0000 0.0000 0.3106 (  7303 PWs)   bands (ev):

   -34.2433 -34.2348 -17.2713 -17.1712 -15.4247 -15.4247 -15.2756 -15.2756
   -15.2352 -15.2182 -13.9037 -13.9037 -13.6198 -13.6198  -3.1380  -2.9436
    -1.4421  -1.4156  -1.4156  -1.3239  -1.3239  -0.5365   2.4852   2.4852
     2.6148   2.6148   3.0313   3.0313   3.7169   3.7169   4.1606   4.4799

          k = 0.8852 0.5110 0.0000 (  7306 PWs)   bands (ev):

   -34.2410 -34.2370 -17.2540 -17.2076 -15.4479 -15.3856 -15.3383 -15.2506
   -15.2125 -15.2035 -13.8670 -13.7956 -13.7423 -13.6482  -3.0151  -2.9103
    -1.4811  -1.4509  -1.3577  -1.3282  -1.0758  -0.7327   2.4246   2.4591
     2.5476   2.6806   2.7998   3.2293   3.3644   3.5792   4.3320   4.4460

          k = 0.5901 0.3407 0.1035 (  7287 PWs)   bands (ev):

   -34.2403 -34.2375 -17.3033 -17.1655 -15.4757 -15.4551 -15.2891 -15.2638
   -15.1994 -15.1268 -13.9096 -13.8056 -13.6944 -13.6747  -2.9381  -2.7519
    -1.6664  -1.4186  -1.2988  -1.2895  -1.0078  -0.7931   2.1492   2.3988
     2.4629   2.6155   2.8879   3.1956   3.2949   3.5868   4.3480   4.5563

          k = 0.8852-0.5110-0.3106 (  7287 PWs)   bands (ev):

[...]
O        0.493025478   0.006974522   0.750000000
End final coordinates



     Writing output data file CCO_k.save/

     A final scf calculation at the relaxed structure.
     The G-vectors are recalculated for the final unit cell
     Results may differ from those at the preceding step.
 
     Parallelization info
     --------------------
     sticks:   dense  smooth     PW     G-vecs:    dense   smooth      PW
     Min          14      14      4                  339      339      52
     Max          15      15      5                  342      342      56
     Sum        1707    1707    493                40861    40861    6477
 


     bravais-lattice index     =            5
     lattice parameter (alat)  =      12.0000  a.u.
     unit-cell volume          =     854.9872 (a.u.)^3
     number of atoms/cell      =           10
     number of atomic types    =            3
     number of electrons       =        64.00
     number of Kohn-Sham states=           32
     kinetic-energy cutoff     =      50.0000  Ry
     charge density cutoff     =     200.0000  Ry
     convergence threshold     =      1.0E-07
     mixing beta               =       0.7000
     number of iterations used =            8  plain     mixing
     Exchange-correlation      = SLA  PW   PBE  PBE ( 1  4  3  4 0 0)

     celldm(1)=  12.000000  celldm(2)=   0.000000  celldm(3)=   0.000000
     celldm(4)=   0.500000  celldm(5)=   0.000000  celldm(6)=   0.000000

     crystal axes: (cart. coord. in units of alat)
               a(1) = (   0.397424  -0.229453   0.904309 )  
               a(2) = (   0.000000   0.458906   0.904309 )  
               a(3) = (  -0.397424  -0.229453   0.904309 )  

     reciprocal axes: (cart. coord. in units 2 pi/alat)
               b(1) = (  1.258102 -0.726365  0.368606 )  
               b(2) = ( -0.000000  1.452731  0.368606 )  
               b(3) = ( -1.258102 -0.726365  0.368606 )  


     PseudoPot. # 1 for Ca read from file:
     ./Ca_PBE.UPF
     MD5 check sum: 403a4c14b9e4d4dfdc3024c9a3812218
     Pseudo is Ultrasoft + core correction, Zval = 10.0
     Generated by new atomic code, or converted to UPF format
     Using radial grid of  845 points,  6 beta functions with: 
                l(1) =   0
                l(2) =   0
                l(3) =   1
                l(4) =   1
                l(5) =   2
                l(6) =   2
     Q(r) pseudized with  8 coefficients,  rinner =    1.500   1.500   1.500
                                                       1.500   1.500

     PseudoPot. # 2 for C  read from file:
     ./C_PBE.UPF
     MD5 check sum: d1aef80898a10debaa0f26306b886e00
     Pseudo is Ultrasoft + core correction, Zval =  4.0
     Generated by new atomic code, or converted to UPF format
     Using radial grid of  721 points,  4 beta functions with: 
                l(1) =   0
                l(2) =   0
                l(3) =   1
                l(4) =   1
     Q(r) pseudized with  8 coefficients,  rinner =    1.100   1.100   1.100


     PseudoPot. # 3 for O  read from file:
     ./O_PBE.UPF
     MD5 check sum: 734c27235a0248c51dbae37a1fbe46ec
     Pseudo is Ultrasoft + core correction, Zval =  6.0
     Generated by new atomic code, or converted to UPF format
     Using radial grid of  737 points,  5 beta functions with: 
                l(1) =   0
                l(2) =   0
                l(3) =   1
                l(4) =   1
                l(5) =   2
     Q(r) pseudized with  8 coefficients,  rinner =    0.900   0.900   0.900
                                                       0.900   0.900

     atomic species   valence    mass     pseudopotential
        Ca            10.00    40.07800     Ca( 1.00)
        C              4.00    12.01070     C ( 1.00)
        O              6.00    16.00000     O ( 1.00)

     12 Sym. Ops., with inversion, found ( 6 have fractional translation)



   Cartesian axes

     site n.     atom                  positions (alat units)
         1           Ca  tau(   1) = (  -0.0000000  -0.0000000   1.3564634  )
         2           Ca  tau(   2) = (   0.0000000   0.0000000   0.0000000  )
         3           C   tau(   3) = (  -0.0000000  -0.0000000   0.6782317  )
         4           C   tau(   4) = (  -0.0000000  -0.0000000   2.0346950  )
         5           O   tau(   5) = (   0.1021279   0.2820152   1.5825406  )
         6           O   tau(   6) = (   0.1931684  -0.2294529   1.5825406  )
         7           O   tau(   7) = (  -0.2952962  -0.0525623   1.5825406  )
         8           O   tau(   8) = (  -0.1931684   0.2294529   1.1303861  )
         9           O   tau(   9) = (   0.2952962   0.0525623   1.1303861  )
        10           O   tau(  10) = (  -0.1021279  -0.2820152   1.1303861  )

     number of k points=    13
                       cart. coord. in units 2pi/alat
        k(    1) = (   0.0000000   0.0000000   0.0000000), wk =   0.0312500
        k(    2) = (  -0.3145255  -0.1815914   0.0921514), wk =   0.1875000
        k(    3) = (   0.6290509   0.3631827  -0.1843028), wk =   0.0937500
        k(    4) = (  -0.3145255   0.1815914   0.1843028), wk =   0.1875000
        k(    5) = (   0.6290509   0.7263654  -0.0921514), wk =   0.3750000
        k(    6) = (   0.3145255   0.5447741   0.0000000), wk =   0.1875000
        k(    7) = (   0.6290509  -0.3631827  -0.3686056), wk =   0.0937500
        k(    8) = (  -0.0000000  -0.0000000   0.2764542), wk =   0.0625000
        k(    9) = (   0.9435764   0.5447741   0.0000000), wk =   0.1875000
        k(   10) = (   0.6290509   0.3631827   0.0921514), wk =   0.1875000
        k(   11) = (   0.9435764  -0.5447741  -0.2764542), wk =   0.1875000
        k(   12) = (   0.6290509  -0.7263654  -0.1843028), wk =   0.1875000
        k(   13) = (   0.0000000   0.0000000  -0.5529084), wk =   0.0312500

     Dense  grid:    40861 G-vectors     FFT dimensions: (  60,  60,  60)

     Estimated max dynamical RAM per process >      14.95 MB

     Estimated total dynamical RAM >       1.75 GB
     Message from routine sym_rho_init:
     some processors have no G-vectors for symmetrization
     Message from routine sym_rho_init:
     some processors have no G-vectors for symmetrization
     Message from routine sym_rho_init:
     some processors have no G-vectors for symmetrization
     Message from routine sym_rho_init:
     some processors have no G-vectors for symmetrization
     Message from routine sym_rho_init:
     some processors have no G-vectors for symmetrization
     Message from routine sym_rho_init:
     some processors have no G-vectors for symmetrization
     Message from routine sym_rho_init:
     some processors have no G-vectors for symmetrization
     Message from routine sym_rho_init:
     some processors have no G-vectors for symmetrization

     Check: negative core charge=   -0.000003

     Initial potential from superposition of free atoms

     starting charge   63.98899, renormalised to   64.00000
     Starting wfcs are   52 randomized atomic wfcs

     total cpu time spent up to now is      889.6 secs

     Self-consistent Calculation

     iteration #  1     ecut=    50.00 Ry     beta= 0.70
     CG style diagonalization
     c_bands:  5 eigenvalues not converged
     c_bands:  5 eigenvalues not converged
     c_bands:  2 eigenvalues not converged
     c_bands:  4 eigenvalues not converged
     c_bands:  5 eigenvalues not converged
     c_bands:  5 eigenvalues not converged
     c_bands:  3 eigenvalues not converged
     c_bands:  3 eigenvalues not converged
     c_bands:  3 eigenvalues not converged
     c_bands:  2 eigenvalues not converged
     ethr =  1.00E-06,  avg # of iterations = 12.2

     total cpu time spent up to now is      903.5 secs

     total energy              =    -366.72800309 Ry
     Harris-Foulkes estimate   =    -367.90343336 Ry
     estimated scf accuracy    <       1.68779409 Ry

     iteration #  2     ecut=    50.00 Ry     beta= 0.70
     CG style diagonalization
     ethr =  2.64E-03,  avg # of iterations =  4.3

     total cpu time spent up to now is      908.7 secs

     total energy              =    -367.11650827 Ry
     Harris-Foulkes estimate   =    -367.87799518 Ry
     estimated scf accuracy    <       1.55532443 Ry

     iteration #  3     ecut=    50.00 Ry     beta= 0.70
     CG style diagonalization
     ethr =  2.43E-03,  avg # of iterations =  3.8

     total cpu time spent up to now is      913.2 secs

     total energy              =    -367.41870470 Ry
     Harris-Foulkes estimate   =    -367.42133976 Ry
     estimated scf accuracy    <       0.01254991 Ry

     iteration #  4     ecut=    50.00 Ry     beta= 0.70
     CG style diagonalization
     ethr =  1.96E-05,  avg # of iterations =  4.3

     total cpu time spent up to now is      918.4 secs

     total energy              =    -367.42993961 Ry
     Harris-Foulkes estimate   =    -367.43092451 Ry
     estimated scf accuracy    <       0.00263101 Ry

     iteration #  5     ecut=    50.00 Ry     beta= 0.70
     CG style diagonalization
     ethr =  4.11E-06,  avg # of iterations =  3.6

     total cpu time spent up to now is      922.7 secs

     total energy              =    -367.43033236 Ry
     Harris-Foulkes estimate   =    -367.43034954 Ry
     estimated scf accuracy    <       0.00011506 Ry

     iteration #  6     ecut=    50.00 Ry     beta= 0.70
     CG style diagonalization
     ethr =  1.80E-07,  avg # of iterations =  4.0

     total cpu time spent up to now is      927.5 secs

     total energy              =    -367.43036434 Ry
     Harris-Foulkes estimate   =    -367.43036764 Ry
     estimated scf accuracy    <       0.00000717 Ry

     iteration #  7     ecut=    50.00 Ry     beta= 0.70
     CG style diagonalization
     ethr =  1.12E-08,  avg # of iterations =  4.3

     total cpu time spent up to now is      932.7 secs

     total energy              =    -367.43036791 Ry
     Harris-Foulkes estimate   =    -367.43036927 Ry
     estimated scf accuracy    <       0.00000330 Ry

     iteration #  8     ecut=    50.00 Ry     beta= 0.70
     CG style diagonalization
     ethr =  5.15E-09,  avg # of iterations =  3.6

     total cpu time spent up to now is      937.0 secs

     total energy              =    -367.43036833 Ry
     Harris-Foulkes estimate   =    -367.43036841 Ry
     estimated scf accuracy    <       0.00000015 Ry

     iteration #  9     ecut=    50.00 Ry     beta= 0.70
     CG style diagonalization
     ethr =  2.40E-10,  avg # of iterations =  4.0

     total cpu time spent up to now is      941.8 secs

     End of self-consistent calculation

          k = 0.0000 0.0000 0.0000 (  5161 PWs)   bands (ev):

   -33.7041 -33.6916 -17.0884 -17.0779 -15.1339 -15.1339 -14.7693 -14.7693
   -14.6760 -14.5675 -13.9106 -13.9106 -13.3803 -13.3803  -3.3202  -3.0474
    -1.6954  -1.5390  -1.5390  -1.2800  -1.2800  -0.4082   2.3505   2.3505
     2.7848   2.7848   2.9550   2.9550   3.5686   3.5686   3.7693   4.1960

          k =-0.3145-0.1816 0.0922 (  5105 PWs)   bands (ev):

   -33.7020 -33.6932 -17.1069 -17.0403 -15.1308 -15.0128 -14.9613 -14.7892
   -14.6923 -14.6794 -13.7987 -13.6199 -13.5701 -13.4273  -3.1175  -3.0523
    -1.5518  -1.4505  -1.3505  -1.3204  -1.2696  -0.6184   2.4145   2.4640
     2.5871   2.6253   2.7371   2.7847   3.3017   3.3352   4.1349   4.2172

          k = 0.6291 0.3632-0.1843 (  5104 PWs)   bands (ev):

   -33.6974 -33.6974 -17.0648 -17.0648 -15.0226 -15.0226 -15.0085 -15.0085
   -14.6562 -14.6562 -13.5969 -13.5969 -13.5806 -13.5806  -2.9675  -2.9675
    -1.5052  -1.5052  -1.2336  -1.2336  -0.9224  -0.9224   2.1537   2.1537
     2.5390   2.5390   2.8358   2.8358   3.0967   3.0967   4.3077   4.3077

          k =-0.3145 0.1816 0.1843 (  5096 PWs)   bands (ev):

   -33.7017 -33.6934 -17.1231 -17.0255 -15.1090 -15.0847 -14.8193 -14.8127
   -14.7493 -14.6959 -13.7432 -13.7063 -13.4963 -13.4637  -3.0986  -3.0823
    -1.4942  -1.4506  -1.4352  -1.2563  -1.2403  -0.6630   2.3606   2.4224
     2.5797   2.6524   2.7274   2.9147   3.1649   3.4105   4.1599   4.1791

          k = 0.6291 0.7264-0.0922 (  5104 PWs)   bands (ev):

   -33.6988 -33.6959 -17.1026 -17.0299 -15.1645 -15.0153 -14.9592 -14.8342
   -14.6953 -14.6611 -13.8141 -13.6051 -13.5601 -13.4174  -3.0046  -2.9294
    -1.4950  -1.4584  -1.3439  -1.2149  -0.9758  -0.8145   2.1093   2.2586
     2.4793   2.5310   2.6854   2.7764   3.1064   3.2499   4.2779   4.3725

          k = 0.3145 0.5448 0.0000 (  5103 PWs)   bands (ev):

   -33.6994 -33.6953 -17.1151 -17.0119 -15.1770 -15.0270 -15.0129 -14.7563
   -14.7217 -14.6272 -13.8327 -13.6264 -13.5422 -13.4082  -3.0184  -2.9107
    -1.5663  -1.3638  -1.3076  -1.2257  -1.0869  -0.7799   2.1104   2.3531
     2.4201   2.4996   2.6563   2.8195   3.1641   3.2217   4.2617   4.3935

          k = 0.6291-0.3632-0.3686 (  5104 PWs)   bands (ev):

   -33.6994 -33.6953 -17.1661 -16.9554 -15.2207 -15.2180 -14.7519 -14.7251
   -14.7026 -14.5765 -13.9500 -13.8413 -13.3955 -13.3553  -3.1374  -2.7910
    -1.5986  -1.3836  -1.2579  -1.1915  -0.9712  -0.8685   1.9123   2.2317
     2.5058   2.6859   2.7277   2.7396   3.1283   3.2510   4.1219   4.4826

          k =-0.0000-0.0000 0.2765 (  5115 PWs)   bands (ev):

   -33.7022 -33.6934 -17.0881 -17.0807 -15.0952 -15.0952 -14.8464 -14.8464
   -14.6582 -14.5816 -13.8095 -13.8095 -13.4436 -13.4436  -3.3045  -3.1223
    -1.5009  -1.5009  -1.4813  -1.3181  -1.3181  -0.5795   2.4148   2.4148
     2.7151   2.7151   3.0418   3.0418   3.4659   3.4659   3.8237   4.1191

          k = 0.9436 0.5448 0.0000 (  5095 PWs)   bands (ev):

   -33.6997 -33.6955 -17.0781 -17.0746 -15.1290 -15.0344 -14.9560 -14.7573
   -14.7337 -14.6356 -13.7917 -13.6139 -13.5919 -13.4325  -3.1566  -3.0509
    -1.4666  -1.4457  -1.3629  -1.3152  -1.1339  -0.7717   2.3575   2.4788
     2.5910   2.6173   2.7310   3.0049   3.1252   3.2570   4.1149   4.2069

          k = 0.6291 0.3632 0.0922 (  5115 PWs)   bands (ev):

   -33.6988 -33.6959 -17.1371 -16.9885 -15.1664 -15.1622 -14.8378 -14.8153
   -14.7114 -14.6003 -13.8232 -13.7510 -13.4453 -13.4203  -3.0882  -2.8436
    -1.5946  -1.3473  -1.3060  -1.2024  -0.9876  -0.8592   1.9855   2.2680
     2.4306   2.6837   2.7023   2.9014   3.0531   3.1897   4.1838   4.4277

          k = 0.9436-0.5448-0.2765 (  5112 PWs)   bands (ev):

   -33.6991 -33.6961 -17.1127 -17.0414 -15.1527 -14.9889 -14.9363 -14.8036
   -14.7169 -14.6495 -13.7801 -13.6479 -13.5459 -13.4527  -3.1522  -3.0659
    -1.4978  -1.3988  -1.3492  -1.3016  -1.0592  -0.8687   2.3325   2.4047
     2.5967   2.6439   2.8409   2.9626   3.0691   3.2937   4.1270   4.1838

          k = 0.6291-0.7264-0.1843 (  5112 PWs)   bands (ev):

   -33.6974 -33.6974 -17.0690 -17.0690 -15.0954 -15.0954 -14.8508 -14.8508
   -14.7239 -14.7239 -13.7203 -13.7203 -13.4701 -13.4701  -2.9695  -2.9695
    -1.4784  -1.4784  -1.2868  -1.2868  -0.8722  -0.8722   2.1487   2.1487
     2.5651   2.5651   2.6874   2.6874   3.1713   3.1713   4.3241   4.3241

          k = 0.0000 0.0000-0.5529 (  5076 PWs)   bands (ev):

   -33.6978 -33.6978 -17.0857 -17.0857 -14.9874 -14.9874 -14.9874 -14.9874
   -14.6180 -14.6180 -13.6102 -13.6102 -13.6102 -13.6102  -3.2399  -3.2399
    -1.4095  -1.4095  -1.4095  -1.4095  -1.0126  -1.0126   2.5663   2.5663
     2.5663   2.5663   3.2419   3.2419   3.2419   3.2419   3.9610   3.9610

     highest occupied level (ev):     4.4826

!    total energy              =    -367.43036838 Ry
     Harris-Foulkes estimate   =    -367.43036838 Ry
     estimated scf accuracy    <          7.8E-09 Ry

     The total energy is the sum of the following terms:

     one-electron contribution =    -148.20355963 Ry
     hartree contribution      =     103.47232412 Ry
     xc contribution           =     -75.26664991 Ry
     ewald contribution        =    -247.43248296 Ry

     convergence has been achieved in   9 iterations

     Forces acting on atoms (cartesian axes, Ry/au):

     atom    1 type  1   force =     0.00000000   -0.00000000    0.00000000
     atom    2 type  1   force =     0.00000000    0.00000000    0.00000000
     atom    3 type  2   force =     0.00000000    0.00000000   -0.00000000
     atom    4 type  2   force =    -0.00000000   -0.00000000    0.00000000
     atom    5 type  3   force =    -0.00008094    0.00014018    0.00000000
     atom    6 type  3   force =     0.00016187    0.00000000   -0.00000000
     atom    7 type  3   force =    -0.00008094   -0.00014018   -0.00000000
     atom    8 type  3   force =    -0.00016187   -0.00000000    0.00000000
     atom    9 type  3   force =     0.00008094    0.00014018    0.00000000
     atom   10 type  3   force =     0.00008094   -0.00014018   -0.00000000

     Total force =     0.000397     Total SCF correction =     0.000080
     SCF correction compared to forces is large: reduce conv_thr to get better values


     Computing stress (Cartesian axis) and pressure

          total   stress  (Ry/bohr**3)                   (kbar)     P=   -1.39
  -0.00001215   0.00000000   0.00000000         -1.79      0.00      0.00
   0.00000000  -0.00001215  -0.00000000          0.00     -1.79     -0.00
   0.00000000  -0.00000000  -0.00000402          0.00     -0.00     -0.59


     Writing output data file CCO_k.save/
 
     init_run     :      3.52s CPU      4.21s WALL (       2 calls)
     electrons    :    823.95s CPU    926.81s WALL (      16 calls)
     update_pot   :      1.07s CPU      1.13s WALL (      14 calls)
     forces       :      2.77s CPU      2.92s WALL (      16 calls)
     stress       :      4.56s CPU      4.70s WALL (      16 calls)

     Called by init_run:
     wfcinit      :      2.97s CPU      3.56s WALL (       2 calls)
     potinit      :      0.06s CPU      0.07s WALL (       2 calls)
     hinit0       :      0.40s CPU      0.47s WALL (       2 calls)

     Called by electrons:
     c_bands      :    770.40s CPU    869.32s WALL (     167 calls)
     sum_band     :     48.72s CPU     51.28s WALL (     167 calls)
     v_of_rho     :      2.98s CPU      3.07s WALL (     182 calls)
     newd         :      1.29s CPU      1.33s WALL (     182 calls)
     mix_rho      :      0.45s CPU      0.48s WALL (     167 calls)

     Called by c_bands:
     init_us_2    :      1.07s CPU      1.27s WALL (    4784 calls)
     ccgdiagg     :    612.00s CPU    673.71s WALL (    2216 calls)
     wfcrot       :    159.89s CPU    192.48s WALL (    2021 calls)

     Called by sum_band:
     sum_band:bec :      0.60s CPU      0.63s WALL (    2171 calls)
     addusdens    :      0.89s CPU      0.90s WALL (     167 calls)

     Called by *cgdiagg:
     h_psi        :    516.83s CPU    555.72s WALL (  244448 calls)
     s_psi        :     25.73s CPU     29.63s WALL (  486875 calls)
     cdiaghg      :     58.12s CPU     84.84s WALL (    2021 calls)

     Called by h_psi:
     h_psi:pot    :    510.30s CPU    548.05s WALL (  244448 calls)
     h_psi:calbec :     60.58s CPU     66.21s WALL (  244448 calls)
     vloc_psi     :    422.54s CPU    452.21s WALL (  244448 calls)
     add_vuspsi   :     19.23s CPU     21.32s WALL (  244448 calls)
     hs_1psi      :    459.63s CPU    497.19s WALL (  242427 calls)
     s_1psi       :     52.78s CPU     61.04s WALL (  242427 calls)

     General routines
     calbec       :     88.90s CPU    100.40s WALL (  490086 calls)
     fft          :      3.35s CPU      3.46s WALL (    2417 calls)
     ffts         :      0.22s CPU      0.23s WALL (     167 calls)
     fftw         :    443.90s CPU    473.84s WALL (  684710 calls)
 
     Parallel routines
     fft_scatt_xy :     20.19s CPU     21.48s WALL (  687294 calls)
     fft_scatt_yz :    336.32s CPU    359.74s WALL (  687294 calls)
 
     PWSCF        :  13m59.17s CPU  15m46.21s WALL

 
   This run was terminated on:  15:38:35  24Apr2022            

=------------------------------------------------------------------------------=
   JOB DONE.
=------------------------------------------------------------------------------=
