
     Program PWSCF v.6.4.1 starts on 24Apr2022 at  6:31:20 

     This program is part of the open-source Quantum ESPRESSO suite
     for quantum simulation of materials; please cite
         "P. Giannozzi et al., J. Phys.:Condens. Matter 21 395502 (2009);
         "P. Giannozzi et al., J. Phys.:Condens. Matter 29 465901 (2017);
          URL http://www.quantum-espresso.org", 
     in publications or presentations arising from this work. More details at
     http://www.quantum-espresso.org/quote

     Parallel version (MPI & OpenMP), running on      68 processor cores
     Number of MPI processes:                68
     Threads/MPI process:                     1

     MPI processes distributed on     1 nodes
     R & G space division:  proc/nbgrp/npool/nimage =      68
     Waiting for input...
     Reading input from standard input

     Current dimensions of program PWSCF are:
     Max number of different atomic species (ntypx) = 10
     Max number of k-points (npk) =  40000
     Max angular momentum in pseudopotentials (lmaxx) =  3

     Subspace diagonalization in iterative solution of the eigenvalue problem:
     one sub-group per band group will be used
     scalapack distributed-memory algorithm (size of sub-group:  5*  5 procs)

 
     Parallelization info
     --------------------
     sticks:   dense  smooth     PW     G-vecs:    dense   smooth      PW
     Min          25      25      7                  599      599      95
     Max          26      26      8                  601      601      99
     Sum        1703    1703    505                40837    40837    6591
 


     bravais-lattice index     =            5
     lattice parameter (alat)  =      12.1620  a.u.
     unit-cell volume          =     854.7720 (a.u.)^3
     number of atoms/cell      =           10
     number of atomic types    =            3
     number of electrons       =        64.00
     number of Kohn-Sham states=           32
     kinetic-energy cutoff     =      50.0000  Ry
     charge density cutoff     =     200.0000  Ry
     convergence threshold     =      1.0E-05
     mixing beta               =       0.7000
     number of iterations used =            8  plain     mixing
     Exchange-correlation      = SLA  PW   PBE  PBE ( 1  4  3  4 0 0)
     nstep                     =           50


     celldm(1)=  12.162000  celldm(2)=   0.000000  celldm(3)=   0.000000
     celldm(4)=   0.692300  celldm(5)=   0.000000  celldm(6)=   0.000000

     crystal axes: (cart. coord. in units of alat)
               a(1) = (   0.392237  -0.226458   0.891553 )  
               a(2) = (   0.000000   0.452916   0.891553 )  
               a(3) = (  -0.392237  -0.226458   0.891553 )  

     reciprocal axes: (cart. coord. in units 2 pi/alat)
               b(1) = (  1.274739 -0.735971  0.373879 )  
               b(2) = (  0.000000  1.471942  0.373879 )  
               b(3) = ( -1.274739 -0.735971  0.373879 )  


     PseudoPot. # 1 for Ca read from file:
     ./Ca_PBE.UPF
     MD5 check sum: 403a4c14b9e4d4dfdc3024c9a3812218
     Pseudo is Ultrasoft + core correction, Zval = 10.0
     Generated by new atomic code, or converted to UPF format
     Using radial grid of  845 points,  6 beta functions with: 
                l(1) =   0
                l(2) =   0
                l(3) =   1
                l(4) =   1
                l(5) =   2
                l(6) =   2
     Q(r) pseudized with  8 coefficients,  rinner =    1.500   1.500   1.500
                                                       1.500   1.500

     PseudoPot. # 2 for C  read from file:
     ./C_PBE.UPF
     MD5 check sum: d1aef80898a10debaa0f26306b886e00
     Pseudo is Ultrasoft + core correction, Zval =  4.0
     Generated by new atomic code, or converted to UPF format
     Using radial grid of  721 points,  4 beta functions with: 
                l(1) =   0
                l(2) =   0
                l(3) =   1
                l(4) =   1
     Q(r) pseudized with  8 coefficients,  rinner =    1.100   1.100   1.100


     PseudoPot. # 3 for O  read from file:
     ./O_PBE.UPF
     MD5 check sum: 734c27235a0248c51dbae37a1fbe46ec
     Pseudo is Ultrasoft + core correction, Zval =  6.0
     Generated by new atomic code, or converted to UPF format
     Using radial grid of  737 points,  5 beta functions with: 
                l(1) =   0
                l(2) =   0
                l(3) =   1
                l(4) =   1
                l(5) =   2
     Q(r) pseudized with  8 coefficients,  rinner =    0.900   0.900   0.900
                                                       0.900   0.900

     atomic species   valence    mass     pseudopotential
        Ca            10.00    40.07800     Ca( 1.00)
        C              4.00    12.01070     C ( 1.00)
        O              6.00    16.00000     O ( 1.00)

     12 Sym. Ops., with inversion, found ( 6 have fractional translation)



   Cartesian axes

     site n.     atom                  positions (alat units)
         1           Ca  tau(   1) = (   0.0000000  -0.0000000   1.3373294  )
         2           Ca  tau(   2) = (   0.0000000   0.0000000   0.0000000  )
         3           C   tau(   3) = (   0.0000000  -0.0000000   0.6686647  )
         4           C   tau(   4) = (   0.0000000  -0.0000000   2.0059941  )
         5           O   tau(   5) = (   0.1007658   0.2783849   1.5602177  )
         6           O   tau(   6) = (   0.1907055  -0.2264582   1.5602177  )
         7           O   tau(   7) = (  -0.2914713  -0.0519267   1.5602177  )
         8           O   tau(   8) = (  -0.1907055   0.2264582   1.1144412  )
         9           O   tau(   9) = (   0.2914713   0.0519267   1.1144412  )
        10           O   tau(  10) = (  -0.1007658  -0.2783849   1.1144412  )

     number of k points=    32
                       cart. coord. in units 2pi/alat
        k(    1) = (   0.0000000   0.0000000   0.0000000), wk =   0.0092593
        k(    2) = (  -0.2124565  -0.1226618   0.0623132), wk =   0.0555556
        k(    3) = (  -0.4249130  -0.2453236   0.1246265), wk =   0.0555556
        k(    4) = (   0.6373695   0.3679854  -0.1869397), wk =   0.0277778
        k(    5) = (  -0.2124565   0.1226618   0.1246265), wk =   0.0555556
        k(    6) = (  -0.4249130   0.0000000   0.1869397), wk =   0.1111111
        k(    7) = (   0.6373695   0.6133091  -0.1246265), wk =   0.1111111
        k(    8) = (   0.4249130   0.4906472  -0.0623132), wk =   0.1111111
        k(    9) = (   0.2124565   0.3679854   0.0000000), wk =   0.0555556
        k(   10) = (  -0.4249130   0.2453236   0.2492530), wk =   0.0555556
        k(   11) = (   0.6373695   0.8586327  -0.0623132), wk =   0.1111111
        k(   12) = (   0.4249130   0.7359709   0.0000000), wk =   0.0555556
        k(   13) = (   0.6373695  -0.3679854  -0.3738795), wk =   0.0277778
        k(   14) = (   0.0000000   0.0000000   0.1869397), wk =   0.0185185
        k(   15) = (  -0.2124565  -0.1226618   0.2492530), wk =   0.0555556
        k(   16) = (   0.8498260   0.4906472  -0.0623132), wk =   0.0555556
        k(   17) = (   0.6373695   0.3679854   0.0000000), wk =   0.0555556
        k(   18) = (   0.4249130   0.2453236   0.0623132), wk =   0.0555556
        k(   19) = (  -0.2124565   0.1226618   0.3115662), wk =   0.0555556
        k(   20) = (   0.8498260   0.7359709   0.0000000), wk =   0.1111111
        k(   21) = (   0.6373695   0.6133091   0.0623132), wk =   0.1111111
        k(   22) = (   0.4249130   0.4906472   0.1246265), wk =   0.1111111
        k(   23) = (   0.8498260  -0.4906472  -0.3115662), wk =   0.0555556
        k(   24) = (   0.6373695  -0.6133091  -0.2492530), wk =   0.1111111
        k(   25) = (   0.4249130  -0.7359709  -0.1869397), wk =   0.0555556
        k(   26) = (   0.6373695  -0.3679854  -0.1869397), wk =   0.0555556
        k(   27) = (   0.0000000   0.0000000   0.3738795), wk =   0.0185185
        k(   28) = (   1.0622825   0.6133091   0.0623132), wk =   0.0555556
        k(   29) = (   0.8498260   0.4906472   0.1246265), wk =   0.0555556
        k(   30) = (   1.0622825  -0.6133091  -0.2492530), wk =   0.0555556
        k(   31) = (   0.8498260  -0.7359709  -0.1869397), wk =   0.0555556
        k(   32) = (   0.0000000   0.0000000  -0.5608192), wk =   0.0092593

     Dense  grid:    40837 G-vectors     FFT dimensions: (  60,  60,  60)

     Estimated max dynamical RAM per process >      17.07 MB

     Estimated total dynamical RAM >       1.13 GB

     Check: negative core charge=   -0.000003

     Initial potential from superposition of free atoms

     starting charge   63.98899, renormalised to   64.00000
     Starting wfcs are   52 randomized atomic wfcs

     total cpu time spent up to now is        5.9 secs

     Self-consistent Calculation

     iteration #  1     ecut=    50.00 Ry     beta= 0.70
     CG style diagonalization
     ethr =  1.00E-02,  avg # of iterations =  2.7

     total cpu time spent up to now is       13.6 secs

     total energy              =    -366.66932512 Ry
     Harris-Foulkes estimate   =    -367.89238857 Ry
     estimated scf accuracy    <       1.75354332 Ry

     iteration #  2     ecut=    50.00 Ry     beta= 0.70
     CG style diagonalization
     ethr =  2.74E-03,  avg # of iterations =  4.4

     total cpu time spent up to now is       25.3 secs

     total energy              =    -367.10196458 Ry
     Harris-Foulkes estimate   =    -367.91489346 Ry
     estimated scf accuracy    <       1.67149619 Ry

     iteration #  3     ecut=    50.00 Ry     beta= 0.70
     CG style diagonalization
     ethr =  2.61E-03,  avg # of iterations =  3.8

     total cpu time spent up to now is       35.3 secs

     total energy              =    -367.41855101 Ry
     Harris-Foulkes estimate   =    -367.42049034 Ry
     estimated scf accuracy    <       0.01091470 Ry

     iteration #  4     ecut=    50.00 Ry     beta= 0.70
     CG style diagonalization
     ethr =  1.71E-05,  avg # of iterations =  4.4

     total cpu time spent up to now is       47.1 secs

     total energy              =    -367.42991565 Ry
     Harris-Foulkes estimate   =    -367.43093230 Ry
     estimated scf accuracy    <       0.00272276 Ry

     iteration #  5     ecut=    50.00 Ry     beta= 0.70
     CG style diagonalization
     ethr =  4.25E-06,  avg # of iterations =  3.6

     total cpu time spent up to now is       56.7 secs

     total energy              =    -367.43031607 Ry
     Harris-Foulkes estimate   =    -367.43034883 Ry
     estimated scf accuracy    <       0.00015036 Ry

     iteration #  6     ecut=    50.00 Ry     beta= 0.70
     CG style diagonalization
     ethr =  2.35E-07,  avg # of iterations =  4.1

     total cpu time spent up to now is       67.6 secs

     total energy              =    -367.43035409 Ry
     Harris-Foulkes estimate   =    -367.43036802 Ry
     estimated scf accuracy    <       0.00002376 Ry

     iteration #  7     ecut=    50.00 Ry     beta= 0.70
     CG style diagonalization
     ethr =  3.71E-08,  avg # of iterations =  4.1

     total cpu time spent up to now is       78.4 secs

     End of self-consistent calculation

          k = 0.0000 0.0000 0.0000 (  5161 PWs)   bands (ev):

   -33.6973 -33.6847 -17.0822 -17.0726 -15.1281 -15.1281 -14.7628 -14.7628
   -14.6698 -14.5618 -13.9055 -13.9055 -13.3741 -13.3741  -3.3137  -3.0409
    -1.6909  -1.5331  -1.5331  -1.2741  -1.2741  -0.4012   2.3558   2.3558
     2.7873   2.7873   2.9598   2.9598   3.5745   3.5745   3.7751   4.2021

          k =-0.2125-0.1227 0.0623 (  5110 PWs)   bands (ev):

   -33.6963 -33.6854 -17.0915 -17.0549 -15.1266 -15.0522 -14.8604 -14.7604
   -14.6961 -14.6586 -13.8495 -13.7209 -13.4773 -13.3946  -3.2088  -3.0516
    -1.5998  -1.4905  -1.4467  -1.3142  -1.2620  -0.5117   2.4043   2.4667
     2.6836   2.7220   2.7960   2.8518   3.4247   3.4501   3.9872   4.2111

          k =-0.4249-0.2453 0.1246 (  5093 PWs)   bands (ev):

   -33.6938 -33.6875 -17.1003 -17.0258 -15.1158 -15.0094 -14.9928 -14.8378
   -14.6717 -14.6540 -13.7325 -13.6159 -13.5565 -13.4606  -3.0237  -3.0216
    -1.5390  -1.4149  -1.2762  -1.2710  -1.2045  -0.7082   2.2859   2.3612
     2.5705   2.5939   2.7211   2.8263   3.1992   3.2326   4.2433   4.2582

          k = 0.6374 0.3680-0.1869 (  5096 PWs)   bands (ev):

   -33.6905 -33.6905 -17.0593 -17.0593 -15.0166 -15.0166 -15.0024 -15.0024
   -14.6498 -14.6498 -13.5912 -13.5912 -13.5748 -13.5748  -2.9616  -2.9616
    -1.5000  -1.5000  -1.2280  -1.2280  -0.9162  -0.9162   2.1587   2.1587
     2.5436   2.5436   2.8412   2.8412   3.1026   3.1026   4.3123   4.3123

          k =-0.2125 0.1227 0.1246 (  5105 PWs)   bands (ev):

   -33.6961 -33.6856 -17.0955 -17.0517 -15.0893 -15.0880 -14.8246 -14.7703
   -14.7109 -14.6848 -13.7859 -13.7595 -13.4490 -13.4334  -3.1997  -3.0690
    -1.5644  -1.4792  -1.4696  -1.3134  -1.2539  -0.5348   2.4054   2.4652
     2.6639   2.6869   2.8238   2.9015   3.3627   3.4865   3.9919   4.1966

          k =-0.4249 0.0000 0.1869 (  5106 PWs)   bands (ev):

   -33.6943 -33.6871 -17.1090 -17.0235 -15.1158 -15.0725 -14.8737 -14.8161
   -14.6897 -14.6821 -13.7336 -13.7056 -13.4832 -13.4608  -3.0580  -3.0514
    -1.5080  -1.4103  -1.3952  -1.2384  -1.2201  -0.6835   2.3325   2.4353
     2.5790   2.5895   2.7130   2.8576   3.1597   3.3478   4.2122   4.2240

          k = 0.6374 0.6133-0.1246 (  5100 PWs)   bands (ev):

   -33.6916 -33.6895 -17.0729 -17.0479 -15.1185 -15.0239 -14.9606 -14.8878
   -14.6664 -14.6557 -13.7402 -13.6199 -13.5429 -13.4514  -2.9644  -2.9579
    -1.4904  -1.4741  -1.3020  -1.2168  -0.9702  -0.8270   2.1657   2.2305
     2.4839   2.5144   2.7324   2.8140   3.1095   3.2104   4.3184   4.3336

          k = 0.4249 0.4906-0.0623 (  5101 PWs)   bands (ev):

   -33.6923 -33.6887 -17.1032 -17.0136 -15.1513 -15.0200 -15.0068 -14.8068
   -14.6901 -14.6244 -13.7893 -13.6152 -13.5420 -13.4252  -3.0060  -2.9127
    -1.5571  -1.3876  -1.2847  -1.2164  -1.0572  -0.7913   2.1137   2.3138
     2.4357   2.5376   2.6918   2.8387   3.1509   3.2055   4.2704   4.3841

          k = 0.2125 0.3680 0.0000 (  5097 PWs)   bands (ev):

   -33.6949 -33.6865 -17.1143 -17.0155 -15.1134 -15.0827 -14.8929 -14.7869
   -14.7088 -14.6684 -13.7275 -13.7219 -13.4704 -13.4630  -3.0530  -3.0453
    -1.5427  -1.4000  -1.3487  -1.3063  -1.2328  -0.6488   2.3395   2.4961
     2.5252   2.6396   2.6422   2.8283   3.2296   3.3469   4.2173   4.2286

          k =-0.4249 0.2453 0.2493 (  5102 PWs)   bands (ev):

   -33.6938 -33.6875 -17.1396 -16.9858 -15.1547 -15.1281 -14.7998 -14.7420
   -14.7198 -14.6916 -13.7971 -13.7381 -13.4582 -13.4182  -3.1131  -2.9395
    -1.5384  -1.3904  -1.3476  -1.2136  -1.1218  -0.7666   2.1477   2.3797
     2.4974   2.7074   2.7145   2.9625   2.9909   3.3501   4.1621   4.3281

          k = 0.6374 0.8586-0.0623 (  5112 PWs)   bands (ev):

   -33.6923 -33.6887 -17.1273 -16.9917 -15.1882 -15.0984 -14.8459 -14.7736
   -14.7025 -14.6445 -13.8686 -13.6870 -13.4788 -13.3813  -3.0586  -2.8625
    -1.5299  -1.4247  -1.3161  -1.1982  -0.9674  -0.8170   2.0241   2.2650
     2.4802   2.6314   2.6926   2.7419   3.1176   3.2714   4.2180   4.4293

          k = 0.4249 0.7360 0.0000 (  5097 PWs)   bands (ev):

   -33.6905 -33.6905 -17.0597 -17.0595 -15.1157 -15.0808 -14.9159 -14.8269
   -14.7175 -14.6596 -13.7324 -13.7257 -13.4524 -13.4492  -2.9258  -2.9253
    -1.5218  -1.4116  -1.3542  -1.1981  -0.8870  -0.8409   2.1329   2.1445
     2.4613   2.4792   2.6616   2.6984   3.1836   3.2272   4.3703   4.3739

          k = 0.6374-0.3680-0.3739 (  5104 PWs)   bands (ev):

   -33.6926 -33.6885 -17.1608 -16.9498 -15.2150 -15.2119 -14.7454 -14.7186
   -14.6964 -14.5701 -13.9446 -13.8356 -13.3896 -13.3496  -3.1317  -2.7848
    -1.5933  -1.3783  -1.2530  -1.1851  -0.9656  -0.8622   1.9174   2.2370
     2.5110   2.6903   2.7323   2.7441   3.1340   3.2576   4.1263   4.4874

          k = 0.0000 0.0000 0.1869 (  5119 PWs)   bands (ev):

   -33.6964 -33.6855 -17.0822 -17.0739 -15.1107 -15.1107 -14.8002 -14.8002
   -14.6616 -14.5681 -13.8571 -13.8571 -13.4027 -13.4027  -3.3074  -3.0780
    -1.5904  -1.5157  -1.5157  -1.2915  -1.2915  -0.4790   2.3852   2.3852
     2.7540   2.7540   3.0010   3.0010   3.5266   3.5266   3.7999   4.1659

          k =-0.2125-0.1227 0.2493 (  5117 PWs)   bands (ev):

   -33.6950 -33.6867 -17.0839 -17.0644 -15.1289 -15.0035 -14.9532 -14.7448
   -14.7005 -14.6250 -13.8392 -13.6583 -13.5378 -13.4032  -3.2145  -3.0787
    -1.5206  -1.4763  -1.3755  -1.3063  -1.3004  -0.6082   2.4168   2.4872
     2.6581   2.6904   2.8070   2.9616   3.3344   3.4023   3.9977   4.1792

          k = 0.8498 0.4906-0.0623 (  5119 PWs)   bands (ev):

   -33.6924 -33.6888 -17.0667 -17.0639 -15.1151 -15.0301 -14.9637 -14.8306
   -14.6882 -14.6384 -13.7474 -13.6036 -13.5845 -13.4408  -3.0807  -2.9779
    -1.4762  -1.4658  -1.3259  -1.2621  -1.0754  -0.7722   2.2697   2.3605
     2.5402   2.6048   2.7320   2.9226   3.0980   3.2034   4.2100   4.2796

          k = 0.6374 0.3680 0.0000 (  5116 PWs)   bands (ev):

   -33.6916 -33.6895 -17.1109 -17.0058 -15.1202 -15.1148 -14.8900 -14.8743
   -14.6891 -14.6103 -13.7431 -13.6900 -13.4766 -13.4631  -3.0473  -2.8742
    -1.5733  -1.3822  -1.2956  -1.1873  -0.9741  -0.8634   2.0413   2.2562
     2.4518   2.6456   2.7298   2.9851   2.9952   3.1684   4.2272   4.3959

          k = 0.4249 0.2453 0.0623 (  5082 PWs)   bands (ev):

   -33.6942 -33.6870 -17.1277 -16.9957 -15.1422 -15.0849 -14.9028 -14.7690
   -14.7111 -14.6563 -13.7874 -13.6381 -13.5311 -13.4267  -3.0710  -2.9713
    -1.5514  -1.3900  -1.3146  -1.2429  -1.2050  -0.7103   2.1983   2.4265
     2.5064   2.6426   2.6688   2.9221   3.1115   3.3240   4.2002   4.3013

          k =-0.2125 0.1227 0.3116 (  5102 PWs)   bands (ev):

   -33.6945 -33.6872 -17.0947 -17.0554 -15.1065 -15.0182 -14.9138 -14.7917
   -14.6876 -14.6620 -13.7612 -13.6817 -13.5128 -13.4572  -3.1879  -3.1208
    -1.4836  -1.4452  -1.4067  -1.2812  -1.2807  -0.6720   2.4281   2.4815
     2.6122   2.6589   2.8814   3.0220   3.2351   3.4301   4.0167   4.1431

          k = 0.8498 0.7360 0.0000 (  5098 PWs)   bands (ev):

   -33.6928 -33.6886 -17.0936 -17.0443 -15.1086 -15.0650 -14.8662 -14.8062
   -14.7262 -14.6717 -13.7254 -13.6937 -13.4947 -13.4699  -3.0676  -3.0638
    -1.4501  -1.4282  -1.3990  -1.2632  -1.0847  -0.7833   2.3241   2.3682
     2.5849   2.6341   2.7470   2.9230   3.0739   3.2927   4.2042   4.2136

          k = 0.6374 0.6133 0.0623 (  5099 PWs)   bands (ev):

   -33.6905 -33.6905 -17.0849 -17.0390 -15.1240 -15.0561 -14.9333 -14.8080
   -14.7013 -14.6762 -13.7640 -13.6552 -13.5170 -13.4290  -3.0145  -2.9107
    -1.5297  -1.3843  -1.3579  -1.2210  -0.8891  -0.8716   2.1148   2.2097
     2.4904   2.5923   2.6946   2.7974   3.1232   3.1911   4.2799   4.3693

          k = 0.4249 0.4906 0.1246 (  5101 PWs)   bands (ev):

   -33.6926 -33.6884 -17.1230 -16.9929 -15.1892 -15.0649 -14.9419 -14.7411
   -14.7130 -14.6169 -13.8662 -13.6134 -13.5431 -13.3822  -3.0427  -2.8753
    -1.5629  -1.3767  -1.2754  -1.2357  -1.0389  -0.7910   2.0533   2.3269
     2.4169   2.5925   2.6715   2.8322   3.1242   3.2520   4.2325   4.4197

          k = 0.8498-0.4906-0.3116 (  5123 PWs)   bands (ev):

   -33.6924 -33.6888 -17.1321 -16.9979 -15.1838 -15.0813 -14.8175 -14.7583
   -14.7328 -14.6438 -13.8073 -13.7523 -13.4499 -13.4160  -3.1332  -2.9327
    -1.5413  -1.3825  -1.3012  -1.2500  -1.0163  -0.8508   2.1460   2.3287
     2.5700   2.7120   2.7431   2.8508   3.0470   3.2913   4.1497   4.3304

          k = 0.6374-0.6133-0.2493 (  5107 PWs)   bands (ev):

   -33.6916 -33.6895 -17.1138 -17.0092 -15.1424 -15.1171 -14.8379 -14.7472
   -14.7184 -14.7086 -13.7959 -13.7299 -13.4495 -13.4180  -3.0487  -2.8759
    -1.5307  -1.4230  -1.2863  -1.2443  -0.9117  -0.8437   2.0455   2.2241
     2.5306   2.6328   2.6719   2.7281   3.1391   3.2229   4.2365   4.4104

          k = 0.4249-0.7360-0.1869 (  5112 PWs)   bands (ev):

   -33.6905 -33.6905 -17.0596 -17.0596 -15.1005 -15.1005 -14.8748 -14.8748
   -14.6830 -14.6830 -13.7290 -13.7290 -13.4508 -13.4508  -2.9255  -2.9255
    -1.4855  -1.4855  -1.2597  -1.2597  -0.8617  -0.8617   2.1386   2.1386
     2.4704   2.4704   2.6791   2.6791   3.2062   3.2062   4.3720   4.3720

          k = 0.6374-0.3680-0.1869 (  5104 PWs)   bands (ev):

   -33.6923 -33.6887 -17.1476 -16.9651 -15.1905 -15.1867 -14.7831 -14.7519
   -14.7162 -14.5811 -13.8824 -13.7921 -13.4120 -13.3789  -3.1092  -2.8090
    -1.5949  -1.3587  -1.2463  -1.2211  -0.9766  -0.8528   1.9510   2.2617
     2.4541   2.7006   2.7195   2.8251   3.1025   3.2249   4.1559   4.4618

          k = 0.0000 0.0000 0.3739 (  5106 PWs)   bands (ev):

   -33.6941 -33.6878 -17.0817 -17.0770 -15.0601 -15.0601 -14.8866 -14.8866
   -14.6400 -14.5860 -13.7406 -13.7406 -13.4840 -13.4840  -3.2836  -3.1580
    -1.4682  -1.4682  -1.3390  -1.3390  -1.3333  -0.6969   2.4646   2.4646
     2.6748   2.6748   3.1036   3.1036   3.4022   3.4022   3.8686   4.0753

          k = 1.0623 0.6133 0.0623 (  5102 PWs)   bands (ev):

   -33.6927 -33.6891 -17.0770 -17.0743 -15.1020 -15.0186 -14.9495 -14.8096
   -14.6725 -14.6184 -13.7665 -13.6100 -13.5912 -13.4531  -3.2064  -3.1256
    -1.4496  -1.4194  -1.3652  -1.3521  -1.1472  -0.8097   2.4466   2.5202
     2.5985   2.6217   2.9223   3.1187   3.1764   3.3075   4.0269   4.1214

          k = 0.8498 0.4906 0.1246 (  5107 PWs)   bands (ev):

   -33.6906 -33.6906 -17.1058 -17.0268 -15.1684 -15.0194 -14.9321 -14.7660
   -14.7212 -14.6254 -13.8077 -13.6716 -13.5176 -13.4109  -3.1218  -2.9471
    -1.5252  -1.3611  -1.3519  -1.2627  -0.9526  -0.8882   2.1900   2.3434
     2.5871   2.6645   2.6837   2.9462   3.0792   3.1857   4.1689   4.3105

          k = 1.0623-0.6133-0.2493 (  5094 PWs)   bands (ev):

   -33.6919 -33.6898 -17.0882 -17.0639 -15.0994 -14.9978 -14.9380 -14.8507
   -14.6604 -14.6346 -13.7311 -13.6079 -13.5838 -13.4867  -3.1741  -3.1651
    -1.4485  -1.4022  -1.3797  -1.3386  -1.0696  -0.8962   2.4825   2.4830
     2.5912   2.6079   2.9934   3.0909   3.1564   3.3015   4.0624   4.0785

          k = 0.8498-0.7360-0.1869 (  5108 PWs)   bands (ev):

   -33.6907 -33.6907 -17.0703 -17.0703 -15.0850 -15.0850 -14.8347 -14.8347
   -14.7008 -14.7008 -13.7050 -13.7050 -13.4869 -13.4869  -3.0711  -3.0711
    -1.4431  -1.4431  -1.3207  -1.3207  -0.9289  -0.9289   2.3315   2.3315
     2.6162   2.6162   2.8346   2.8346   3.1747   3.1747   4.2045   4.2045

          k = 0.0000 0.0000-0.5608 (  5076 PWs)   bands (ev):

   -33.6910 -33.6910 -17.0800 -17.0800 -14.9814 -14.9814 -14.9814 -14.9814
   -14.6121 -14.6121 -13.6043 -13.6043 -13.6043 -13.6043  -3.2337  -3.2337
    -1.4035  -1.4035  -1.4035  -1.4035  -1.0064  -1.0064   2.5707   2.5707
     2.5707   2.5707   3.2467   3.2467   3.2467   3.2467   3.9668   3.9668

     highest occupied level (ev):     4.4874

!    total energy              =    -367.43036291 Ry
     Harris-Foulkes estimate   =    -367.43036603 Ry
     estimated scf accuracy    <       0.00000491 Ry

     The total energy is the sum of the following terms:

     one-electron contribution =    -148.11903345 Ry
     hartree contribution      =     103.42456985 Ry
     xc contribution           =     -75.26253644 Ry
     ewald contribution        =    -247.47336287 Ry

     convergence has been achieved in   7 iterations

     Forces acting on atoms (cartesian axes, Ry/au):

     atom    1 type  1   force =    -0.00000000    0.00000000   -0.00000000
     atom    2 type  1   force =     0.00000000    0.00000000    0.00000000
     atom    3 type  2   force =     0.00000000    0.00000000   -0.00000000
     atom    4 type  2   force =     0.00000000    0.00000000   -0.00000000
     atom    5 type  3   force =     0.00003569   -0.00006181   -0.00000000
     atom    6 type  3   force =    -0.00007137    0.00000000    0.00000000
     atom    7 type  3   force =     0.00003569    0.00006181    0.00000000
     atom    8 type  3   force =     0.00007137   -0.00000000   -0.00000000
     atom    9 type  3   force =    -0.00003569   -0.00006181   -0.00000000
     atom   10 type  3   force =    -0.00003569    0.00006181    0.00000000

     Total force =     0.000175     Total SCF correction =     0.000189
     SCF correction compared to forces is large: reduce conv_thr to get better values


     Computing stress (Cartesian axis) and pressure

          total   stress  (Ry/bohr**3)                   (kbar)     P=   -4.95
  -0.00003487  -0.00000000  -0.00000000         -5.13     -0.00     -0.00
   0.00000000  -0.00003487  -0.00000000          0.00     -5.13     -0.00
   0.00000000  -0.00000000  -0.00003130          0.00     -0.00     -4.60


     BFGS Geometry Optimization

     number of scf cycles    =   1
     number of bfgs steps    =   0

     enthalpy new            =    -367.4303629080 Ry

     new trust radius        =       0.0050977611 bohr
     new conv_thr            =       0.0000100000 Ry

     new unit-cell volume =    852.61453 a.u.^3 (   126.34444 Ang^3 )
     density =      2.63092 g/cm^3

CELL_PARAMETERS (alat= 12.16200000)
   0.391895215  -0.226260808   0.890855338
   0.000000000   0.452521616   0.890855338
  -0.391895215  -0.226260808   0.890855338

ATOMIC_POSITIONS (crystal)
Ca       0.500000000   0.500000000   0.500000000
Ca       0.000000000   0.000000000   0.000000000
C        0.250000000   0.250000000   0.250000000
C        0.750000000   0.750000000   0.750000000
O        0.506907726   0.993092274   0.250000000
O        0.993092274   0.250000000   0.506907726
O        0.250000000   0.506907726   0.993092274
O        0.006907726   0.750000000   0.493092274
O        0.750000000   0.493092274   0.006907726
O        0.493092274   0.006907726   0.750000000



     Writing output data file CCO_k.save/
     NEW-OLD atomic charge density approx. for the potential

     Check: negative core charge=   -0.000003
     extrapolated charge   63.83808, renormalised to   64.00000

     total cpu time spent up to now is       80.2 secs

     Self-consistent Calculation

     iteration #  1     ecut=    50.00 Ry     beta= 0.70
     CG style diagonalization
     ethr =  1.00E-06,  avg # of iterations =  3.6

     total cpu time spent up to now is       90.2 secs

     total energy              =    -367.42873878 Ry
     Harris-Foulkes estimate   =    -367.71973028 Ry
     estimated scf accuracy    <       0.00121612 Ry

     iteration #  2     ecut=    50.00 Ry     beta= 0.70
     CG style diagonalization
     ethr =  1.90E-06,  avg # of iterations =  4.9

     total cpu time spent up to now is      103.3 secs

     total energy              =    -367.43023114 Ry
     Harris-Foulkes estimate   =    -367.43153684 Ry
     estimated scf accuracy    <       0.00357225 Ry

     iteration #  3     ecut=    50.00 Ry     beta= 0.70
     CG style diagonalization
     ethr =  1.90E-06,  avg # of iterations =  3.8

     total cpu time spent up to now is      113.4 secs

     total energy              =    -367.43039724 Ry
     Harris-Foulkes estimate   =    -367.43050064 Ry
     estimated scf accuracy    <       0.00040988 Ry

     iteration #  4     ecut=    50.00 Ry     beta= 0.70
     CG style diagonalization
     ethr =  6.40E-07,  avg # of iterations =  3.0

     total cpu time spent up to now is      121.4 secs

     total energy              =    -367.43036167 Ry
     Harris-Foulkes estimate   =    -367.43041019 Ry
     estimated scf accuracy    <       0.00017818 Ry

     iteration #  5     ecut=    50.00 Ry     beta= 0.70
     CG style diagonalization
     ethr =  2.78E-07,  avg # of iterations =  3.1

     total cpu time spent up to now is      129.6 secs

     total energy              =    -367.43035467 Ry
     Harris-Foulkes estimate   =    -367.43037133 Ry
     estimated scf accuracy    <       0.00005055 Ry

     iteration #  6     ecut=    50.00 Ry     beta= 0.70
     CG style diagonalization
     ethr =  7.90E-08,  avg # of iterations =  3.4

     total cpu time spent up to now is      138.7 secs

     End of self-consistent calculation

          k = 0.0000 0.0000 0.0000 (  5161 PWs)   bands (ev):

   -33.6601 -33.6474 -17.0735 -17.0650 -15.0997 -15.0997 -14.7273 -14.7273
   -14.6336 -14.5268 -13.8900 -13.8900 -13.3501 -13.3501  -3.2909  -3.0151
    -1.6804  -1.5165  -1.5165  -1.2547  -1.2547  -0.3866   2.3766   2.3766
     2.8096   2.8096   2.9849   2.9849   3.5997   3.5997   3.8007   4.2295

          k =-0.2126-0.1228 0.0624 (  5110 PWs)   bands (ev):

   -33.6592 -33.6481 -17.0836 -17.0462 -15.0984 -15.0232 -14.8287 -14.7259
   -14.6606 -14.6244 -13.8323 -13.7005 -13.4543 -13.3707  -3.1852  -3.0263
    -1.5884  -1.4735  -1.4299  -1.2954  -1.2427  -0.4975   2.4256   2.4883
     2.7058   2.7454   2.8192   2.8762   3.4491   3.4749   4.0137   4.2384

          k =-0.4253-0.2455 0.1247 (  5093 PWs)   bands (ev):

   -33.6566 -33.6502 -17.0922 -17.0174 -15.0879 -14.9803 -14.9628 -14.8060
   -14.6365 -14.6184 -13.7126 -13.5944 -13.5336 -13.4369  -2.9991  -2.9966
    -1.5237  -1.3973  -1.2581  -1.2524  -1.1898  -0.6941   2.3080   2.3834
     2.5938   2.6170   2.7431   2.8488   3.2226   3.2565   4.2704   4.2856

          k = 0.6379 0.3683-0.1871 (  5096 PWs)   bands (ev):

   -33.6533 -33.6533 -17.0511 -17.0511 -14.9870 -14.9870 -14.9735 -14.9735
   -14.6143 -14.6143 -13.5686 -13.5686 -13.5525 -13.5525  -2.9365  -2.9365
    -1.4836  -1.4836  -1.2094  -1.2094  -0.9017  -0.9017   2.1804   2.1804
     2.5667   2.5667   2.8639   2.8639   3.1257   3.1257   4.3397   4.3397

          k =-0.2126 0.1228 0.1247 (  5105 PWs)   bands (ev):

   -33.6589 -33.6483 -17.0877 -17.0431 -15.0608 -15.0592 -14.7922 -14.7359
   -14.6783 -14.6489 -13.7671 -13.7400 -13.4255 -13.4100  -3.1761  -3.0439
    -1.5530  -1.4622  -1.4525  -1.2948  -1.2346  -0.5207   2.4267   2.4869
     2.6869   2.7090   2.8483   2.9251   3.3870   3.5115   4.0183   4.2239

          k =-0.4253 0.0000 0.1871 (  5106 PWs)   bands (ev):

   -33.6571 -33.6498 -17.1010 -17.0151 -15.0880 -15.0438 -14.8421 -14.7845
   -14.6544 -14.6466 -13.7137 -13.6854 -13.4596 -13.4373  -3.0333  -3.0269
    -1.4925  -1.3941  -1.3775  -1.2194  -1.2041  -0.6696   2.3545   2.4578
     2.6020   2.6121   2.7361   2.8800   3.1832   3.3722   4.2393   4.2512

          k = 0.6379 0.6138-0.1247 (  5100 PWs)   bands (ev):

   -33.6543 -33.6522 -17.0647 -17.0396 -15.0908 -14.9949 -14.9311 -14.8562
   -14.6310 -14.6201 -13.7203 -13.5979 -13.5200 -13.4274  -2.9395  -2.9327
    -1.4740  -1.4574  -1.2845  -1.1979  -0.9550  -0.8126   2.1874   2.2528
     2.5062   2.5373   2.7547   2.8363   3.1329   3.2342   4.3457   4.3611

          k = 0.4253 0.4911-0.0624 (  5101 PWs)   bands (ev):

   -33.6551 -33.6515 -17.0950 -17.0053 -15.1241 -14.9906 -14.9774 -14.7742
   -14.6546 -14.5888 -13.7703 -13.5932 -13.5194 -13.4008  -2.9812  -2.8873
    -1.5411  -1.3704  -1.2664  -1.1975  -1.0430  -0.7768   2.1352   2.3363
     2.4581   2.5604   2.7138   2.8611   3.1745   3.2293   4.2975   4.4119

          k = 0.2126 0.3683 0.0000 (  5097 PWs)   bands (ev):

   -33.6577 -33.6492 -17.1063 -17.0070 -15.0857 -15.0539 -14.8615 -14.7555
   -14.6730 -14.6330 -13.7076 -13.7017 -13.4466 -13.4397  -3.0282  -3.0208
    -1.5279  -1.3833  -1.3309  -1.2906  -1.2135  -0.6349   2.3614   2.5191
     2.5474   2.6613   2.6663   2.8507   3.2533   3.3713   4.2445   4.2558

          k =-0.4253 0.2455 0.2494 (  5102 PWs)   bands (ev):

   -33.6566 -33.6502 -17.1314 -16.9775 -15.1271 -15.1008 -14.7667 -14.7064
   -14.6875 -14.6560 -13.7780 -13.7194 -13.4342 -13.3939  -3.0890  -2.9141
    -1.5212  -1.3729  -1.3330  -1.1943  -1.1050  -0.7530   2.1691   2.4016
     2.5195   2.7307   2.7383   2.9851   3.0137   3.3745   4.1887   4.3558

          k = 0.6379 0.8594-0.0624 (  5112 PWs)   bands (ev):

   -33.6551 -33.6515 -17.1191 -16.9835 -15.1613 -15.0708 -14.8141 -14.7395
   -14.6667 -14.6093 -13.8513 -13.6667 -13.4549 -13.3565  -3.0343  -2.8367
    -1.5126  -1.4081  -1.3001  -1.1789  -0.9515  -0.8026   2.0451   2.2871
     2.5023   2.6545   2.7154   2.7638   3.1411   3.2955   4.2447   4.4573

          k = 0.4253 0.7366 0.0000 (  5097 PWs)   bands (ev):

   -33.6532 -33.6532 -17.0515 -17.0512 -15.0879 -15.0533 -14.8847 -14.7963
   -14.6816 -14.6240 -13.7121 -13.7050 -13.4284 -13.4251  -2.9006  -2.9000
    -1.5057  -1.3937  -1.3380  -1.1789  -0.8725  -0.8252   2.1548   2.1664
     2.4835   2.5015   2.6835   2.7202   3.2074   3.2512   4.3978   4.4015

          k = 0.6379-0.3683-0.3742 (  5104 PWs)   bands (ev):

   -33.6554 -33.6512 -17.1525 -16.9417 -15.1883 -15.1853 -14.7096 -14.6827
   -14.6604 -14.5348 -13.9291 -13.8197 -13.3647 -13.3244  -3.1081  -2.7582
    -1.5763  -1.3614  -1.2371  -1.1657  -0.9491  -0.8486   1.9378   2.2585
     2.5332   2.7117   2.7558   2.7681   3.1579   3.2814   4.1524   4.5157

          k = 0.0000 0.0000 0.1871 (  5119 PWs)   bands (ev):

   -33.6593 -33.6482 -17.0736 -17.0662 -15.0822 -15.0822 -14.7659 -14.7659
   -14.6255 -14.5330 -13.8403 -13.8403 -13.3790 -13.3790  -3.2845  -3.0528
    -1.5793  -1.4989  -1.4989  -1.2723  -1.2723  -0.4645   2.4062   2.4062
     2.7767   2.7767   3.0256   3.0256   3.5517   3.5517   3.8256   4.1931

          k =-0.2126-0.1228 0.2494 (  5117 PWs)   bands (ev):

   -33.6579 -33.6494 -17.0760 -17.0559 -15.1007 -14.9736 -14.9230 -14.7095
   -14.6658 -14.5902 -13.8221 -13.6369 -13.5157 -13.3792  -3.1911  -3.0538
    -1.5071  -1.4591  -1.3589  -1.2886  -1.2815  -0.5940   2.4384   2.5091
     2.6809   2.7139   2.8299   2.9855   3.3587   3.4267   4.0242   4.2063

          k = 0.8506 0.4911-0.0624 (  5119 PWs)   bands (ev):

   -33.6552 -33.6516 -17.0583 -17.0558 -15.0871 -15.0014 -14.9335 -14.7983
   -14.6526 -14.6032 -13.7284 -13.5818 -13.5616 -13.4168  -3.0566  -2.9527
    -1.4588  -1.4502  -1.3082  -1.2436  -1.0601  -0.7579   2.2917   2.3831
     2.5627   2.6280   2.7543   2.9454   3.1214   3.2268   4.2371   4.3069

          k = 0.6379 0.3683 0.0000 (  5116 PWs)   bands (ev):

   -33.6543 -33.6522 -17.1026 -16.9976 -15.0922 -15.0872 -14.8582 -14.8431
   -14.6534 -14.5750 -13.7228 -13.6700 -13.4529 -13.4390  -3.0230  -2.8483
    -1.5570  -1.3653  -1.2775  -1.1685  -0.9598  -0.8486   2.0624   2.2782
     2.4742   2.6693   2.7524   3.0077   3.0183   3.1918   4.2540   4.4236

          k = 0.4253 0.2455 0.0624 (  5082 PWs)   bands (ev):

   -33.6571 -33.6497 -17.1196 -16.9873 -15.1148 -15.0564 -14.8718 -14.7362
   -14.6757 -14.6209 -13.7684 -13.6171 -13.5082 -13.4024  -3.0465  -2.9462
    -1.5353  -1.3725  -1.2997  -1.2238  -1.1878  -0.6966   2.2199   2.4486
     2.5290   2.6652   2.6925   2.9448   3.1346   3.3483   4.2271   4.3289

          k =-0.2126 0.1228 0.3118 (  5102 PWs)   bands (ev):

   -33.6573 -33.6500 -17.0868 -17.0469 -15.0782 -14.9886 -14.8831 -14.7579
   -14.6538 -14.6262 -13.7422 -13.6609 -13.4904 -13.4336  -3.1643  -3.0964
    -1.4678  -1.4279  -1.3908  -1.2644  -1.2624  -0.6579   2.4498   2.5036
     2.6349   2.6817   2.9050   3.0457   3.2589   3.4549   4.0432   4.1700

          k = 0.8506 0.7366 0.0000 (  5098 PWs)   bands (ev):

   -33.6556 -33.6513 -17.0854 -17.0360 -15.0806 -15.0367 -14.8342 -14.7752
   -14.6905 -14.6363 -13.7056 -13.6735 -13.4710 -13.4463  -3.0431  -3.0395
    -1.4323  -1.4111  -1.3830  -1.2448  -1.0692  -0.7691   2.3462   2.3905
     2.6076   2.6572   2.7696   2.9457   3.0971   3.3168   4.2312   4.2408

          k = 0.6379 0.6138 0.0624 (  5099 PWs)   bands (ev):

   -33.6533 -33.6533 -17.0766 -17.0308 -15.0965 -15.0278 -14.9033 -14.7755
   -14.6657 -14.6410 -13.7445 -13.6337 -13.4937 -13.4047  -2.9900  -2.8851
    -1.5131  -1.3664  -1.3416  -1.2026  -0.8736  -0.8568   2.1363   2.2317
     2.5125   2.6154   2.7171   2.8195   3.1466   3.2147   4.3071   4.3969

          k = 0.4253 0.4911 0.1247 (  5101 PWs)   bands (ev):

   -33.6554 -33.6512 -17.1148 -16.9846 -15.1624 -15.0364 -14.9116 -14.7068
   -14.6773 -14.5815 -13.8490 -13.5920 -13.5200 -13.3573  -3.0183  -2.8496
    -1.5465  -1.3597  -1.2576  -1.2174  -1.0236  -0.7766   2.0745   2.3493
     2.4389   2.6156   2.6940   2.8544   3.1478   3.2759   4.2593   4.4477

          k = 0.8506-0.4911-0.3118 (  5123 PWs)   bands (ev):

   -33.6552 -33.6516 -17.1238 -16.9896 -15.1566 -15.0536 -14.7859 -14.7232
   -14.6973 -14.6087 -13.7904 -13.7320 -13.4260 -13.3915  -3.1094  -2.9073
    -1.5241  -1.3650  -1.2847  -1.2317  -1.0006  -0.8366   2.1674   2.3506
     2.5926   2.7357   2.7654   2.8737   3.0700   3.3155   4.1764   4.3580

          k = 0.6379-0.6138-0.2494 (  5107 PWs)   bands (ev):

   -33.6543 -33.6522 -17.1055 -17.0010 -15.1149 -15.0898 -14.8057 -14.7149
   -14.6825 -14.6736 -13.7765 -13.7104 -13.4253 -13.3937  -3.0245  -2.8501
    -1.5137  -1.4062  -1.2696  -1.2259  -0.8960  -0.8287   2.0667   2.2460
     2.5530   2.6554   2.6944   2.7506   3.1626   3.2467   4.2634   4.4383

          k = 0.4253-0.7366-0.1871 (  5112 PWs)   bands (ev):

   -33.6532 -33.6532 -17.0513 -17.0513 -15.0728 -15.0728 -14.8438 -14.8438
   -14.6474 -14.6474 -13.7086 -13.7086 -13.4268 -13.4268  -2.9003  -2.9003
    -1.4690  -1.4690  -1.2416  -1.2416  -0.8465  -0.8465   2.1605   2.1605
     2.4927   2.4927   2.7009   2.7009   3.2301   3.2301   4.3996   4.3996

          k = 0.6379-0.3683-0.1871 (  5104 PWs)   bands (ev):

   -33.6551 -33.6515 -17.1393 -16.9570 -15.1635 -15.1599 -14.7487 -14.7178
   -14.6805 -14.5458 -13.8650 -13.7748 -13.3874 -13.3540  -3.0854  -2.7826
    -1.5783  -1.3417  -1.2276  -1.2042  -0.9608  -0.8386   1.9717   2.2835
     2.4760   2.7237   2.7434   2.8472   3.1261   3.2485   4.1822   4.4899

          k = 0.0000 0.0000 0.3742 (  5106 PWs)   bands (ev):

   -33.6569 -33.6506 -17.0733 -17.0691 -15.0309 -15.0309 -14.8545 -14.8545
   -14.6041 -14.5507 -13.7214 -13.7214 -13.4612 -13.4612  -3.2605  -3.1338
    -1.4509  -1.4509  -1.3209  -1.3204  -1.3204  -0.6827   2.4863   2.4863
     2.6976   2.6976   3.1278   3.1278   3.4269   3.4269   3.8945   4.1021

          k = 1.0632 0.6138 0.0624 (  5102 PWs)   bands (ev):

   -33.6555 -33.6518 -17.0687 -17.0662 -15.0737 -14.9892 -14.9186 -14.7762
   -14.6372 -14.5831 -13.7482 -13.5889 -13.5689 -13.4294  -3.1830  -3.1013
    -1.4319  -1.4029  -1.3470  -1.3339  -1.1330  -0.7957   2.4686   2.5427
     2.6212   2.6445   2.9454   3.1426   3.2002   3.3317   4.0534   4.1482

          k = 0.8506 0.4911 0.1247 (  5107 PWs)   bands (ev):

   -33.6534 -33.6534 -17.0974 -17.0186 -15.1411 -14.9906 -14.9021 -14.7317
   -14.6853 -14.5902 -13.7906 -13.6500 -13.4945 -13.3864  -3.0980  -2.9217
    -1.5080  -1.3435  -1.3351  -1.2446  -0.9376  -0.8735   2.2116   2.3657
     2.6098   2.6879   2.7056   2.9692   3.1023   3.2093   4.1958   4.3380

          k = 1.0632-0.6138-0.2494 (  5094 PWs)   bands (ev):

   -33.6547 -33.6526 -17.0801 -17.0557 -15.0710 -14.9684 -14.9073 -14.8179
   -14.6253 -14.5991 -13.7121 -13.5866 -13.5616 -13.4633  -3.1504  -3.1413
    -1.4310  -1.3843  -1.3621  -1.3206  -1.0557  -0.8823   2.5048   2.5054
     2.6137   2.6306   3.0167   3.1144   3.1802   3.3259   4.0891   4.1051

          k = 0.8506-0.7366-0.1871 (  5108 PWs)   bands (ev):

   -33.6535 -33.6535 -17.0621 -17.0621 -15.0569 -15.0569 -14.8029 -14.8029
   -14.6655 -14.6655 -13.6850 -13.6850 -13.4633 -13.4633  -3.0468  -3.0468
    -1.4255  -1.4255  -1.3034  -1.3034  -0.9141  -0.9141   2.3537   2.3537
     2.6391   2.6391   2.8571   2.8571   3.1984   3.1984   4.2316   4.2316

          k = 0.0000-0.0000-0.5613 (  5076 PWs)   bands (ev):

   -33.6538 -33.6538 -17.0718 -17.0718 -14.9511 -14.9511 -14.9511 -14.9511
   -14.5765 -14.5765 -13.5830 -13.5830 -13.5830 -13.5830  -3.2103  -3.2103
    -1.3856  -1.3856  -1.3856  -1.3856  -0.9929  -0.9929   2.5931   2.5931
     2.5931   2.5931   3.2709   3.2709   3.2709   3.2709   3.9931   3.9931

     highest occupied level (ev):     4.5157

!    total energy              =    -367.43035444 Ry
     Harris-Foulkes estimate   =    -367.43035972 Ry
     estimated scf accuracy    <       0.00000665 Ry

     The total energy is the sum of the following terms:

     one-electron contribution =    -147.79545757 Ry
     hartree contribution      =     103.32159150 Ry
     xc contribution           =     -75.27574007 Ry
     ewald contribution        =    -247.68074829 Ry

     convergence has been achieved in   6 iterations

     Forces acting on atoms (cartesian axes, Ry/au):

     atom    1 type  1   force =     0.00000000    0.00000000    0.00000000
     atom    2 type  1   force =    -0.00000000    0.00000000   -0.00000000
     atom    3 type  2   force =     0.00000000    0.00000000    0.00000000
     atom    4 type  2   force =    -0.00000000   -0.00000000   -0.00000000
     atom    5 type  3   force =     0.00088871   -0.00153929   -0.00000000
     atom    6 type  3   force =    -0.00177742    0.00000000   -0.00000000
     atom    7 type  3   force =     0.00088871    0.00153929    0.00000000
     atom    8 type  3   force =     0.00177742   -0.00000000    0.00000000
     atom    9 type  3   force =    -0.00088871   -0.00153929   -0.00000000
     atom   10 type  3   force =    -0.00088871    0.00153929    0.00000000

     Total force =     0.004354     Total SCF correction =     0.001758
     SCF correction compared to forces is large: reduce conv_thr to get better values


     Computing stress (Cartesian axis) and pressure

          total   stress  (Ry/bohr**3)                   (kbar)     P=   -2.13
  -0.00000879   0.00000000  -0.00000000         -1.29      0.00     -0.00
   0.00000000  -0.00000879  -0.00000000          0.00     -1.29     -0.00
  -0.00000000  -0.00000000  -0.00002581         -0.00     -0.00     -3.80


     number of scf cycles    =   2
     number of bfgs steps    =   1

     enthalpy old            =    -367.4303629080 Ry
     enthalpy new            =    -367.4303544409 Ry

     CASE: enthalpy_new > enthalpy_old

     new trust radius        =       0.0022828756 bohr
     new conv_thr            =       0.0000100000 Ry

     new unit-cell volume =    853.80499 a.u.^3 (   126.52084 Ang^3 )
     density =      2.62725 g/cm^3

CELL_PARAMETERS (alat= 12.16200000)
   0.392083978  -0.226369790   0.891240425
   0.000000000   0.452739580   0.891240425
  -0.392083978  -0.226369790   0.891240425

ATOMIC_POSITIONS (crystal)
Ca       0.500000000   0.500000000   0.500000000
Ca       0.000000000   0.000000000   0.000000000
C        0.250000000   0.250000000   0.250000000
C        0.750000000   0.750000000   0.750000000
O        0.506903596   0.993096404   0.250000000
O        0.993096404   0.250000000   0.506903596
O        0.250000000   0.506903596   0.993096404
O        0.006903596   0.750000000   0.493096404
O        0.750000000   0.493096404   0.006903596
O        0.493096404   0.006903596   0.750000000



     Writing output data file CCO_k.save/
     NEW-OLD atomic charge density approx. for the potential

     Check: negative core charge=   -0.000003
     extrapolated charge   64.08922, renormalised to   64.00000

     total cpu time spent up to now is      139.9 secs

     Self-consistent Calculation

     iteration #  1     ecut=    50.00 Ry     beta= 0.70
     CG style diagonalization
     ethr =  1.00E-06,  avg # of iterations =  2.5

     total cpu time spent up to now is      147.0 secs

     total energy              =    -367.43000440 Ry
     Harris-Foulkes estimate   =    -367.27082624 Ry
     estimated scf accuracy    <       0.00020193 Ry

     iteration #  2     ecut=    50.00 Ry     beta= 0.70
     CG style diagonalization
     ethr =  3.16E-07,  avg # of iterations =  5.2

     total cpu time spent up to now is      160.8 secs

     total energy              =    -367.43036960 Ry
     Harris-Foulkes estimate   =    -367.43063470 Ry
     estimated scf accuracy    <       0.00079513 Ry

     iteration #  3     ecut=    50.00 Ry     beta= 0.70
     CG style diagonalization
     ethr =  3.16E-07,  avg # of iterations =  3.8

     total cpu time spent up to now is      170.8 secs

     total energy              =    -367.43038281 Ry
     Harris-Foulkes estimate   =    -367.43041666 Ry
     estimated scf accuracy    <       0.00013754 Ry

     iteration #  4     ecut=    50.00 Ry     beta= 0.70
     CG style diagonalization
     ethr =  2.15E-07,  avg # of iterations =  3.0

     total cpu time spent up to now is      178.9 secs

     total energy              =    -367.43036636 Ry
     Harris-Foulkes estimate   =    -367.43038614 Ry
     estimated scf accuracy    <       0.00005974 Ry

     iteration #  5     ecut=    50.00 Ry     beta= 0.70
     CG style diagonalization
     ethr =  9.33E-08,  avg # of iterations =  3.3

     total cpu time spent up to now is      187.8 secs

     End of self-consistent calculation

          k = 0.0000 0.0000 0.0000 (  5161 PWs)   bands (ev):

   -33.6902 -33.6776 -17.0887 -17.0798 -15.1240 -15.1240 -14.7553 -14.7553
   -14.6621 -14.5549 -13.9094 -13.9094 -13.3741 -13.3741  -3.3126  -3.0387
    -1.6934  -1.5351  -1.5351  -1.2752  -1.2752  -0.4034   2.3563   2.3563
     2.7886   2.7886   2.9612   2.9612   3.5765   3.5765   3.7777   4.2050

          k =-0.2125-0.1227 0.0623 (  5110 PWs)   bands (ev):

   -33.6893 -33.6784 -17.0985 -17.0615 -15.1226 -15.0479 -14.8547 -14.7534
   -14.6887 -14.6519 -13.8526 -13.7224 -13.4777 -13.3947  -3.2074  -3.0496
    -1.6022  -1.4924  -1.4486  -1.3154  -1.2632  -0.5139   2.4048   2.4672
     2.6850   2.7234   2.7973   2.8532   3.4266   3.4521   3.9898   4.2139

          k =-0.4251-0.2454 0.1247 (  5093 PWs)   bands (ev):

   -33.6867 -33.6804 -17.1071 -17.0326 -15.1120 -15.0050 -14.9879 -14.8322
   -14.6645 -14.6467 -13.7343 -13.6169 -13.5569 -13.4607  -3.0221  -3.0198
    -1.5409  -1.4165  -1.2778  -1.2725  -1.2065  -0.7104   2.2870   2.3621
     2.5717   2.5948   2.7225   2.8279   3.2009   3.2345   4.2459   4.2608

          k = 0.6376 0.3681-0.1870 (  5096 PWs)   bands (ev):

   -33.6835 -33.6835 -17.0661 -17.0661 -15.0120 -15.0120 -14.9981 -14.9981
   -14.6425 -14.6425 -13.5917 -13.5917 -13.5755 -13.5755  -2.9597  -2.9597
    -1.5018  -1.5018  -1.2296  -1.2296  -0.9183  -0.9183   2.1598   2.1598
     2.5447   2.5447   2.8427   2.8427   3.1043   3.1043   4.3149   4.3149

          k =-0.2125 0.1227 0.1247 (  5105 PWs)   bands (ev):

   -33.6891 -33.6786 -17.1025 -17.0583 -15.0852 -15.0838 -14.8187 -14.7634
   -14.7051 -14.6772 -13.7882 -13.7615 -13.4492 -13.4337  -3.1983  -3.0670
    -1.5667  -1.4811  -1.4715  -1.3147  -1.2551  -0.5370   2.4059   2.4657
     2.6652   2.6883   2.8251   2.9030   3.3646   3.4886   3.9945   4.1994

          k =-0.4251-0.0000 0.1870 (  5106 PWs)   bands (ev):

   -33.6873 -33.6800 -17.1158 -17.0303 -15.1120 -15.0683 -14.8682 -14.8106
   -14.6824 -14.6747 -13.7354 -13.7073 -13.4833 -13.4610  -3.0563  -3.0498
    -1.5098  -1.4122  -1.3969  -1.2397  -1.2219  -0.6857   2.3333   2.4362
     2.5800   2.5908   2.7145   2.8592   3.1614   3.3498   4.2148   4.2267

          k = 0.6376 0.6135-0.1247 (  5100 PWs)   bands (ev):

   -33.6845 -33.6824 -17.0797 -17.0547 -15.1147 -15.0196 -14.9560 -14.8822
   -14.6591 -14.6483 -13.7420 -13.6207 -13.5433 -13.4513  -2.9627  -2.9560
    -1.4922  -1.4758  -1.3038  -1.2183  -0.9721  -0.8291   2.1667   2.2316
     2.4849   2.5156   2.7338   2.8155   3.1112   3.2122   4.3209   4.3362

          k = 0.4251 0.4908-0.0623 (  5101 PWs)   bands (ev):

   -33.6853 -33.6817 -17.1099 -17.0205 -15.1477 -15.0154 -15.0023 -14.8008
   -14.6828 -14.6171 -13.7915 -13.6160 -13.5426 -13.4250  -3.0043  -2.9108
    -1.5589  -1.3892  -1.2864  -1.2179  -1.0592  -0.7934   2.1148   2.3150
     2.4367   2.5386   2.6932   2.8402   3.1526   3.2074   4.2729   4.3867

          k = 0.2125 0.3681 0.0000 (  5097 PWs)   bands (ev):

   -33.6878 -33.6794 -17.1212 -17.0222 -15.1096 -15.0784 -14.8874 -14.7816
   -14.7012 -14.6611 -13.7293 -13.7235 -13.4704 -13.4633  -3.0512  -3.0437
    -1.5446  -1.4018  -1.3505  -1.3081  -1.2340  -0.6511   2.3404   2.4972
     2.5257   2.6411   2.6435   2.8299   3.2314   3.3489   4.2200   4.2312

          k =-0.4251 0.2454 0.2493 (  5102 PWs)   bands (ev):

   -33.6867 -33.6804 -17.1463 -16.9927 -15.1509 -15.1245 -14.7936 -14.7345
   -14.7141 -14.6842 -13.7992 -13.7405 -13.4581 -13.4180  -3.1116  -2.9376
    -1.5401  -1.3922  -1.3496  -1.2148  -1.1234  -0.7689   2.1484   2.3805
     2.4987   2.7091   2.7156   2.9640   2.9926   3.3521   4.1646   4.3308

          k = 0.6376 0.8590-0.0623 (  5112 PWs)   bands (ev):

   -33.6853 -33.6817 -17.1340 -16.9987 -15.1847 -15.0948 -14.8403 -14.7668
   -14.6949 -14.6374 -13.8716 -13.6886 -13.4787 -13.3809  -3.0571  -2.8605
    -1.5316  -1.4267  -1.3179  -1.1994  -0.9692  -0.8191   2.0249   2.2660
     2.4815   2.6326   2.6941   2.7434   3.1193   3.2733   4.2204   4.4320

          k = 0.4251 0.7363 0.0000 (  5097 PWs)   bands (ev):

   -33.6834 -33.6834 -17.0665 -17.0663 -15.1119 -15.0772 -14.9105 -14.8220
   -14.7099 -14.6522 -13.7339 -13.7271 -13.4523 -13.4491  -2.9240  -2.9234
    -1.5237  -1.4133  -1.3560  -1.1994  -0.8890  -0.8428   2.1339   2.1455
     2.4624   2.4802   2.6631   2.6999   3.1854   3.2290   4.3728   4.3764

          k = 0.6376-0.3681-0.3740 (  5104 PWs)   bands (ev):

   -33.6855 -33.6814 -17.1674 -16.9569 -15.2117 -15.2086 -14.7378 -14.7109
   -14.6887 -14.5631 -13.9484 -13.8394 -13.3891 -13.3490  -3.1303  -2.7825
    -1.5951  -1.3803  -1.2548  -1.1863  -0.9672  -0.8645   1.9180   2.2379
     2.5123   2.6917   2.7341   2.7454   3.1359   3.2594   4.1285   4.4901

          k = 0.0000-0.0000 0.1870 (  5119 PWs)   bands (ev):

   -33.6894 -33.6785 -17.0888 -17.0810 -15.1066 -15.1066 -14.7933 -14.7933
   -14.6539 -14.5612 -13.8604 -13.8604 -13.4028 -13.4028  -3.3062  -3.0760
    -1.5928  -1.5176  -1.5176  -1.2927  -1.2927  -0.4811   2.3858   2.3858
     2.7552   2.7552   3.0023   3.0023   3.5285   3.5285   3.8025   4.1687

          k =-0.2125-0.1227 0.2493 (  5117 PWs)   bands (ev):

   -33.6880 -33.6796 -17.0909 -17.0711 -15.1249 -14.9988 -14.9483 -14.7374
   -14.6935 -14.6181 -13.8423 -13.6594 -13.5386 -13.4032  -3.2132  -3.0768
    -1.5228  -1.4781  -1.3772  -1.3077  -1.3017  -0.6104   2.4174   2.4880
     2.6593   2.6917   2.8084   2.9631   3.3363   3.4041   4.0003   4.1820

          k = 0.8502 0.4908-0.0623 (  5119 PWs)   bands (ev):

   -33.6854 -33.6818 -17.0734 -17.0708 -15.1112 -15.0259 -14.9588 -14.8247
   -14.6808 -14.6313 -13.7497 -13.6045 -13.5849 -13.4408  -3.0792  -2.9760
    -1.4778  -1.4677  -1.3277  -1.2637  -1.0772  -0.7743   2.2706   2.3617
     2.5410   2.6060   2.7335   2.9241   3.0998   3.2051   4.2126   4.2822

          k = 0.6376 0.3681 0.0000 (  5116 PWs)   bands (ev):

   -33.6845 -33.6824 -17.1176 -17.0127 -15.1163 -15.1111 -14.8843 -14.8690
   -14.6816 -14.6032 -13.7446 -13.6918 -13.4766 -13.4629  -3.0457  -2.8721
    -1.5751  -1.3838  -1.2974  -1.1888  -0.9761  -0.8654   2.0422   2.2575
     2.4528   2.6469   2.7313   2.9867   2.9967   3.1702   4.2296   4.3985

          k = 0.4251 0.2454 0.0623 (  5082 PWs)   bands (ev):

   -33.6872 -33.6800 -17.1345 -17.0026 -15.1386 -15.0807 -14.8975 -14.7630
   -14.7038 -14.6491 -13.7896 -13.6394 -13.5315 -13.4265  -3.0693  -2.9695
    -1.5531  -1.3917  -1.3167  -1.2442  -1.2066  -0.7127   2.1992   2.4274
     2.5075   2.6441   2.6699   2.9237   3.1131   3.3260   4.2028   4.3040

          k =-0.2125 0.1227 0.3117 (  5102 PWs)   bands (ev):

   -33.6874 -33.6802 -17.1017 -17.0621 -15.1025 -15.0136 -14.9087 -14.7850
   -14.6811 -14.6544 -13.7635 -13.6830 -13.5135 -13.4573  -3.1865  -3.1190
    -1.4856  -1.4470  -1.4084  -1.2826  -1.2823  -0.6741   2.4288   2.4821
     2.6133   2.6601   2.8829   3.0236   3.2368   3.4321   4.0194   4.1458

          k = 0.8502 0.7363 0.0000 (  5098 PWs)   bands (ev):

   -33.6857 -33.6815 -17.1004 -17.0511 -15.1047 -15.0610 -14.8604 -14.8011
   -14.7187 -14.6644 -13.7272 -13.6954 -13.4947 -13.4701  -3.0659  -3.0622
    -1.4517  -1.4300  -1.4008  -1.2647  -1.0865  -0.7854   2.3249   2.3691
     2.5862   2.6351   2.7486   2.9247   3.0754   3.2945   4.2068   4.2162

          k = 0.6376 0.6135 0.0623 (  5099 PWs)   bands (ev):

   -33.6835 -33.6835 -17.0916 -17.0459 -15.1204 -15.0521 -14.9285 -14.8021
   -14.6938 -14.6690 -13.7660 -13.6562 -13.5172 -13.4288  -3.0129  -2.9087
    -1.5315  -1.3860  -1.3597  -1.2225  -0.8910  -0.8736   2.1157   2.2108
     2.4915   2.5935   2.6960   2.7990   3.1248   3.1928   4.2825   4.3719

          k = 0.4251 0.4908 0.1247 (  5101 PWs)   bands (ev):

   -33.6855 -33.6814 -17.1298 -16.9998 -15.1858 -15.0608 -14.9369 -14.7343
   -14.7054 -14.6098 -13.8692 -13.6145 -13.5433 -13.3818  -3.0412  -2.8733
    -1.5647  -1.3786  -1.2769  -1.2372  -1.0408  -0.7932   2.0542   2.3280
     2.4180   2.5936   2.6730   2.8337   3.1259   3.2539   4.2349   4.4223

          k = 0.8502-0.4908-0.3117 (  5123 PWs)   bands (ev):

   -33.6854 -33.6818 -17.1387 -17.0048 -15.1802 -15.0776 -14.8121 -14.7510
   -14.7253 -14.6367 -13.8106 -13.7539 -13.4499 -13.4157  -3.1317  -2.9308
    -1.5431  -1.3843  -1.3029  -1.2515  -1.0180  -0.8529   2.1468   2.3296
     2.5712   2.7132   2.7449   2.8522   3.0488   3.2932   4.1522   4.3331

          k = 0.6376-0.6135-0.2493 (  5107 PWs)   bands (ev):

   -33.6845 -33.6824 -17.1205 -17.0162 -15.1387 -15.1136 -14.8321 -14.7414
   -14.7108 -14.7015 -13.7978 -13.7319 -13.4493 -13.4178  -3.0472  -2.8739
    -1.5325  -1.4250  -1.2880  -1.2457  -0.9135  -0.8457   2.0463   2.2251
     2.5318   2.6341   2.6733   2.7297   3.1408   3.2247   4.2390   4.4130

          k = 0.4251-0.7363-0.1870 (  5112 PWs)   bands (ev):

   -33.6834 -33.6834 -17.0664 -17.0664 -15.0967 -15.0967 -14.8695 -14.8695
   -14.6756 -14.6756 -13.7305 -13.7305 -13.4507 -13.4507  -2.9237  -2.9237
    -1.4873  -1.4873  -1.2612  -1.2612  -0.8636  -0.8636   2.1396   2.1396
     2.4715   2.4715   2.6806   2.6806   3.2080   3.2080   4.3746   4.3746

          k = 0.6376-0.3681-0.1870 (  5104 PWs)   bands (ev):

   -33.6853 -33.6817 -17.1542 -16.9722 -15.1871 -15.1833 -14.7762 -14.7451
   -14.7087 -14.5741 -13.8853 -13.7952 -13.4117 -13.3784  -3.1078  -2.8068
    -1.5968  -1.3607  -1.2476  -1.2228  -0.9784  -0.8550   1.9518   2.2627
     2.4552   2.7022   2.7208   2.8266   3.1042   3.2267   4.1582   4.4645

          k = 0.0000-0.0000 0.3740 (  5106 PWs)   bands (ev):

   -33.6871 -33.6808 -17.0884 -17.0840 -15.0557 -15.0557 -14.8808 -14.8808
   -14.6325 -14.5789 -13.7427 -13.7427 -13.4845 -13.4845  -3.2823  -3.1563
    -1.4700  -1.4700  -1.3403  -1.3403  -1.3354  -0.6989   2.4654   2.4654
     2.6759   2.6759   3.1052   3.1052   3.4041   3.4041   3.8712   4.0782

          k = 1.0627 0.6135 0.0623 (  5102 PWs)   bands (ev):

   -33.6856 -33.6820 -17.0837 -17.0812 -15.0980 -15.0140 -14.9443 -14.8032
   -14.6652 -14.6112 -13.7690 -13.6112 -13.5919 -13.4532  -3.2050  -3.1239
    -1.4513  -1.4213  -1.3667  -1.3536  -1.1491  -0.8118   2.4474   2.5212
     2.5996   2.6227   2.9238   3.1204   3.1781   3.3093   4.0295   4.1241

          k = 0.8502 0.4908 0.1247 (  5107 PWs)   bands (ev):

   -33.6836 -33.6836 -17.1124 -17.0337 -15.1648 -15.0152 -14.9274 -14.7592
   -14.7136 -14.6183 -13.8109 -13.6726 -13.5179 -13.4106  -3.1203  -2.9451
    -1.5269  -1.3629  -1.3536  -1.2643  -0.9545  -0.8901   2.1908   2.3444
     2.5881   2.6657   2.6853   2.9478   3.0809   3.1874   4.1715   4.3132

          k = 1.0627-0.6135-0.2493 (  5094 PWs)   bands (ev):

   -33.6849 -33.6828 -17.0951 -17.0707 -15.0953 -14.9933 -14.9329 -14.8445
   -14.6533 -14.6273 -13.7333 -13.6091 -13.5845 -13.4869  -3.1726  -3.1636
    -1.4502  -1.4038  -1.3813  -1.3401  -1.0716  -0.8982   2.4834   2.4838
     2.5922   2.6090   2.9950   3.0924   3.1581   3.3033   4.0651   4.0811

          k = 0.8502-0.7363-0.1870 (  5108 PWs)   bands (ev):

   -33.6836 -33.6836 -17.0771 -17.0771 -15.0811 -15.0811 -14.8291 -14.8291
   -14.6935 -14.6935 -13.7068 -13.7068 -13.4870 -13.4870  -3.0695  -3.0695
    -1.4448  -1.4448  -1.3224  -1.3224  -0.9307  -0.9307   2.3324   2.3324
     2.6174   2.6174   2.8362   2.8362   3.1764   3.1764   4.2071   4.2071

          k = 0.0000 0.0000-0.5610 (  5076 PWs)   bands (ev):

   -33.6839 -33.6839 -17.0868 -17.0868 -14.9764 -14.9764 -14.9764 -14.9764
   -14.6048 -14.6048 -13.6055 -13.6055 -13.6055 -13.6055  -3.2323  -3.2323
    -1.4051  -1.4051  -1.4051  -1.4051  -1.0084  -1.0084   2.5716   2.5716
     2.5716   2.5716   3.2483   3.2483   3.2483   3.2483   3.9696   3.9696

     highest occupied level (ev):     4.4901

!    total energy              =    -367.43036419 Ry
     Harris-Foulkes estimate   =    -367.43037115 Ry
     estimated scf accuracy    <       0.00000880 Ry

     The total energy is the sum of the following terms:

     one-electron contribution =    -148.01057664 Ry
     hartree contribution      =     103.42623898 Ry
     xc contribution           =     -75.27979853 Ry
     ewald contribution        =    -247.56622801 Ry

     convergence has been achieved in   5 iterations

     Forces acting on atoms (cartesian axes, Ry/au):

     atom    1 type  1   force =    -0.00000000   -0.00000000    0.00000000
     atom    2 type  1   force =    -0.00000000    0.00000000    0.00000000
     atom    3 type  2   force =    -0.00000000    0.00000000   -0.00000000
     atom    4 type  2   force =    -0.00000000    0.00000000   -0.00000000
     atom    5 type  3   force =     0.00064267   -0.00111314   -0.00000000
     atom    6 type  3   force =    -0.00128534   -0.00000000   -0.00000000
     atom    7 type  3   force =     0.00064267    0.00111314    0.00000000
     atom    8 type  3   force =     0.00128534   -0.00000000   -0.00000000
     atom    9 type  3   force =    -0.00064267   -0.00111314   -0.00000000
     atom   10 type  3   force =    -0.00064267    0.00111314    0.00000000

     Total force =     0.003148     Total SCF correction =     0.003189
     SCF correction compared to forces is large: reduce conv_thr to get better values


     Computing stress (Cartesian axis) and pressure

          total   stress  (Ry/bohr**3)                   (kbar)     P=    5.47
   0.00003458   0.00000000  -0.00000000          5.09      0.00     -0.00
   0.00000000   0.00003458   0.00000000          0.00      5.09      0.00
   0.00000000   0.00000000   0.00004235          0.00      0.00      6.23


     number of scf cycles    =   3
     number of bfgs steps    =   1

     enthalpy old            =    -367.4303629080 Ry
     enthalpy new            =    -367.4303641879 Ry

     CASE: enthalpy_new < enthalpy_old

     new trust radius        =       0.0014605197 bohr
     new conv_thr            =       0.0000001000 Ry

     new unit-cell volume =    854.23623 a.u.^3 (   126.58475 Ang^3 )
     density =      2.62593 g/cm^3

CELL_PARAMETERS (alat= 12.16200000)
   0.392133984  -0.226398661   0.891463162
  -0.000000000   0.452797322   0.891463162
  -0.392133984  -0.226398661   0.891463162

ATOMIC_POSITIONS (crystal)
Ca       0.500000000   0.500000000   0.500000000
Ca      -0.000000000   0.000000000  -0.000000000
C        0.250000000   0.250000000   0.250000000
C        0.750000000   0.750000000   0.750000000
O        0.506970594   0.993029406   0.250000000
O        0.993029406   0.250000000   0.506970594
O        0.250000000   0.506970594   0.993029406
O        0.006970594   0.750000000   0.493029406
O        0.750000000   0.493029406   0.006970594
O        0.493029406   0.006970594   0.750000000



     Writing output data file CCO_k.save/
     NEW-OLD atomic charge density approx. for the potential

     Check: negative core charge=   -0.000003
     extrapolated charge   64.03230, renormalised to   64.00000

     total cpu time spent up to now is      189.1 secs

     Self-consistent Calculation

     iteration #  1     ecut=    50.00 Ry     beta= 0.70
     CG style diagonalization
     ethr =  1.00E-06,  avg # of iterations =  2.7

     total cpu time spent up to now is      196.6 secs

     total energy              =    -367.43024122 Ry
     Harris-Foulkes estimate   =    -367.37261160 Ry
     estimated scf accuracy    <       0.00013566 Ry

     iteration #  2     ecut=    50.00 Ry     beta= 0.70
     CG style diagonalization
     ethr =  2.12E-07,  avg # of iterations =  4.7

     total cpu time spent up to now is      209.0 secs

     total energy              =    -367.43034886 Ry
     Harris-Foulkes estimate   =    -367.43045052 Ry
     estimated scf accuracy    <       0.00024571 Ry

     iteration #  3     ecut=    50.00 Ry     beta= 0.70
     CG style diagonalization
     ethr =  2.12E-07,  avg # of iterations =  3.7

     total cpu time spent up to now is      219.0 secs

     total energy              =    -367.43037038 Ry
     Harris-Foulkes estimate   =    -367.43037403 Ry
     estimated scf accuracy    <       0.00001355 Ry

     iteration #  4     ecut=    50.00 Ry     beta= 0.70
     CG style diagonalization
     ethr =  2.12E-08,  avg # of iterations =  3.2

     total cpu time spent up to now is      227.6 secs

     total energy              =    -367.43036986 Ry
     Harris-Foulkes estimate   =    -367.43037121 Ry
     estimated scf accuracy    <       0.00000660 Ry

     iteration #  5     ecut=    50.00 Ry     beta= 0.70
     CG style diagonalization
     ethr =  1.03E-08,  avg # of iterations =  3.0

     total cpu time spent up to now is      235.7 secs

     total energy              =    -367.43036866 Ry
     Harris-Foulkes estimate   =    -367.43037010 Ry
     estimated scf accuracy    <       0.00000294 Ry

     iteration #  6     ecut=    50.00 Ry     beta= 0.70
     CG style diagonalization
     ethr =  4.60E-09,  avg # of iterations =  3.6

     total cpu time spent up to now is      245.2 secs

     End of self-consistent calculation

          k = 0.0000 0.0000 0.0000 (  5161 PWs)   bands (ev):

   -33.6920 -33.6794 -17.0804 -17.0706 -15.1243 -15.1243 -14.7575 -14.7575
   -14.6643 -14.5561 -13.9034 -13.9034 -13.3700 -13.3700  -3.3128  -3.0396
    -1.6889  -1.5322  -1.5322  -1.2726  -1.2726  -0.3983   2.3576   2.3576
     2.7906   2.7906   2.9628   2.9628   3.5778   3.5778   3.7768   4.2043

          k =-0.2125-0.1227 0.0623 (  5110 PWs)   bands (ev):

   -33.6910 -33.6801 -17.0895 -17.0530 -15.1229 -15.0483 -14.8558 -14.7552
   -14.6908 -14.6532 -13.8471 -13.7177 -13.4735 -13.3906  -3.2077  -3.0505
    -1.5978  -1.4895  -1.4456  -1.3127  -1.2604  -0.5090   2.4061   2.4686
     2.6867   2.7250   2.7991   2.8547   3.4276   3.4532   3.9894   4.2134

          k =-0.4250-0.2454 0.1246 (  5093 PWs)   bands (ev):

   -33.6885 -33.6822 -17.0983 -17.0238 -15.1122 -15.0054 -14.9886 -14.8334
   -14.6663 -14.6485 -13.7294 -13.6125 -13.5528 -13.4567  -3.0225  -3.0205
    -1.5374  -1.4135  -1.2747  -1.2695  -1.2026  -0.7057   2.2884   2.3636
     2.5732   2.5964   2.7236   2.8292   3.2019   3.2355   4.2456   4.2606

          k = 0.6375 0.3681-0.1870 (  5096 PWs)   bands (ev):

   -33.6852 -33.6852 -17.0573 -17.0573 -15.0125 -15.0125 -14.9986 -14.9986
   -14.6442 -14.6442 -13.5876 -13.5876 -13.5712 -13.5712  -2.9604  -2.9604
    -1.4986  -1.4986  -1.2265  -1.2265  -0.9139  -0.9139   2.1612   2.1612
     2.5462   2.5462   2.8438   2.8438   3.1053   3.1053   4.3147   4.3147

          k =-0.2125 0.1227 0.1246 (  5105 PWs)   bands (ev):

   -33.6908 -33.6803 -17.0936 -17.0498 -15.0855 -15.0842 -14.8198 -14.7651
   -14.7059 -14.6794 -13.7831 -13.7566 -13.4451 -13.4295  -3.1986  -3.0679
    -1.5623  -1.4782  -1.4686  -1.3119  -1.2523  -0.5321   2.4072   2.4671
     2.6667   2.6901   2.8266   2.9047   3.3657   3.4897   3.9940   4.1989

          k =-0.4250-0.0000 0.1870 (  5106 PWs)   bands (ev):

   -33.6890 -33.6818 -17.1071 -17.0215 -15.1122 -15.0686 -14.8691 -14.8116
   -14.6842 -14.6767 -13.7306 -13.7025 -13.4793 -13.4569  -3.0570  -3.0502
    -1.5064  -1.4088  -1.3939  -1.2369  -1.2184  -0.6810   2.3348   2.4375
     2.5815   2.5924   2.7158   2.8605   3.1626   3.3507   4.2144   4.2264

          k = 0.6375 0.6135-0.1246 (  5100 PWs)   bands (ev):

   -33.6863 -33.6842 -17.0709 -17.0459 -15.1150 -15.0199 -14.9566 -14.8833
   -14.6609 -14.6502 -13.7373 -13.6164 -13.5392 -13.4473  -2.9633  -2.9567
    -1.4890  -1.4727  -1.3005  -1.2153  -0.9680  -0.8246   2.1681   2.2329
     2.4864   2.5170   2.7350   2.8167   3.1123   3.2132   4.3208   4.3360

          k = 0.4250 0.4908-0.0623 (  5101 PWs)   bands (ev):

   -33.6870 -33.6834 -17.1012 -17.0116 -15.1478 -15.0160 -15.0028 -14.8020
   -14.6847 -14.6187 -13.7865 -13.6117 -13.5384 -13.4211  -3.0050  -2.9114
    -1.5556  -1.3861  -1.2833  -1.2148  -1.0549  -0.7889   2.1161   2.3163
     2.4380   2.5402   2.6944   2.8414   3.1537   3.2083   4.2728   4.3866

          k = 0.2125 0.3681 0.0000 (  5097 PWs)   bands (ev):

   -33.6896 -33.6812 -17.1124 -17.0135 -15.1098 -15.0788 -14.8884 -14.7822
   -14.7034 -14.6629 -13.7245 -13.7188 -13.4664 -13.4592  -3.0520  -3.0441
    -1.5410  -1.3986  -1.3475  -1.3045  -1.2312  -0.6462   2.3419   2.4986
     2.5273   2.6425   2.6450   2.8312   3.2325   3.3499   4.2196   4.2309

          k =-0.4250 0.2454 0.2493 (  5102 PWs)   bands (ev):

   -33.6885 -33.6822 -17.1377 -16.9837 -15.1511 -15.1246 -14.7949 -14.7366
   -14.7148 -14.6863 -13.7943 -13.7354 -13.4542 -13.4141  -3.1122  -2.9381
    -1.5372  -1.3891  -1.3456  -1.2120  -1.1199  -0.7642   2.1498   2.3817
     2.5002   2.7103   2.7173   2.9652   2.9937   3.3530   4.1643   4.3306

          k = 0.6375 0.8589-0.0623 (  5112 PWs)   bands (ev):

   -33.6870 -33.6834 -17.1254 -16.9896 -15.1848 -15.0948 -14.8413 -14.7685
   -14.6971 -14.6390 -13.8662 -13.6839 -13.4748 -13.3771  -3.0576  -2.8611
    -1.5287  -1.4233  -1.3142  -1.1967  -0.9652  -0.8146   2.0262   2.2672
     2.4829   2.6342   2.6953   2.7446   3.1204   3.2743   4.2203   4.4319

          k = 0.4250 0.7362 0.0000 (  5097 PWs)   bands (ev):

   -33.6852 -33.6852 -17.0577 -17.0575 -15.1122 -15.0773 -14.9114 -14.8223
   -14.7121 -14.6541 -13.7293 -13.7225 -13.4484 -13.4451  -2.9246  -2.9241
    -1.5204  -1.4103  -1.3525  -1.1965  -0.8846  -0.8386   2.1353   2.1469
     2.4639   2.4816   2.6642   2.7010   3.1864   3.2300   4.3727   4.3764

          k = 0.6375-0.3681-0.3739 (  5104 PWs)   bands (ev):

   -33.6873 -33.6831 -17.1589 -16.9477 -15.2116 -15.2087 -14.7400 -14.7132
   -14.6910 -14.5644 -13.9426 -13.8335 -13.3854 -13.3452  -3.1309  -2.7833
    -1.5922  -1.3769  -1.2509  -1.1836  -0.9634  -0.8600   1.9194   2.2389
     2.5137   2.6929   2.7352   2.7471   3.1369   3.2604   4.1284   4.4900

          k =-0.0000-0.0000 0.1870 (  5119 PWs)   bands (ev):

   -33.6911 -33.6802 -17.0804 -17.0719 -15.1069 -15.1069 -14.7952 -14.7952
   -14.6561 -14.5624 -13.8547 -13.8547 -13.3987 -13.3987  -3.3064  -3.0768
    -1.5884  -1.5148  -1.5148  -1.2900  -1.2900  -0.4762   2.3871   2.3871
     2.7571   2.7571   3.0040   3.0040   3.5299   3.5299   3.8016   4.1680

          k =-0.2125-0.1227 0.2493 (  5117 PWs)   bands (ev):

   -33.6897 -33.6814 -17.0820 -17.0625 -15.1251 -14.9994 -14.9489 -14.7395
   -14.6953 -14.6195 -13.8367 -13.6549 -13.5342 -13.3992  -3.2135  -3.0775
    -1.5189  -1.4752  -1.3741  -1.3047  -1.2989  -0.6056   2.4188   2.4893
     2.6610   2.6933   2.8101   2.9646   3.3375   3.4052   3.9998   4.1814

          k = 0.8500 0.4908-0.0623 (  5119 PWs)   bands (ev):

   -33.6871 -33.6835 -17.0648 -17.0619 -15.1114 -15.0263 -14.9596 -14.8259
   -14.6827 -14.6328 -13.7446 -13.6001 -13.5808 -13.4368  -3.0796  -2.9767
    -1.4748  -1.4642  -1.3245  -1.2606  -1.0733  -0.7697   2.2719   2.3630
     2.5427   2.6075   2.7348   2.9252   3.1009   3.2061   4.2124   4.2819

          k = 0.6375 0.3681 0.0000 (  5116 PWs)   bands (ev):

   -33.6862 -33.6842 -17.1090 -17.0037 -15.1165 -15.1113 -14.8855 -14.8699
   -14.6836 -14.6047 -13.7401 -13.6869 -13.4727 -13.4590  -3.0463  -2.8728
    -1.5720  -1.3807  -1.2942  -1.1857  -0.9718  -0.8611   2.0435   2.2588
     2.4542   2.6485   2.7324   2.9878   2.9979   3.1711   4.2295   4.3983

          k = 0.4250 0.2454 0.0623 (  5082 PWs)   bands (ev):

   -33.6889 -33.6817 -17.1258 -16.9937 -15.1387 -15.0811 -14.8984 -14.7642
   -14.7057 -14.6508 -13.7846 -13.6348 -13.5274 -13.4226  -3.0700  -2.9700
    -1.5499  -1.3887  -1.3128  -1.2414  -1.2033  -0.7079   2.2006   2.4289
     2.5087   2.6454   2.6716   2.9250   3.1142   3.3270   4.2025   4.3037

          k =-0.2125 0.1227 0.3116 (  5102 PWs)   bands (ev):

   -33.6892 -33.6819 -17.0928 -17.0535 -15.1027 -15.0142 -14.9094 -14.7867
   -14.6824 -14.6565 -13.7584 -13.6785 -13.5091 -13.4532  -3.1868  -3.1197
    -1.4823  -1.4442  -1.4050  -1.2798  -1.2790  -0.6693   2.4302   2.4836
     2.6148   2.6619   2.8843   3.0252   3.2381   3.4332   4.0188   4.1453

          k = 0.8500 0.7362 0.0000 (  5098 PWs)   bands (ev):

   -33.6875 -33.6833 -17.0916 -17.0424 -15.1049 -15.0612 -14.8616 -14.8017
   -14.7208 -14.6662 -13.7224 -13.6906 -13.4908 -13.4660  -3.0665  -3.0626
    -1.4489  -1.4269  -1.3973  -1.2618  -1.0826  -0.7808   2.3264   2.3704
     2.5877   2.6367   2.7498   2.9259   3.0766   3.2956   4.2065   4.2159

          k = 0.6375 0.6135 0.0623 (  5099 PWs)   bands (ev):

   -33.6852 -33.6852 -17.0830 -17.0370 -15.1205 -15.0524 -14.9291 -14.8032
   -14.6958 -14.6708 -13.7612 -13.6519 -13.5131 -13.4249  -3.0135  -2.9094
    -1.5283  -1.3829  -1.3562  -1.2194  -0.8868  -0.8692   2.1170   2.2120
     2.4931   2.5950   2.6972   2.8001   3.1259   3.1938   4.2823   4.3718

          k = 0.4250 0.4908 0.1246 (  5101 PWs)   bands (ev):

   -33.6873 -33.6831 -17.1211 -16.9908 -15.1859 -15.0610 -14.9377 -14.7359
   -14.7076 -14.6113 -13.8638 -13.6101 -13.5393 -13.3780  -3.0418  -2.8740
    -1.5615  -1.3753  -1.2738  -1.2341  -1.0367  -0.7887   2.0555   2.3292
     2.4195   2.5952   2.6741   2.8349   3.1270   3.2548   4.2348   4.4222

          k = 0.8500-0.4908-0.3116 (  5123 PWs)   bands (ev):

   -33.6871 -33.6835 -17.1302 -16.9958 -15.1803 -15.0777 -14.8129 -14.7531
   -14.7274 -14.6383 -13.8049 -13.7493 -13.4458 -13.4119  -3.1323  -2.9314
    -1.5401  -1.3812  -1.2993  -1.2485  -1.0140  -0.8484   2.1481   2.3308
     2.5727   2.7148   2.7461   2.8535   3.0498   3.2942   4.1519   4.3328

          k = 0.6375-0.6135-0.2493 (  5107 PWs)   bands (ev):

   -33.6862 -33.6842 -17.1119 -17.0072 -15.1389 -15.1135 -14.8332 -14.7423
   -14.7130 -14.7033 -13.7930 -13.7270 -13.4454 -13.4139  -3.0478  -2.8746
    -1.5295  -1.4216  -1.2845  -1.2427  -0.9094  -0.8414   2.0476   2.2263
     2.5333   2.6356   2.6746   2.7309   3.1418   3.2257   4.2388   4.4129

          k = 0.4250-0.7362-0.1870 (  5112 PWs)   bands (ev):

   -33.6852 -33.6852 -17.0576 -17.0576 -15.0969 -15.0969 -14.8703 -14.8703
   -14.6775 -14.6775 -13.7259 -13.7259 -13.4467 -13.4467  -2.9243  -2.9243
    -1.4841  -1.4841  -1.2581  -1.2581  -0.8594  -0.8594   2.1410   2.1410
     2.4729   2.4729   2.6816   2.6816   3.2090   3.2090   4.3745   4.3745

          k = 0.6375-0.3681-0.1870 (  5104 PWs)   bands (ev):

   -33.6870 -33.6834 -17.1457 -16.9630 -15.1871 -15.1834 -14.7780 -14.7469
   -14.7108 -14.5754 -13.8800 -13.7897 -13.4079 -13.3746  -3.1083  -2.8075
    -1.5937  -1.3573  -1.2447  -1.2191  -0.9744  -0.8506   1.9531   2.2638
     2.4566   2.7034   2.7224   2.8278   3.1053   3.2276   4.1581   4.4643

          k =-0.0000-0.0000 0.3739 (  5106 PWs)   bands (ev):

   -33.6888 -33.6825 -17.0799 -17.0750 -15.0562 -15.0562 -14.8820 -14.8820
   -14.6344 -14.5804 -13.7377 -13.7377 -13.4802 -13.4802  -3.2826  -3.1568
    -1.4671  -1.4671  -1.3376  -1.3376  -1.3311  -0.6942   2.4668   2.4668
     2.6776   2.6776   3.1068   3.1068   3.4055   3.4055   3.8704   4.0774

          k = 1.0626 0.6135 0.0623 (  5102 PWs)   bands (ev):

   -33.6874 -33.6837 -17.0751 -17.0723 -15.0983 -15.0146 -14.9452 -14.8047
   -14.6671 -14.6128 -13.7638 -13.6066 -13.5876 -13.4492  -3.2053  -3.1244
    -1.4485  -1.4180  -1.3639  -1.3507  -1.1451  -0.8072   2.4488   2.5226
     2.6011   2.6243   2.9254   3.1217   3.1794   3.3106   4.0290   4.1235

          k = 0.8500 0.4908 0.1246 (  5107 PWs)   bands (ev):

   -33.6853 -33.6853 -17.1039 -17.0247 -15.1648 -15.0156 -14.9280 -14.7609
   -14.7158 -14.6198 -13.8053 -13.6683 -13.5138 -13.4068  -3.1208  -2.9458
    -1.5239  -1.3597  -1.3504  -1.2611  -0.9504  -0.8857   2.1921   2.3457
     2.5897   2.6672   2.6865   2.9490   3.0820   3.1884   4.1712   4.3129

          k = 1.0626-0.6135-0.2493 (  5094 PWs)   bands (ev):

   -33.6866 -33.6845 -17.0863 -17.0620 -15.0956 -14.9938 -14.9337 -14.8459
   -14.6550 -14.6291 -13.7282 -13.6045 -13.5803 -13.4829  -3.1730  -3.1640
    -1.4473  -1.4010  -1.3784  -1.3372  -1.0673  -0.8938   2.4848   2.4853
     2.5936   2.6106   2.9964   3.0939   3.1595   3.3046   4.0645   4.0806

          k = 0.8500-0.7362-0.1870 (  5108 PWs)   bands (ev):

   -33.6854 -33.6854 -17.0683 -17.0683 -15.0813 -15.0813 -14.8301 -14.8301
   -14.6954 -14.6954 -13.7020 -13.7020 -13.4830 -13.4830  -3.0700  -3.0700
    -1.4418  -1.4418  -1.3192  -1.3192  -0.9265  -0.9265   2.3337   2.3337
     2.6188   2.6188   2.8375   2.8375   3.1775   3.1775   4.2068   4.2068

          k = 0.0000 0.0000-0.5609 (  5076 PWs)   bands (ev):

   -33.6857 -33.6857 -17.0781 -17.0781 -14.9772 -14.9772 -14.9772 -14.9772
   -14.6065 -14.6065 -13.6009 -13.6009 -13.6009 -13.6009  -3.2326  -3.2326
    -1.4024  -1.4024  -1.4024  -1.4024  -1.0040  -1.0040   2.5732   2.5732
     2.5732   2.5732   3.2498   3.2498   3.2498   3.2498   3.9688   3.9688

     highest occupied level (ev):     4.4900

!    total energy              =    -367.43036925 Ry
     Harris-Foulkes estimate   =    -367.43036927 Ry
     estimated scf accuracy    <       0.00000003 Ry

     The total energy is the sum of the following terms:

     one-electron contribution =    -148.01531203 Ry
     hartree contribution      =     103.39912278 Ry
     xc contribution           =     -75.26823254 Ry
     ewald contribution        =    -247.54594746 Ry

     convergence has been achieved in   6 iterations

     Forces acting on atoms (cartesian axes, Ry/au):

     atom    1 type  1   force =    -0.00000000    0.00000000    0.00000000
     atom    2 type  1   force =     0.00000000    0.00000000   -0.00000000
     atom    3 type  2   force =    -0.00000000    0.00000000    0.00000000
     atom    4 type  2   force =     0.00000000    0.00000000    0.00000000
     atom    5 type  3   force =    -0.00009416    0.00016309    0.00000000
     atom    6 type  3   force =     0.00018832   -0.00000000    0.00000000
     atom    7 type  3   force =    -0.00009416   -0.00016309   -0.00000000
     atom    8 type  3   force =    -0.00018832    0.00000000   -0.00000000
     atom    9 type  3   force =     0.00009416    0.00016309    0.00000000
     atom   10 type  3   force =     0.00009416   -0.00016309   -0.00000000

     Total force =     0.000461     Total SCF correction =     0.000555
     SCF correction compared to forces is large: reduce conv_thr to get better values


     Computing stress (Cartesian axis) and pressure

          total   stress  (Ry/bohr**3)                   (kbar)     P=   -1.06
  -0.00001049   0.00000000  -0.00000000         -1.54      0.00     -0.00
   0.00000000  -0.00001049  -0.00000000          0.00     -1.54     -0.00
  -0.00000000  -0.00000000  -0.00000055         -0.00     -0.00     -0.08


     number of scf cycles    =   4
     number of bfgs steps    =   2

     enthalpy old            =    -367.4303641879 Ry
     enthalpy new            =    -367.4303692507 Ry

     CASE: enthalpy_new < enthalpy_old

     new trust radius        =       0.0007884388 bohr
     new conv_thr            =       0.0000001000 Ry

     new unit-cell volume =    854.17402 a.u.^3 (   126.57553 Ang^3 )
     density =      2.62612 g/cm^3

CELL_PARAMETERS (alat= 12.16200000)
   0.392093264  -0.226375151   0.891583403
  -0.000000000   0.452750303   0.891583403
  -0.392093264  -0.226375151   0.891583403

ATOMIC_POSITIONS (crystal)
Ca       0.500000000   0.500000000   0.500000000
Ca       0.000000000   0.000000000  -0.000000000
C        0.250000000   0.250000000   0.250000000
C        0.750000000   0.750000000   0.750000000
O        0.506969730   0.993030270   0.250000000
O        0.993030270   0.250000000   0.506969730
O        0.250000000   0.506969730   0.993030270
O        0.006969730   0.750000000   0.493030270
O        0.750000000   0.493030270   0.006969730
O        0.493030270   0.006969730   0.750000000



     Writing output data file CCO_k.save/
     NEW-OLD atomic charge density approx. for the potential

     Check: negative core charge=   -0.000003
     extrapolated charge   63.99534, renormalised to   64.00000

     total cpu time spent up to now is      246.5 secs

     Self-consistent Calculation

     iteration #  1     ecut=    50.00 Ry     beta= 0.70
     CG style diagonalization
     ethr =  1.00E-06,  avg # of iterations =  2.0

     Threshold (ethr) on eigenvalues was too large:
     Diagonalizing with lowered threshold

     CG style diagonalization
     ethr =  1.61E-09,  avg # of iterations =  4.1

     total cpu time spent up to now is      263.2 secs

     total energy              =    -367.43036906 Ry
     Harris-Foulkes estimate   =    -367.43870668 Ry
     estimated scf accuracy    <       0.00000176 Ry

     iteration #  2     ecut=    50.00 Ry     beta= 0.70
     CG style diagonalization
     ethr =  2.74E-09,  avg # of iterations =  4.8

     total cpu time spent up to now is      276.1 secs

     total energy              =    -367.43037064 Ry
     Harris-Foulkes estimate   =    -367.43037205 Ry
     estimated scf accuracy    <       0.00000350 Ry

     iteration #  3     ecut=    50.00 Ry     beta= 0.70
     CG style diagonalization
     ethr =  2.74E-09,  avg # of iterations =  3.7

     total cpu time spent up to now is      286.0 secs

     total energy              =    -367.43037088 Ry
     Harris-Foulkes estimate   =    -367.43037097 Ry
     estimated scf accuracy    <       0.00000026 Ry

     iteration #  4     ecut=    50.00 Ry     beta= 0.70
     CG style diagonalization
     ethr =  4.13E-10,  avg # of iterations =  3.2

     total cpu time spent up to now is      295.1 secs

     End of self-consistent calculation

          k = 0.0000 0.0000 0.0000 (  5161 PWs)   bands (ev):

   -33.6902 -33.6776 -17.0814 -17.0716 -15.1231 -15.1231 -14.7559 -14.7559
   -14.6626 -14.5544 -13.9034 -13.9034 -13.3697 -13.3697  -3.3117  -3.0383
    -1.6893  -1.5318  -1.5318  -1.2719  -1.2719  -0.3991   2.3584   2.3584
     2.7918   2.7918   2.9639   2.9639   3.5785   3.5785   3.7781   4.2056

          k =-0.2125-0.1227 0.0623 (  5110 PWs)   bands (ev):

   -33.6892 -33.6783 -17.0904 -17.0540 -15.1216 -15.0470 -14.8544 -14.7537
   -14.6891 -14.6517 -13.8469 -13.7174 -13.4732 -13.3903  -3.2065  -3.0491
    -1.5981  -1.4890  -1.4452  -1.3122  -1.2598  -0.5097   2.4070   2.4695
     2.6879   2.7261   2.8003   2.8558   3.4283   3.4539   3.9907   4.2148

          k =-0.4251-0.2454 0.1246 (  5093 PWs)   bands (ev):

   -33.6867 -33.6804 -17.0992 -17.0248 -15.1110 -15.0042 -14.9873 -14.8319
   -14.6647 -14.6469 -13.7292 -13.6122 -13.5523 -13.4563  -3.0212  -3.0190
    -1.5371  -1.4130  -1.2742  -1.2689  -1.2027  -0.7063   2.2893   2.3645
     2.5743   2.5975   2.7244   2.8300   3.2025   3.2362   4.2472   4.2622

          k = 0.6376 0.3681-0.1869 (  5096 PWs)   bands (ev):

   -33.6834 -33.6834 -17.0583 -17.0583 -15.0112 -15.0112 -14.9973 -14.9973
   -14.6427 -14.6427 -13.5872 -13.5872 -13.5708 -13.5708  -2.9589  -2.9589
    -1.4981  -1.4981  -1.2258  -1.2258  -0.9143  -0.9143   2.1620   2.1620
     2.5472   2.5472   2.8446   2.8446   3.1060   3.1060   4.3164   4.3164

          k =-0.2125 0.1227 0.1246 (  5105 PWs)   bands (ev):

   -33.6890 -33.6785 -17.0945 -17.0508 -15.0842 -15.0829 -14.8184 -14.7636
   -14.7045 -14.6776 -13.7829 -13.7563 -13.4448 -13.4292  -3.1974  -3.0665
    -1.5626  -1.4778  -1.4680  -1.3114  -1.2517  -0.5328   2.4081   2.4680
     2.6678   2.6912   2.8277   2.9058   3.3664   3.4904   3.9954   4.2003

          k =-0.4251 0.0000 0.1869 (  5106 PWs)   bands (ev):

   -33.6872 -33.6800 -17.1080 -17.0225 -15.1110 -15.0673 -14.8678 -14.8101
[...]
     c_bands:  5 eigenvalues not converged
     c_bands:  3 eigenvalues not converged
     c_bands:  4 eigenvalues not converged
     c_bands:  5 eigenvalues not converged
     c_bands:  3 eigenvalues not converged
     c_bands:  4 eigenvalues not converged
     c_bands:  1 eigenvalues not converged
     c_bands:  2 eigenvalues not converged
     c_bands:  3 eigenvalues not converged
     c_bands:  4 eigenvalues not converged
     c_bands:  4 eigenvalues not converged
     c_bands:  3 eigenvalues not converged
     c_bands:  5 eigenvalues not converged
     c_bands:  5 eigenvalues not converged
     c_bands:  1 eigenvalues not converged
     c_bands:  3 eigenvalues not converged
     c_bands:  5 eigenvalues not converged
     c_bands:  4 eigenvalues not converged
     ethr =  1.00E-06,  avg # of iterations = 12.8

     total cpu time spent up to now is      400.1 secs

     total energy              =    -366.72813743 Ry
     Harris-Foulkes estimate   =    -367.90357216 Ry
     estimated scf accuracy    <       1.68791633 Ry

     iteration #  2     ecut=    50.00 Ry     beta= 0.70
     CG style diagonalization
     ethr =  2.64E-03,  avg # of iterations =  4.3

     total cpu time spent up to now is      411.5 secs

     total energy              =    -367.11739513 Ry
     Harris-Foulkes estimate   =    -367.87709256 Ry
     estimated scf accuracy    <       1.55073901 Ry

     iteration #  3     ecut=    50.00 Ry     beta= 0.70
     CG style diagonalization
     ethr =  2.42E-03,  avg # of iterations =  3.8

     total cpu time spent up to now is      421.6 secs

     total energy              =    -367.41884349 Ry
     Harris-Foulkes estimate   =    -367.42138775 Ry
     estimated scf accuracy    <       0.01234968 Ry

     iteration #  4     ecut=    50.00 Ry     beta= 0.70
     CG style diagonalization
     ethr =  1.93E-05,  avg # of iterations =  4.3

     total cpu time spent up to now is      433.0 secs

     total energy              =    -367.42993837 Ry
     Harris-Foulkes estimate   =    -367.43089922 Ry
     estimated scf accuracy    <       0.00257067 Ry

     iteration #  5     ecut=    50.00 Ry     beta= 0.70
     CG style diagonalization
     ethr =  4.02E-06,  avg # of iterations =  3.5

     total cpu time spent up to now is      442.4 secs

     total energy              =    -367.43032602 Ry
     Harris-Foulkes estimate   =    -367.43034161 Ry
     estimated scf accuracy    <       0.00011277 Ry

     iteration #  6     ecut=    50.00 Ry     beta= 0.70
     CG style diagonalization
     ethr =  1.76E-07,  avg # of iterations =  4.0

     total cpu time spent up to now is      453.2 secs

     total energy              =    -367.43035689 Ry
     Harris-Foulkes estimate   =    -367.43035994 Ry
     estimated scf accuracy    <       0.00000685 Ry

     iteration #  7     ecut=    50.00 Ry     beta= 0.70
     CG style diagonalization
     ethr =  1.07E-08,  avg # of iterations =  4.3

     total cpu time spent up to now is      464.7 secs

     total energy              =    -367.43036023 Ry
     Harris-Foulkes estimate   =    -367.43036155 Ry
     estimated scf accuracy    <       0.00000320 Ry

     iteration #  8     ecut=    50.00 Ry     beta= 0.70
     CG style diagonalization
     ethr =  5.00E-09,  avg # of iterations =  3.6

     total cpu time spent up to now is      474.3 secs

     total energy              =    -367.43036065 Ry
     Harris-Foulkes estimate   =    -367.43036072 Ry
     estimated scf accuracy    <       0.00000014 Ry

     iteration #  9     ecut=    50.00 Ry     beta= 0.70
     CG style diagonalization
     ethr =  2.18E-10,  avg # of iterations =  4.0

     total cpu time spent up to now is      485.0 secs

     End of self-consistent calculation

          k = 0.0000 0.0000 0.0000 (  5161 PWs)   bands (ev):

   -33.6871 -33.6745 -17.0824 -17.0725 -15.1210 -15.1210 -14.7530 -14.7530
   -14.6595 -14.5514 -13.9034 -13.9034 -13.3689 -13.3689  -3.3105  -3.0368
    -1.6896  -1.5313  -1.5313  -1.2711  -1.2711  -0.3997   2.3591   2.3591
     2.7935   2.7935   2.9654   2.9654   3.5792   3.5792   3.7791   4.2067

          k =-0.2126-0.1227 0.0623 (  5108 PWs)   bands (ev):

   -33.6862 -33.6752 -17.0913 -17.0550 -15.1196 -15.0448 -14.8519 -14.7509
   -14.6861 -14.6488 -13.8467 -13.7167 -13.4725 -13.3895  -3.2053  -3.0476
    -1.5982  -1.4885  -1.4447  -1.3115  -1.2590  -0.5103   2.4077   2.4703
     2.6893   2.7274   2.8017   2.8571   3.4289   3.4545   3.9920   4.2161

          k =-0.4252-0.2455 0.1246 (  5093 PWs)   bands (ev):

   -33.6836 -33.6773 -17.1001 -17.0258 -15.1090 -15.0021 -14.9851 -14.8294
   -14.6618 -14.6441 -13.7286 -13.6116 -13.5514 -13.4554  -3.0197  -3.0174
    -1.5366  -1.4124  -1.2735  -1.2680  -1.2027  -0.7067   2.2903   2.3655
     2.5756   2.5988   2.7251   2.8307   3.2030   3.2367   4.2487   4.2637

          k = 0.6377 0.3682-0.1869 (  5096 PWs)   bands (ev):

   -33.6804 -33.6804 -17.0591 -17.0591 -15.0091 -15.0091 -14.9953 -14.9953
   -14.6399 -14.6399 -13.5863 -13.5863 -13.5701 -13.5701  -2.9573  -2.9573
    -1.4975  -1.4975  -1.2250  -1.2250  -0.9145  -0.9145   2.1628   2.1628
     2.5485   2.5485   2.8452   2.8452   3.1064   3.1064   4.3180   4.3180

          k =-0.2126 0.1227 0.1246 (  5103 PWs)   bands (ev):

   -33.6859 -33.6755 -17.0954 -17.0518 -15.0822 -15.0808 -14.8159 -14.7608
   -14.7018 -14.6745 -13.7825 -13.7557 -13.4440 -13.4284  -3.1961  -3.0650
    -1.5627  -1.4772  -1.4674  -1.3107  -1.2509  -0.5334   2.4088   2.4689
     2.6691   2.6927   2.8290   2.9071   3.3671   3.4909   3.9966   4.2015

          k =-0.4252 0.0000 0.1869 (  5102 PWs)   bands (ev):

   -33.6842 -33.6769 -17.1088 -17.0235 -15.1090 -15.0653 -14.8654 -14.8077
   -14.6799 -14.6721 -13.7299 -13.7016 -13.4780 -13.4556  -3.0540  -3.0475
    -1.5057  -1.4080  -1.3928  -1.2355  -1.2180  -0.6821   2.3368   2.4395
     2.5836   2.5948   2.7177   2.8620   3.1639   3.3519   4.2174   4.2294

          k = 0.6377 0.6137-0.1246 (  5093 PWs)   bands (ev):

   -33.6814 -33.6793 -17.0727 -17.0477 -15.1118 -15.0166 -14.9531 -14.8795
   -14.6564 -14.6457 -13.7366 -13.6152 -13.5379 -13.4458  -2.9602  -2.9535
    -1.4880  -1.4716  -1.2993  -1.2139  -0.9682  -0.8253   2.1699   2.2349
     2.4885   2.5192   2.7364   2.8181   3.1134   3.2143   4.3241   4.3394

          k = 0.4252 0.4909-0.0623 (  5095 PWs)   bands (ev):

   -33.6822 -33.6785 -17.1029 -17.0134 -15.1448 -15.0126 -14.9994 -14.7980
   -14.6802 -14.6144 -13.7860 -13.6105 -13.5372 -13.4195  -3.0018  -2.9083
    -1.5546  -1.3850  -1.2819  -1.2134  -1.0553  -0.7898   2.1180   2.3183
     2.4400   2.5424   2.6959   2.8427   3.1549   3.2094   4.2761   4.3899

          k = 0.2126 0.3682 0.0000 (  5097 PWs)   bands (ev):

   -33.6847 -33.6763 -17.1141 -17.0155 -15.1066 -15.0754 -14.8847 -14.7785
   -14.6987 -14.6585 -13.7238 -13.7178 -13.4650 -13.4581  -3.0490  -3.0414
    -1.5404  -1.3977  -1.3462  -1.3043  -1.2297  -0.6474   2.3439   2.5006
     2.5294   2.6444   2.6475   2.8329   3.2336   3.3510   4.2226   4.2339

          k =-0.4252 0.2455 0.2492 (  5090 PWs)   bands (ev):

   -33.6836 -33.6773 -17.1393 -16.9857 -15.1478 -15.1215 -14.7909 -14.7322
   -14.7111 -14.6815 -13.7937 -13.7350 -13.4528 -13.4125  -3.1092  -2.9352
    -1.5359  -1.3879  -1.3452  -1.2108  -1.1193  -0.7653   2.1516   2.3834
     2.5022   2.7124   2.7197   2.9666   2.9952   3.3541   4.1675   4.3337

          k = 0.6377 0.8591-0.0623 (  5108 PWs)   bands (ev):

   -33.6822 -33.6785 -17.1271 -16.9916 -15.1818 -15.0916 -14.8375 -14.7643
   -14.6924 -14.6347 -13.8660 -13.6832 -13.4733 -13.3754  -3.0546  -2.8580
    -1.5274  -1.4222  -1.3134  -1.1955  -0.9651  -0.8154   2.0279   2.2690
     2.4845   2.6364   2.6971   2.7461   3.1216   3.2752   4.2236   4.4352

          k = 0.4252 0.7364 0.0000 (  5077 PWs)   bands (ev):

   -33.6803 -33.6803 -17.0595 -17.0592 -15.1090 -15.0742 -14.9077 -14.8189
   -14.7075 -14.6496 -13.7286 -13.7217 -13.4468 -13.4436  -2.9213  -2.9208
    -1.5193  -1.4090  -1.3516  -1.1952  -0.8852  -0.8389   2.1373   2.1489
     2.4657   2.4833   2.6656   2.7023   3.1876   3.2311   4.3762   4.3798

          k = 0.6377-0.3682-0.3738 (  5104 PWs)   bands (ev):

   -33.6824 -33.6783 -17.1605 -16.9497 -15.2085 -15.2058 -14.7355 -14.7086
   -14.6862 -14.5601 -13.9427 -13.8336 -13.3838 -13.3435  -3.1279  -2.7800
    -1.5909  -1.3757  -1.2501  -1.1825  -0.9630  -0.8609   1.9208   2.2406
     2.5151   2.6946   2.7373   2.7495   3.1382   3.2612   4.1317   4.4934

          k = 0.0000-0.0000 0.1869 (  5119 PWs)   bands (ev):

   -33.6863 -33.6754 -17.0824 -17.0738 -15.1036 -15.1036 -14.7909 -14.7909
   -14.6513 -14.5577 -13.8545 -13.8545 -13.3976 -13.3976  -3.3041  -3.0740
    -1.5891  -1.5138  -1.5138  -1.2887  -1.2887  -0.4775   2.3887   2.3887
     2.7599   2.7599   3.0065   3.0065   3.5314   3.5314   3.8040   4.1704

          k =-0.2126-0.1227 0.2492 (  5115 PWs)   bands (ev):

   -33.6849 -33.6765 -17.0838 -17.0645 -15.1218 -14.9959 -14.9453 -14.7351
   -14.6908 -14.6150 -13.8364 -13.6538 -13.5334 -13.3980  -3.2110  -3.0747
    -1.5189  -1.4742  -1.3733  -1.3039  -1.2975  -0.6067   2.4206   2.4911
     2.6635   2.6958   2.8125   2.9666   3.3390   3.4065   4.0025   4.1841

          k = 0.8503 0.4909-0.0623 (  5115 PWs)   bands (ev):

   -33.6823 -33.6786 -17.0666 -17.0637 -15.1081 -15.0230 -14.9560 -14.8220
   -14.6784 -14.6284 -13.7440 -13.5990 -13.5795 -13.4355  -3.0768  -2.9736
    -1.4736  -1.4635  -1.3234  -1.2592  -1.0735  -0.7705   2.2738   2.3650
     2.5448   2.6100   2.7365   2.9265   3.1022   3.2072   4.2154   4.2851

          k = 0.6377 0.3682 0.0000 (  5112 PWs)   bands (ev):

   -33.6814 -33.6793 -17.1106 -17.0056 -15.1133 -15.1082 -14.8817 -14.8662
   -14.6791 -14.6004 -13.7392 -13.6863 -13.4713 -13.4574  -3.0433  -2.8697
    -1.5708  -1.3797  -1.2928  -1.1842  -0.9722  -0.8618   2.0451   2.2605
     2.4563   2.6509   2.7341   2.9889   2.9991   3.1722   4.2328   4.4017

          k = 0.4252 0.2455 0.0623 (  5082 PWs)   bands (ev):

   -33.6841 -33.6768 -17.1275 -16.9957 -15.1356 -15.0777 -14.8947 -14.7601
   -14.7012 -14.6465 -13.7840 -13.6339 -13.5262 -13.4211  -3.0670  -2.9671
    -1.5489  -1.3875  -1.3124  -1.2399  -1.2025  -0.7091   2.2024   2.4309
     2.5106   2.6474   2.6740   2.9264   3.1154   3.3281   4.2056   4.3068

          k =-0.2126 0.1227 0.3115 (  5098 PWs)   bands (ev):

   -33.6843 -33.6771 -17.0946 -17.0555 -15.0994 -15.0107 -14.9058 -14.7825
   -14.6781 -14.6517 -13.7577 -13.6776 -13.5081 -13.4520  -3.1843  -3.1169
    -1.4815  -1.4432  -1.4044  -1.2785  -1.2785  -0.6705   2.4320   2.4857
     2.6170   2.6644   2.8865   3.0274   3.2397   3.4345   4.0215   4.1480

          k = 0.8503 0.7364 0.0000 (  5096 PWs)   bands (ev):

   -33.6826 -33.6784 -17.0934 -17.0443 -15.1017 -15.0579 -14.8577 -14.7980
   -14.7163 -14.6616 -13.7218 -13.6897 -13.4894 -13.4646  -3.0636  -3.0598
    -1.4476  -1.4258  -1.3966  -1.2606  -1.0827  -0.7817   2.3284   2.3724
     2.5899   2.6388   2.7518   2.9275   3.0781   3.2967   4.2095   4.2190

          k = 0.6377 0.6137 0.0623 (  5099 PWs)   bands (ev):

   -33.6804 -33.6803 -17.0847 -17.0388 -15.1174 -15.0492 -14.9256 -14.7993
   -14.6914 -14.6663 -13.7605 -13.6509 -13.5117 -13.4234  -3.0104  -2.9062
    -1.5271  -1.3817  -1.3554  -1.2182  -0.8872  -0.8696   2.1188   2.2139
     2.4950   2.5970   2.6988   2.8016   3.1270   3.1949   4.2856   4.3751

          k = 0.4252 0.4909 0.1246 (  5094 PWs)   bands (ev):

   -33.6824 -33.6783 -17.1228 -16.9927 -15.1829 -15.0578 -14.9341 -14.7317
   -14.7030 -14.6070 -13.8636 -13.6092 -13.5379 -13.3763  -3.0386  -2.8708
    -1.5604  -1.3741  -1.2726  -1.2329  -1.0368  -0.7895   2.0573   2.3312
     2.4213   2.5974   2.6759   2.8361   3.1282   3.2559   4.2381   4.4256

          k = 0.8503-0.4909-0.3115 (  5111 PWs)   bands (ev):

   -33.6823 -33.6787 -17.1319 -16.9978 -15.1771 -15.0746 -14.8092 -14.7487
   -14.7229 -14.6338 -13.8049 -13.7485 -13.4443 -13.4104  -3.1294  -2.9284
    -1.5388  -1.3801  -1.2984  -1.2475  -1.0139  -0.8492   2.1500   2.3326
     2.5746   2.7171   2.7479   2.8554   3.0512   3.2952   4.1551   4.3360

          k = 0.6377-0.6137-0.2492 (  5104 PWs)   bands (ev):

   -33.6814 -33.6793 -17.1136 -17.0090 -15.1358 -15.1105 -14.8293 -14.7384
   -14.7084 -14.6990 -13.7924 -13.7264 -13.4439 -13.4123  -3.0447  -2.8714
    -1.5282  -1.4205  -1.2836  -1.2417  -0.9095  -0.8419   2.0494   2.2281
     2.5349   2.6377   2.6764   2.7326   3.1431   3.2267   4.2421   4.4163

          k = 0.4252-0.7364-0.1869 (  5104 PWs)   bands (ev):

   -33.6803 -33.6803 -17.0594 -17.0594 -15.0938 -15.0938 -14.8667 -14.8667
   -14.6730 -14.6730 -13.7252 -13.7252 -13.4452 -13.4452  -2.9211  -2.9211
    -1.4829  -1.4829  -1.2569  -1.2569  -0.8598  -0.8598   2.1430   2.1430
     2.4747   2.4747   2.6830   2.6830   3.2102   3.2102   4.3780   4.3780

          k = 0.6377-0.3682-0.1869 (  5096 PWs)   bands (ev):

   -33.6821 -33.6786 -17.1473 -16.9649 -15.1839 -15.1805 -14.7737 -14.7425
   -14.7063 -14.5712 -13.8797 -13.7896 -13.4063 -13.3729  -3.1053  -2.8043
    -1.5925  -1.3561  -1.2437  -1.2181  -0.9742  -0.8514   1.9546   2.2656
     2.4584   2.7052   2.7249   2.8293   3.1066   3.2285   4.1613   4.4677

          k = 0.0000-0.0000 0.3738 (  5106 PWs)   bands (ev):

   -33.6840 -33.6777 -17.0819 -17.0769 -15.0527 -15.0527 -14.8781 -14.8781
   -14.6296 -14.5756 -13.7371 -13.7371 -13.4792 -13.4792  -3.2802  -3.1542
    -1.4661  -1.4661  -1.3364  -1.3364  -1.3319  -0.6954   2.4686   2.4686
     2.6802   2.6802   3.1091   3.1091   3.4072   3.4072   3.8728   4.0798

          k = 1.0629 0.6137 0.0623 (  5098 PWs)   bands (ev):

   -33.6825 -33.6789 -17.0770 -17.0742 -15.0949 -15.0111 -14.9415 -14.8006
   -14.6625 -14.6082 -13.7634 -13.6058 -13.5865 -13.4479  -3.2028  -3.1217
    -1.4473  -1.4172  -1.3628  -1.3494  -1.1455  -0.8082   2.4509   2.5247
     2.6034   2.6267   2.9276   3.1234   3.1811   3.3121   4.0317   4.1263

          k = 0.8503 0.4909 0.1246 (  5107 PWs)   bands (ev):

   -33.6805 -33.6805 -17.1056 -17.0266 -15.1617 -15.0123 -14.9245 -14.7567
   -14.7112 -14.6153 -13.8052 -13.6672 -13.5124 -13.4053  -3.1180  -2.9427
    -1.5226  -1.3586  -1.3497  -1.2598  -0.9508  -0.8862   2.1940   2.3476
     2.5915   2.6696   2.6885   2.9506   3.0832   3.1896   4.1743   4.3161

          k = 1.0629-0.6137-0.2492 (  5086 PWs)   bands (ev):

   -33.6817 -33.6796 -17.0882 -17.0639 -15.0922 -14.9903 -14.9300 -14.8419
   -14.6504 -14.6244 -13.7278 -13.6036 -13.5792 -13.4816  -3.1704  -3.1613
    -1.4461  -1.3999  -1.3773  -1.3361  -1.0680  -0.8947   2.4869   2.4876
     2.5958   2.6128   2.9984   3.0959   3.1613   3.3061   4.0673   4.0833

          k = 0.8503-0.7364-0.1869 (  5100 PWs)   bands (ev):

   -33.6805 -33.6805 -17.0702 -17.0702 -15.0781 -15.0781 -14.8263 -14.8263
   -14.6909 -14.6909 -13.7013 -13.7013 -13.4816 -13.4816  -3.0671  -3.0671
    -1.4406  -1.4406  -1.3183  -1.3183  -0.9270  -0.9270   2.3358   2.3358
     2.6209   2.6209   2.8394   2.8394   3.1788   3.1788   4.2099   4.2099

          k = 0.0000 0.0000-0.5607 (  5076 PWs)   bands (ev):

   -33.6808 -33.6808 -17.0800 -17.0800 -14.9736 -14.9736 -14.9736 -14.9736
   -14.6017 -14.6017 -13.6001 -13.6001 -13.6001 -13.6001  -3.2301  -3.2301
    -1.4012  -1.4012  -1.4012  -1.4012  -1.0050  -1.0050   2.5754   2.5754
     2.5754   2.5754   3.2519   3.2519   3.2519   3.2519   3.9712   3.9712

     highest occupied level (ev):     4.4934

!    total energy              =    -367.43036069 Ry
     Harris-Foulkes estimate   =    -367.43036069 Ry
     estimated scf accuracy    <          8.4E-09 Ry

     The total energy is the sum of the following terms:

     one-electron contribution =    -148.01900662 Ry
     hartree contribution      =     103.40780493 Ry
     xc contribution           =     -75.27127428 Ry
     ewald contribution        =    -247.54788472 Ry

     convergence has been achieved in   9 iterations

     Forces acting on atoms (cartesian axes, Ry/au):

     atom    1 type  1   force =     0.00000000    0.00000000    0.00000000
     atom    2 type  1   force =     0.00000000    0.00000000    0.00000000
     atom    3 type  2   force =     0.00000000    0.00000000   -0.00000000
     atom    4 type  2   force =    -0.00000000    0.00000000   -0.00000000
     atom    5 type  3   force =     0.00015278   -0.00026462   -0.00000000
     atom    6 type  3   force =    -0.00030556    0.00000000    0.00000000
     atom    7 type  3   force =     0.00015278    0.00026462    0.00000000
     atom    8 type  3   force =     0.00030556    0.00000000   -0.00000000
     atom    9 type  3   force =    -0.00015278   -0.00026462   -0.00000000
     atom   10 type  3   force =    -0.00015278    0.00026462    0.00000000

     Total force =     0.000748     Total SCF correction =     0.000056


     Computing stress (Cartesian axis) and pressure

          total   stress  (Ry/bohr**3)                   (kbar)     P=   -0.27
  -0.00000298   0.00000000  -0.00000000         -0.44      0.00     -0.00
   0.00000000  -0.00000298  -0.00000000          0.00     -0.44     -0.00
  -0.00000000  -0.00000000   0.00000048         -0.00     -0.00      0.07


     Writing output data file CCO_k.save/
 
     init_run     :      6.66s CPU      8.42s WALL (       2 calls)
     electrons    :    414.22s CPU    467.64s WALL (       7 calls)
     update_pot   :      0.44s CPU      0.47s WALL (       5 calls)
     forces       :      2.27s CPU      2.50s WALL (       7 calls)
     stress       :      4.53s CPU      4.69s WALL (       7 calls)

     Called by init_run:
     wfcinit      :      6.05s CPU      7.24s WALL (       2 calls)
     potinit      :      0.06s CPU      0.14s WALL (       2 calls)
     hinit0       :      0.47s CPU      0.74s WALL (       2 calls)

     Called by electrons:
     c_bands      :    384.53s CPU    435.16s WALL (      45 calls)
     sum_band     :     28.58s CPU     30.67s WALL (      45 calls)
     v_of_rho     :      0.70s CPU      0.77s WALL (      50 calls)
     newd         :      0.40s CPU      0.50s WALL (      50 calls)
     mix_rho      :      0.07s CPU      0.12s WALL (      45 calls)

     Called by c_bands:
     init_us_2    :      0.86s CPU      1.03s WALL (    3392 calls)
     ccgdiagg     :    312.79s CPU    347.85s WALL (    1449 calls)
     wfcrot       :     76.77s CPU     91.21s WALL (    1225 calls)

     Called by sum_band:
     sum_band:bec :      0.36s CPU      0.41s WALL (    1440 calls)
     addusdens    :      0.33s CPU      0.39s WALL (      45 calls)

     Called by *cgdiagg:
     h_psi        :    274.33s CPU    299.50s WALL (  142372 calls)
     s_psi        :     19.23s CPU     22.39s WALL (  283519 calls)
     cdiaghg      :     25.65s CPU     36.24s WALL (    1225 calls)

     Called by h_psi:
     h_psi:pot    :    270.00s CPU    294.32s WALL (  142372 calls)
     h_psi:calbec :     26.79s CPU     29.63s WALL (  142372 calls)
     vloc_psi     :    225.04s CPU    244.81s WALL (  142372 calls)
     add_vuspsi   :     13.06s CPU     14.69s WALL (  142372 calls)
     hs_1psi      :    247.16s CPU    271.25s WALL (  141147 calls)
     s_1psi       :     30.36s CPU     35.23s WALL (  141147 calls)

     General routines
     calbec       :     39.43s CPU     44.97s WALL (  286079 calls)
     fft          :      0.78s CPU      0.92s WALL (     732 calls)
     ffts         :      0.05s CPU      0.05s WALL (      45 calls)
     fftw         :    237.13s CPU    257.14s WALL (  409334 calls)
 
     Parallel routines
     fft_scatt_xy :     12.44s CPU     13.47s WALL (  410111 calls)
     fft_scatt_yz :    169.30s CPU    183.75s WALL (  410111 calls)
 
     PWSCF        :   7m10.22s CPU   8m 9.06s WALL

 
   This run was terminated on:   6:39:29  24Apr2022            

=------------------------------------------------------------------------------=
   JOB DONE.
=------------------------------------------------------------------------------=
