
     Program PWSCF v.6.4.1 starts on  3May2022 at 20:59:23 

     This program is part of the open-source Quantum ESPRESSO suite
     for quantum simulation of materials; please cite
         "P. Giannozzi et al., J. Phys.:Condens. Matter 21 395502 (2009);
         "P. Giannozzi et al., J. Phys.:Condens. Matter 29 465901 (2017);
          URL http://www.quantum-espresso.org", 
     in publications or presentations arising from this work. More details at
     http://www.quantum-espresso.org/quote

     Parallel version (MPI & OpenMP), running on     300 processor cores
     Number of MPI processes:               300
     Threads/MPI process:                     1

     MPI processes distributed on     5 nodes
     R & G space division:  proc/nbgrp/npool/nimage =     300
     Waiting for input...
     Reading input from standard input

     Current dimensions of program PWSCF are:
     Max number of different atomic species (ntypx) = 10
     Max number of k-points (npk) =  40000
     Max angular momentum in pseudopotentials (lmaxx) =  3

     Subspace diagonalization in iterative solution of the eigenvalue problem:
     one sub-group per band group will be used
     scalapack distributed-memory algorithm (size of sub-group: 12* 12 procs)

 
     Parallelization info
     --------------------
     sticks:   dense  smooth     PW     G-vecs:    dense   smooth      PW
     Min           6       6      1                  190      190      23
     Max           7       7      2                  200      200      34
     Sum        1981    1981    583                58383    58383    9257
 


     bravais-lattice index     =            5
     lattice parameter (alat)  =      12.0000  a.u.
     unit-cell volume          =    1221.8805 (a.u.)^3
     number of atoms/cell      =           10
     number of atomic types    =            3
     number of electrons       =        64.00
     number of Kohn-Sham states=           32
     kinetic-energy cutoff     =      50.0000  Ry
     charge density cutoff     =     200.0000  Ry
     convergence threshold     =      1.0E-05
     mixing beta               =       0.7000
     number of iterations used =            8  plain     mixing
     Exchange-correlation      = SLA  PW   PBE  PBE ( 1  4  3  4 0 0)
     nstep                     =           50


     celldm(1)=  12.000000  celldm(2)=   0.000000  celldm(3)=   0.000000
     celldm(4)=   0.500000  celldm(5)=   0.000000  celldm(6)=   0.000000

     crystal axes: (cart. coord. in units of alat)
               a(1) = (   0.500000  -0.288675   0.816497 )  
               a(2) = (   0.000000   0.577350   0.816497 )  
               a(3) = (  -0.500000  -0.288675   0.816497 )  

     reciprocal axes: (cart. coord. in units 2 pi/alat)
               b(1) = (  1.000000 -0.577350  0.408248 )  
               b(2) = (  0.000000  1.154701  0.408248 )  
               b(3) = ( -1.000000 -0.577350  0.408248 )  


     PseudoPot. # 1 for Ca read from file:
     ./Ca_PBE.UPF
     MD5 check sum: 403a4c14b9e4d4dfdc3024c9a3812218
     Pseudo is Ultrasoft + core correction, Zval = 10.0
     Generated by new atomic code, or converted to UPF format
     Using radial grid of  845 points,  6 beta functions with: 
                l(1) =   0
                l(2) =   0
                l(3) =   1
                l(4) =   1
                l(5) =   2
                l(6) =   2
     Q(r) pseudized with  8 coefficients,  rinner =    1.500   1.500   1.500
                                                       1.500   1.500

     PseudoPot. # 2 for C  read from file:
     ./C_PBE.UPF
     MD5 check sum: d1aef80898a10debaa0f26306b886e00
     Pseudo is Ultrasoft + core correction, Zval =  4.0
     Generated by new atomic code, or converted to UPF format
     Using radial grid of  721 points,  4 beta functions with: 
                l(1) =   0
                l(2) =   0
                l(3) =   1
                l(4) =   1
     Q(r) pseudized with  8 coefficients,  rinner =    1.100   1.100   1.100


     PseudoPot. # 3 for O  read from file:
     ./O_PBE.UPF
     MD5 check sum: 734c27235a0248c51dbae37a1fbe46ec
     Pseudo is Ultrasoft + core correction, Zval =  6.0
     Generated by new atomic code, or converted to UPF format
     Using radial grid of  737 points,  5 beta functions with: 
                l(1) =   0
                l(2) =   0
                l(3) =   1
                l(4) =   1
                l(5) =   2
     Q(r) pseudized with  8 coefficients,  rinner =    0.900   0.900   0.900
                                                       0.900   0.900

     atomic species   valence    mass     pseudopotential
        Ca            10.00    40.07800     Ca( 1.00)
        C              4.00    12.01070     C ( 1.00)
        O              6.00    16.00000     O ( 1.00)

     12 Sym. Ops., with inversion, found ( 6 have fractional translation)



   Cartesian axes

     site n.     atom                  positions (alat units)
         1           Ca  tau(   1) = (   0.0000000  -0.0000000   1.2247449  )
         2           Ca  tau(   2) = (   0.0000000   0.0000000   0.0000000  )
         3           C   tau(   3) = (   0.0000000  -0.0000000   0.6123724  )
         4           C   tau(   4) = (  -0.0000000  -0.0000000   1.8371173  )
         5           O   tau(   5) = (   0.1284501   0.3548681   1.4288690  )
         6           O   tau(   6) = (   0.2430998  -0.2886751   1.4288690  )
         7           O   tau(   7) = (  -0.3715499  -0.0661930   1.4288690  )
         8           O   tau(   8) = (  -0.2430998   0.2886751   1.0206207  )
         9           O   tau(   9) = (   0.3715499   0.0661930   1.0206207  )
        10           O   tau(  10) = (  -0.1284501  -0.3548681   1.0206207  )

     number of k points=   146

     Number of k-points >= 100: set verbosity='high' to print them.

     Dense  grid:    58383 G-vectors     FFT dimensions: (  60,  60,  60)

     Estimated max dynamical RAM per process >      15.80 MB

     Estimated total dynamical RAM >       4.63 GB
     Message from routine sym_rho_init:
     some processors have no G-vectors for symmetrization
     Message from routine sym_rho_init:
     some processors have no G-vectors for symmetrization
     Message from routine sym_rho_init:
     some processors have no G-vectors for symmetrization
     Message from routine sym_rho_init:
     some processors have no G-vectors for symmetrization
     Message from routine sym_rho_init:
     some processors have no G-vectors for symmetrization
     Message from routine sym_rho_init:
     some processors have no G-vectors for symmetrization
     Message from routine sym_rho_init:
     some processors have no G-vectors for symmetrization
     Message from routine sym_rho_init:
     some processors have no G-vectors for symmetrization
     Message from routine sym_rho_init:
     some processors have no G-vectors for symmetrization
     Message from routine sym_rho_init:
     some processors have no G-vectors for symmetrization
     Message from routine sym_rho_init:
     some processors have no G-vectors for symmetrization
     Message from routine sym_rho_init:
     some processors have no G-vectors for symmetrization
     Message from routine sym_rho_init:
     some processors have no G-vectors for symmetrization
     Message from routine sym_rho_init:
     some processors have no G-vectors for symmetrization
     Message from routine sym_rho_init:
     some processors have no G-vectors for symmetrization
     Message from routine sym_rho_init:
     some processors have no G-vectors for symmetrization
     Message from routine sym_rho_init:
     some processors have no G-vectors for symmetrization
     Message from routine sym_rho_init:
     some processors have no G-vectors for symmetrization
     Message from routine sym_rho_init:
     some processors have no G-vectors for symmetrization
     Message from routine sym_rho_init:
     some processors have no G-vectors for symmetrization
     Message from routine sym_rho_init:
     some processors have no G-vectors for symmetrization
     Message from routine sym_rho_init:
     some processors have no G-vectors for symmetrization
     Message from routine sym_rho_init:
     some processors have no G-vectors for symmetrization
     Message from routine sym_rho_init:
     some processors have no G-vectors for symmetrization
     Message from routine sym_rho_init:
     some processors have no G-vectors for symmetrization
     Message from routine sym_rho_init:
     some processors have no G-vectors for symmetrization
     Message from routine sym_rho_init:
     some processors have no G-vectors for symmetrization
     Message from routine sym_rho_init:
     some processors have no G-vectors for symmetrization
     Message from routine sym_rho_init:
     some processors have no G-vectors for symmetrization
     Message from routine sym_rho_init:
     some processors have no G-vectors for symmetrization
     Message from routine sym_rho_init:
     some processors have no G-vectors for symmetrization
     Message from routine sym_rho_init:
     some processors have no G-vectors for symmetrization
     Message from routine sym_rho_init:
     some processors have no G-vectors for symmetrization
     Message from routine sym_rho_init:
     some processors have no G-vectors for symmetrization
     Message from routine sym_rho_init:
     some processors have no G-vectors for symmetrization
     Message from routine sym_rho_init:
     some processors have no G-vectors for symmetrization
     Message from routine sym_rho_init:
     some processors have no G-vectors for symmetrization
     Message from routine sym_rho_init:
     some processors have no G-vectors for symmetrization
     Message from routine sym_rho_init:
     some processors have no G-vectors for symmetrization
     Message from routine sym_rho_init:
     some processors have no G-vectors for symmetrization
     Message from routine sym_rho_init:
     some processors have no G-vectors for symmetrization
     Message from routine sym_rho_init:
     some processors have no G-vectors for symmetrization
     Message from routine sym_rho_init:
     some processors have no G-vectors for symmetrization
     Message from routine sym_rho_init:
     some processors have no G-vectors for symmetrization
     Message from routine sym_rho_init:
     some processors have no G-vectors for symmetrization
     Message from routine sym_rho_init:
     some processors have no G-vectors for symmetrization
     Message from routine sym_rho_init:
     some processors have no G-vectors for symmetrization
     Message from routine sym_rho_init:
     some processors have no G-vectors for symmetrization
     Message from routine sym_rho_init:
     some processors have no G-vectors for symmetrization
     Message from routine sym_rho_init:
     some processors have no G-vectors for symmetrization
     Message from routine sym_rho_init:
     some processors have no G-vectors for symmetrization
     Message from routine sym_rho_init:
     some processors have no G-vectors for symmetrization
     Message from routine sym_rho_init:
     some processors have no G-vectors for symmetrization
     Message from routine sym_rho_init:
     some processors have no G-vectors for symmetrization
     Message from routine sym_rho_init:
     some processors have no G-vectors for symmetrization
     Message from routine sym_rho_init:
     some processors have no G-vectors for symmetrization
     Message from routine sym_rho_init:
     some processors have no G-vectors for symmetrization
     Message from routine sym_rho_init:
     some processors have no G-vectors for symmetrization
     Message from routine sym_rho_init:
     some processors have no G-vectors for symmetrization
     Message from routine sym_rho_init:
     some processors have no G-vectors for symmetrization
     Message from routine sym_rho_init:
     some processors have no G-vectors for symmetrization
     Message from routine sym_rho_init:
     some processors have no G-vectors for symmetrization
     Message from routine sym_rho_init:
     some processors have no G-vectors for symmetrization
     Message from routine sym_rho_init:
     some processors have no G-vectors for symmetrization
     Message from routine sym_rho_init:
     some processors have no G-vectors for symmetrization
     Message from routine sym_rho_init:
     some processors have no G-vectors for symmetrization
     Message from routine sym_rho_init:
     some processors have no G-vectors for symmetrization
     Message from routine sym_rho_init:
     some processors have no G-vectors for symmetrization
     Message from routine sym_rho_init:
     some processors have no G-vectors for symmetrization
     Message from routine sym_rho_init:
     some processors have no G-vectors for symmetrization
     Message from routine sym_rho_init:
     some processors have no G-vectors for symmetrization
     Message from routine sym_rho_init:
     some processors have no G-vectors for symmetrization
     Message from routine sym_rho_init:
     some processors have no G-vectors for symmetrization
     Message from routine sym_rho_init:
     some processors have no G-vectors for symmetrization
     Message from routine sym_rho_init:
     some processors have no G-vectors for symmetrization
     Message from routine sym_rho_init:
     some processors have no G-vectors for symmetrization
     Message from routine sym_rho_init:
     some processors have no G-vectors for symmetrization
     Message from routine sym_rho_init:
     some processors have no G-vectors for symmetrization
     Message from routine sym_rho_init:
     some processors have no G-vectors for symmetrization
     Message from routine sym_rho_init:
     some processors have no G-vectors for symmetrization
     Message from routine sym_rho_init:
     some processors have no G-vectors for symmetrization
     Message from routine sym_rho_init:
     some processors have no G-vectors for symmetrization
     Message from routine sym_rho_init:
     some processors have no G-vectors for symmetrization
     Message from routine sym_rho_init:
     some processors have no G-vectors for symmetrization
     Message from routine sym_rho_init:
     some processors have no G-vectors for symmetrization
     Message from routine sym_rho_init:
     some processors have no G-vectors for symmetrization
     Message from routine sym_rho_init:
     some processors have no G-vectors for symmetrization
     Message from routine sym_rho_init:
     some processors have no G-vectors for symmetrization
     Message from routine sym_rho_init:
     some processors have no G-vectors for symmetrization
     Message from routine sym_rho_init:
     some processors have no G-vectors for symmetrization
     Message from routine sym_rho_init:
     some processors have no G-vectors for symmetrization
     Message from routine sym_rho_init:
     some processors have no G-vectors for symmetrization
     Message from routine sym_rho_init:
     some processors have no G-vectors for symmetrization
     Message from routine sym_rho_init:
     some processors have no G-vectors for symmetrization
     Message from routine sym_rho_init:
     some processors have no G-vectors for symmetrization
     Message from routine sym_rho_init:
     some processors have no G-vectors for symmetrization
     Message from routine sym_rho_init:
     some processors have no G-vectors for symmetrization
     Message from routine sym_rho_init:
     some processors have no G-vectors for symmetrization
     Message from routine sym_rho_init:
     some processors have no G-vectors for symmetrization
     Message from routine sym_rho_init:
     some processors have no G-vectors for symmetrization
     Message from routine sym_rho_init:
     some processors have no G-vectors for symmetrization
     Message from routine sym_rho_init:
     some processors have no G-vectors for symmetrization
     Message from routine sym_rho_init:
     some processors have no G-vectors for symmetrization
     Message from routine sym_rho_init:
     some processors have no G-vectors for symmetrization
     Message from routine sym_rho_init:
     some processors have no G-vectors for symmetrization
     Message from routine sym_rho_init:
     some processors have no G-vectors for symmetrization
     Message from routine sym_rho_init:
     some processors have no G-vectors for symmetrization
     Message from routine sym_rho_init:
     some processors have no G-vectors for symmetrization
     Message from routine sym_rho_init:
     some processors have no G-vectors for symmetrization
     Message from routine sym_rho_init:
     some processors have no G-vectors for symmetrization
     Message from routine sym_rho_init:
     some processors have no G-vectors for symmetrization
     Message from routine sym_rho_init:
     some processors have no G-vectors for symmetrization
     Message from routine sym_rho_init:
     some processors have no G-vectors for symmetrization
     Message from routine sym_rho_init:
     some processors have no G-vectors for symmetrization
     Message from routine sym_rho_init:
     some processors have no G-vectors for symmetrization
     Message from routine sym_rho_init:
     some processors have no G-vectors for symmetrization
     Message from routine sym_rho_init:
     some processors have no G-vectors for symmetrization
     Message from routine sym_rho_init:
     some processors have no G-vectors for symmetrization
     Message from routine sym_rho_init:
     some processors have no G-vectors for symmetrization
     Message from routine sym_rho_init:
     some processors have no G-vectors for symmetrization
     Message from routine sym_rho_init:
     some processors have no G-vectors for symmetrization
     Message from routine sym_rho_init:
     some processors have no G-vectors for symmetrization
     Message from routine sym_rho_init:
     some processors have no G-vectors for symmetrization
     Message from routine sym_rho_init:
     some processors have no G-vectors for symmetrization
     Message from routine sym_rho_init:
     some processors have no G-vectors for symmetrization
     Message from routine sym_rho_init:
     some processors have no G-vectors for symmetrization
     Message from routine sym_rho_init:
     some processors have no G-vectors for symmetrization
     Message from routine sym_rho_init:
     some processors have no G-vectors for symmetrization
     Message from routine sym_rho_init:
     some processors have no G-vectors for symmetrization
     Message from routine sym_rho_init:
     some processors have no G-vectors for symmetrization
     Message from routine sym_rho_init:
     some processors have no G-vectors for symmetrization
     Message from routine sym_rho_init:
     some processors have no G-vectors for symmetrization
     Message from routine sym_rho_init:
     some processors have no G-vectors for symmetrization
     Message from routine sym_rho_init:
     some processors have no G-vectors for symmetrization
     Message from routine sym_rho_init:
     some processors have no G-vectors for symmetrization
     Message from routine sym_rho_init:
     some processors have no G-vectors for symmetrization
     Message from routine sym_rho_init:
     some processors have no G-vectors for symmetrization
     Message from routine sym_rho_init:
     some processors have no G-vectors for symmetrization
     Message from routine sym_rho_init:
     some processors have no G-vectors for symmetrization
     Message from routine sym_rho_init:
     some processors have no G-vectors for symmetrization
     Message from routine sym_rho_init:
     some processors have no G-vectors for symmetrization
     Message from routine sym_rho_init:
     some processors have no G-vectors for symmetrization
     Message from routine sym_rho_init:
     some processors have no G-vectors for symmetrization
     Message from routine sym_rho_init:
     some processors have no G-vectors for symmetrization
     Message from routine sym_rho_init:
     some processors have no G-vectors for symmetrization
     Message from routine sym_rho_init:
     some processors have no G-vectors for symmetrization
     Message from routine sym_rho_init:
     some processors have no G-vectors for symmetrization
     Message from routine sym_rho_init:
     some processors have no G-vectors for symmetrization
     Message from routine sym_rho_init:
     some processors have no G-vectors for symmetrization
     Message from routine sym_rho_init:
     some processors have no G-vectors for symmetrization
     Message from routine sym_rho_init:
     some processors have no G-vectors for symmetrization
     Message from routine sym_rho_init:
     some processors have no G-vectors for symmetrization
     Message from routine sym_rho_init:
     some processors have no G-vectors for symmetrization
     Message from routine sym_rho_init:
     some processors have no G-vectors for symmetrization
     Message from routine sym_rho_init:
     some processors have no G-vectors for symmetrization
     Message from routine sym_rho_init:
     some processors have no G-vectors for symmetrization
     Message from routine sym_rho_init:
     some processors have no G-vectors for symmetrization
     Message from routine sym_rho_init:
     some processors have no G-vectors for symmetrization
     Message from routine sym_rho_init:
     some processors have no G-vectors for symmetrization
     Message from routine sym_rho_init:
     some processors have no G-vectors for symmetrization
     Message from routine sym_rho_init:
     some processors have no G-vectors for symmetrization
     Message from routine sym_rho_init:
     some processors have no G-vectors for symmetrization
     Message from routine sym_rho_init:
     some processors have no G-vectors for symmetrization
     Message from routine sym_rho_init:
     some processors have no G-vectors for symmetrization
     Message from routine sym_rho_init:
     some processors have no G-vectors for symmetrization

     Check: negative core charge=   -0.000002

     Initial potential from superposition of free atoms

     starting charge   63.98899, renormalised to   64.00000
     Starting wfcs are   52 randomized atomic wfcs

     total cpu time spent up to now is       31.9 secs

     Self-consistent Calculation

     iteration #  1     ecut=    50.00 Ry     beta= 0.70
     CG style diagonalization
     ethr =  1.00E-02,  avg # of iterations =  2.2

     total cpu time spent up to now is       66.8 secs

     total energy              =    -365.13654709 Ry
     Harris-Foulkes estimate   =    -366.89788626 Ry
     estimated scf accuracy    <       2.39151933 Ry

     iteration #  2     ecut=    50.00 Ry     beta= 0.70
     CG style diagonalization
     ethr =  3.74E-03,  avg # of iterations =  4.8

     total cpu time spent up to now is      148.8 secs

     total energy              =    -364.97689022 Ry
     Harris-Foulkes estimate   =    -368.32914493 Ry
     estimated scf accuracy    <       9.63389619 Ry

     iteration #  3     ecut=    50.00 Ry     beta= 0.70
     CG style diagonalization
     ethr =  3.74E-03,  avg # of iterations =  4.3

     total cpu time spent up to now is      222.4 secs

     total energy              =    -366.40064007 Ry
     Harris-Foulkes estimate   =    -366.42519416 Ry
     estimated scf accuracy    <       0.05337271 Ry

     iteration #  4     ecut=    50.00 Ry     beta= 0.70
     CG style diagonalization
     ethr =  8.34E-05,  avg # of iterations =  4.3

     total cpu time spent up to now is      296.7 secs

     total energy              =    -366.43477424 Ry
     Harris-Foulkes estimate   =    -366.43798061 Ry
     estimated scf accuracy    <       0.01002706 Ry

     iteration #  5     ecut=    50.00 Ry     beta= 0.70
     CG style diagonalization
     ethr =  1.57E-05,  avg # of iterations =  3.8

     total cpu time spent up to now is      363.4 secs

     total energy              =    -366.43764511 Ry
     Harris-Foulkes estimate   =    -366.43765030 Ry
     estimated scf accuracy    <       0.00015915 Ry

     iteration #  6     ecut=    50.00 Ry     beta= 0.70
     CG style diagonalization
     ethr =  2.49E-07,  avg # of iterations =  5.3

     total cpu time spent up to now is      452.4 secs

     total energy              =    -366.43785186 Ry
     Harris-Foulkes estimate   =    -366.43789563 Ry
     estimated scf accuracy    <       0.00010227 Ry

     iteration #  7     ecut=    50.00 Ry     beta= 0.70
     CG style diagonalization
     ethr =  1.60E-07,  avg # of iterations =  3.9

     total cpu time spent up to now is      519.6 secs

     total energy              =    -366.43788110 Ry
     Harris-Foulkes estimate   =    -366.43788613 Ry
     estimated scf accuracy    <       0.00001728 Ry

     iteration #  8     ecut=    50.00 Ry     beta= 0.70
     CG style diagonalization
     ethr =  2.70E-08,  avg # of iterations =  3.5

     total cpu time spent up to now is      582.0 secs

     End of self-consistent calculation

     Number of k-points >= 100: set verbosity='high' to print the bands.

     highest occupied level (ev):     1.4955

!    total energy              =    -366.43788237 Ry
     Harris-Foulkes estimate   =    -366.43788381 Ry
     estimated scf accuracy    <       0.00000182 Ry

     The total energy is the sum of the following terms:

     one-electron contribution =    -167.19397513 Ry
     hartree contribution      =     105.90358472 Ry
     xc contribution           =     -72.68141920 Ry
     ewald contribution        =    -232.46607275 Ry

     convergence has been achieved in   8 iterations

     Forces acting on atoms (cartesian axes, Ry/au):

     atom    1 type  1   force =     0.00000000    0.00000000    0.00000000
     atom    2 type  1   force =     0.00000000    0.00000000   -0.00000000
     atom    3 type  2   force =     0.00000000    0.00000000    0.00000000
     atom    4 type  2   force =     0.00000000    0.00000000    0.00000000
     atom    5 type  3   force =    -0.12157374    0.21057189    0.00000000
     atom    6 type  3   force =     0.24314747   -0.00000000    0.00000000
     atom    7 type  3   force =    -0.12157374   -0.21057189   -0.00000000
     atom    8 type  3   force =    -0.24314747   -0.00000000    0.00000000
     atom    9 type  3   force =     0.12157374    0.21057189    0.00000000
     atom   10 type  3   force =     0.12157374   -0.21057189   -0.00000000

     Total force =     0.595587     Total SCF correction =     0.001813


     Computing stress (Cartesian axis) and pressure

          total   stress  (Ry/bohr**3)                   (kbar)     P= -286.65
  -0.00282327   0.00000000  -0.00000000       -415.32      0.00     -0.00
  -0.00000000  -0.00282327  -0.00000000         -0.00   -415.32     -0.00
   0.00000000  -0.00000000  -0.00019935          0.00     -0.00    -29.32


     BFGS Geometry Optimization

     number of scf cycles    =   1
     number of bfgs steps    =   0

     enthalpy new            =    -366.4378823734 Ry

     new trust radius        =       0.4934431879 bohr
     new conv_thr            =       0.0000100000 Ry

     new unit-cell volume =   1050.22246 a.u.^3 (   155.62691 Ang^3 )
     density =      2.13589 g/cm^3

CELL_PARAMETERS (alat= 12.00000000)
   0.464709095  -0.268299921   0.812427462
   0.000000000   0.536599842   0.812427462
  -0.464709095  -0.268299921   0.812427462

ATOMIC_POSITIONS (crystal)
Ca       0.500000000   0.500000000   0.500000000
Ca       0.000000000   0.000000000  -0.000000000
C        0.250000000   0.250000000   0.250000000
C        0.750000000   0.750000000   0.750000000
O        0.486637956   1.013362044   0.250000000
O        1.013362044   0.250000000   0.486637956
O        0.250000000   0.486637956   1.013362044
O       -0.013362044   0.750000000   0.513362044
O        0.750000000   0.513362044  -0.013362044
O        0.513362044  -0.013362044   0.750000000



     Writing output data file CCO_k.save/
     NEW-OLD atomic charge density approx. for the potential

     Check: negative core charge=   -0.000002
     extrapolated charge   53.54105, renormalised to   64.00000

     total cpu time spent up to now is      586.6 secs

     Self-consistent Calculation

     iteration #  1     ecut=    50.00 Ry     beta= 0.70
     CG style diagonalization
     c_bands:  2 eigenvalues not converged
     c_bands:  3 eigenvalues not converged
     c_bands:  4 eigenvalues not converged
     c_bands:  4 eigenvalues not converged
     c_bands:  4 eigenvalues not converged
     c_bands:  4 eigenvalues not converged
     c_bands:  5 eigenvalues not converged
     c_bands:  4 eigenvalues not converged
     c_bands:  4 eigenvalues not converged
     c_bands:  3 eigenvalues not converged
     c_bands:  5 eigenvalues not converged
     c_bands:  3 eigenvalues not converged
     c_bands:  5 eigenvalues not converged
     c_bands:  2 eigenvalues not converged
     c_bands:  3 eigenvalues not converged
     c_bands:  4 eigenvalues not converged
     c_bands:  3 eigenvalues not converged
     c_bands:  2 eigenvalues not converged
     c_bands:  4 eigenvalues not converged
     c_bands:  4 eigenvalues not converged
     c_bands:  1 eigenvalues not converged
     c_bands:  3 eigenvalues not converged
     c_bands:  1 eigenvalues not converged
     c_bands:  2 eigenvalues not converged
     c_bands:  3 eigenvalues not converged
     c_bands:  5 eigenvalues not converged
     c_bands:  5 eigenvalues not converged
     c_bands:  4 eigenvalues not converged
     c_bands:  4 eigenvalues not converged
     c_bands:  5 eigenvalues not converged
     c_bands:  3 eigenvalues not converged
     c_bands:  3 eigenvalues not converged
     c_bands:  4 eigenvalues not converged
     c_bands:  5 eigenvalues not converged
     c_bands:  5 eigenvalues not converged
     c_bands:  5 eigenvalues not converged
     c_bands:  5 eigenvalues not converged
     c_bands:  5 eigenvalues not converged
     c_bands:  4 eigenvalues not converged
     c_bands:  3 eigenvalues not converged
     c_bands:  4 eigenvalues not converged
     c_bands:  5 eigenvalues not converged
     c_bands:  5 eigenvalues not converged
     c_bands:  3 eigenvalues not converged
     c_bands:  5 eigenvalues not converged
     c_bands:  4 eigenvalues not converged
     c_bands:  2 eigenvalues not converged
     c_bands:  3 eigenvalues not converged
     c_bands:  4 eigenvalues not converged
     c_bands:  2 eigenvalues not converged
     c_bands:  1 eigenvalues not converged
     c_bands:  2 eigenvalues not converged
     c_bands:  2 eigenvalues not converged
     c_bands:  5 eigenvalues not converged
     c_bands:  5 eigenvalues not converged
     c_bands:  4 eigenvalues not converged
     c_bands:  3 eigenvalues not converged
     c_bands:  2 eigenvalues not converged
     c_bands:  4 eigenvalues not converged
     c_bands:  2 eigenvalues not converged
     c_bands:  5 eigenvalues not converged
     c_bands:  2 eigenvalues not converged
     c_bands:  4 eigenvalues not converged
     c_bands:  4 eigenvalues not converged
     c_bands:  4 eigenvalues not converged
     c_bands:  3 eigenvalues not converged
     c_bands:  4 eigenvalues not converged
     c_bands:  2 eigenvalues not converged
     c_bands:  3 eigenvalues not converged
     c_bands:  4 eigenvalues not converged
     c_bands:  5 eigenvalues not converged
     c_bands:  5 eigenvalues not converged
     c_bands:  3 eigenvalues not converged
     c_bands:  5 eigenvalues not converged
     c_bands:  4 eigenvalues not converged
     c_bands:  4 eigenvalues not converged
     c_bands:  5 eigenvalues not converged
     c_bands:  4 eigenvalues not converged
     c_bands:  5 eigenvalues not converged
     c_bands:  4 eigenvalues not converged
     c_bands:  3 eigenvalues not converged
     c_bands:  2 eigenvalues not converged
     c_bands:  3 eigenvalues not converged
     c_bands:  4 eigenvalues not converged
     c_bands:  1 eigenvalues not converged
     c_bands:  3 eigenvalues not converged
     c_bands:  3 eigenvalues not converged
     c_bands:  3 eigenvalues not converged
     c_bands:  4 eigenvalues not converged
     c_bands:  5 eigenvalues not converged
     c_bands:  4 eigenvalues not converged
     c_bands:  4 eigenvalues not converged
     c_bands:  2 eigenvalues not converged
     c_bands:  3 eigenvalues not converged
     c_bands:  4 eigenvalues not converged
     c_bands:  5 eigenvalues not converged
     c_bands:  5 eigenvalues not converged
     c_bands:  5 eigenvalues not converged
     c_bands:  4 eigenvalues not converged
     c_bands:  4 eigenvalues not converged
     c_bands:  3 eigenvalues not converged
     c_bands:  4 eigenvalues not converged
     c_bands:  3 eigenvalues not converged
     c_bands:  2 eigenvalues not converged
     c_bands:  3 eigenvalues not converged
     c_bands:  4 eigenvalues not converged
     c_bands:  2 eigenvalues not converged
     c_bands:  2 eigenvalues not converged
     c_bands:  1 eigenvalues not converged
     c_bands:  1 eigenvalues not converged
     c_bands:  1 eigenvalues not converged
     c_bands:  1 eigenvalues not converged
     c_bands:  1 eigenvalues not converged
     ethr =  1.00E-06,  avg # of iterations = 13.6

     total cpu time spent up to now is      798.0 secs

     total energy              =    -360.78313306 Ry
     Harris-Foulkes estimate   =    -388.25548643 Ry
     estimated scf accuracy    <       5.66788638 Ry

     iteration #  2     ecut=    50.00 Ry     beta= 0.70
     CG style diagonalization
     ethr =  8.86E-03,  avg # of iterations =  5.4

     total cpu time spent up to now is      889.8 secs

     total energy              =    -364.88550668 Ry
     Harris-Foulkes estimate   =    -373.43078115 Ry
     estimated scf accuracy    <      26.22333089 Ry

     iteration #  3     ecut=    50.00 Ry     beta= 0.70
     CG style diagonalization
     ethr =  8.86E-03,  avg # of iterations =  4.2

     total cpu time spent up to now is      961.9 secs

     total energy              =    -367.22821731 Ry
     Harris-Foulkes estimate   =    -367.68168719 Ry
     estimated scf accuracy    <       1.76258217 Ry

     iteration #  4     ecut=    50.00 Ry     beta= 0.70
     CG style diagonalization
     ethr =  2.75E-03,  avg # of iterations =  3.1

     total cpu time spent up to now is     1017.3 secs

     total energy              =    -367.19920249 Ry
     Harris-Foulkes estimate   =    -367.34796799 Ry
     estimated scf accuracy    <       0.75919063 Ry

     iteration #  5     ecut=    50.00 Ry     beta= 0.70
     CG style diagonalization
     ethr =  1.19E-03,  avg # of iterations =  3.0

     total cpu time spent up to now is     1072.0 secs

     total energy              =    -367.10706060 Ry
     Harris-Foulkes estimate   =    -367.23696007 Ry
     estimated scf accuracy    <       0.33712090 Ry

     iteration #  6     ecut=    50.00 Ry     beta= 0.70
     CG style diagonalization
     ethr =  5.27E-04,  avg # of iterations =  3.7

     total cpu time spent up to now is     1136.7 secs

     total energy              =    -367.16807689 Ry
     Harris-Foulkes estimate   =    -367.16961337 Ry
     estimated scf accuracy    <       0.00350670 Ry

     iteration #  7     ecut=    50.00 Ry     beta= 0.70
     CG style diagonalization
     ethr =  5.48E-06,  avg # of iterations =  5.2

     total cpu time spent up to now is     1226.3 secs

     total energy              =    -367.17422415 Ry
     Harris-Foulkes estimate   =    -367.17522547 Ry
     estimated scf accuracy    <       0.00201856 Ry

     iteration #  8     ecut=    50.00 Ry     beta= 0.70
     CG style diagonalization
     ethr =  3.15E-06,  avg # of iterations =  3.9

     total cpu time spent up to now is     1294.3 secs

     total energy              =    -367.17459664 Ry
     Harris-Foulkes estimate   =    -367.17472916 Ry
     estimated scf accuracy    <       0.00021981 Ry

     iteration #  9     ecut=    50.00 Ry     beta= 0.70
     CG style diagonalization
     ethr =  3.43E-07,  avg # of iterations =  4.2

     total cpu time spent up to now is     1366.9 secs

     total energy              =    -367.17467699 Ry
     Harris-Foulkes estimate   =    -367.17469981 Ry
     estimated scf accuracy    <       0.00008687 Ry

     iteration # 10     ecut=    50.00 Ry     beta= 0.70
     CG style diagonalization
     ethr =  1.36E-07,  avg # of iterations =  3.3

     total cpu time spent up to now is     1425.1 secs

     total energy              =    -367.17467492 Ry
     Harris-Foulkes estimate   =    -367.17468330 Ry
     estimated scf accuracy    <       0.00002085 Ry

     iteration # 11     ecut=    50.00 Ry     beta= 0.70
     CG style diagonalization
     ethr =  3.26E-08,  avg # of iterations =  3.7

     total cpu time spent up to now is     1489.6 secs

     End of self-consistent calculation

     Number of k-points >= 100: set verbosity='high' to print the bands.

     highest occupied level (ev):     2.8510

!    total energy              =    -367.17467841 Ry
     Harris-Foulkes estimate   =    -367.17467942 Ry
     estimated scf accuracy    <       0.00000137 Ry

     The total energy is the sum of the following terms:

     one-electron contribution =    -166.20427548 Ry
     hartree contribution      =     108.18631945 Ry
     xc contribution           =     -74.05055553 Ry
     ewald contribution        =    -235.10616685 Ry

     convergence has been achieved in  11 iterations

     Forces acting on atoms (cartesian axes, Ry/au):

     atom    1 type  1   force =    -0.00000000   -0.00000000    0.00000000
     atom    2 type  1   force =    -0.00000000    0.00000000    0.00000000
     atom    3 type  2   force =     0.00000000    0.00000000   -0.00000000
     atom    4 type  2   force =    -0.00000000    0.00000000   -0.00000000
     atom    5 type  3   force =    -0.06971701    0.12075340    0.00000000
     atom    6 type  3   force =     0.13943402   -0.00000000   -0.00000000
     atom    7 type  3   force =    -0.06971701   -0.12075340   -0.00000000
     atom    8 type  3   force =    -0.13943402    0.00000000    0.00000000
     atom    9 type  3   force =     0.06971701    0.12075340    0.00000000
     atom   10 type  3   force =     0.06971701   -0.12075340   -0.00000000

     Total force =     0.341542     Total SCF correction =     0.002274


     Computing stress (Cartesian axis) and pressure

          total   stress  (Ry/bohr**3)                   (kbar)     P= -208.66
  -0.00204856  -0.00000000  -0.00000000       -301.35     -0.00     -0.00
   0.00000000  -0.00204856  -0.00000000          0.00   -301.35     -0.00
   0.00000000  -0.00000000  -0.00015830          0.00     -0.00    -23.29


     number of scf cycles    =   2
     number of bfgs steps    =   1

     enthalpy old            =    -366.4378823734 Ry
     enthalpy new            =    -367.1746784109 Ry

     CASE: enthalpy_new < enthalpy_old

     new trust radius        =       0.7383181237 bohr
     new conv_thr            =       0.0000100000 Ry

     new unit-cell volume =    818.25197 a.u.^3 (   121.25243 Ang^3 )
     density =      2.74141 g/cm^3

CELL_PARAMETERS (alat= 12.00000000)
   0.411772736  -0.237737100   0.806190212
   0.000000000   0.475474200   0.806190212
  -0.411772736  -0.237737100   0.806190212

ATOMIC_POSITIONS (crystal)
Ca       0.500000000   0.500000000   0.500000000
Ca      -0.000000000   0.000000000  -0.000000000
C        0.250000000   0.250000000   0.250000000
C        0.750000000   0.750000000   0.750000000
O        0.462387203   1.037612797   0.250000000
O        1.037612797   0.250000000   0.462387203
O        0.250000000   0.462387203   1.037612797
O       -0.037612797   0.750000000   0.537612797
O        0.750000000   0.537612797  -0.037612797
O        0.537612797  -0.037612797   0.750000000



     Writing output data file CCO_k.save/
     NEW-OLD atomic charge density approx. for the potential

     Check: negative core charge=   -0.000003

     negative rho (up, down):  1.840E-03 0.000E+00
     extrapolated charge   45.85943, renormalised to   64.00000

     total cpu time spent up to now is     1493.1 secs

     Self-consistent Calculation

     iteration #  1     ecut=    50.00 Ry     beta= 0.70
     CG style diagonalization
     c_bands:  2 eigenvalues not converged
     c_bands:  2 eigenvalues not converged
     c_bands:  2 eigenvalues not converged
     c_bands:  4 eigenvalues not converged
     c_bands:  2 eigenvalues not converged
     c_bands:  4 eigenvalues not converged
     ethr =  1.00E-06,  avg # of iterations = 20.8

     negative rho (up, down):  2.829E-04 0.000E+00

     total cpu time spent up to now is     1814.4 secs

     total energy              =    -354.01358742 Ry
     Harris-Foulkes estimate   =    -406.14229774 Ry
     estimated scf accuracy    <      10.95064656 Ry

     iteration #  2     ecut=    50.00 Ry     beta= 0.70
     CG style diagonalization
     ethr =  1.00E-02,  avg # of iterations =  6.2

     total cpu time spent up to now is     1918.4 secs

     total energy              =    -360.22919795 Ry
     Harris-Foulkes estimate   =    -377.02055133 Ry
     estimated scf accuracy    <      52.96046058 Ry

     iteration #  3     ecut=    50.00 Ry     beta= 0.70
     CG style diagonalization
     ethr =  1.00E-02,  avg # of iterations =  4.7

     total cpu time spent up to now is     1998.8 secs

     total energy              =    -366.56868151 Ry
     Harris-Foulkes estimate   =    -367.77867069 Ry
     estimated scf accuracy    <       3.25219621 Ry

     iteration #  4     ecut=    50.00 Ry     beta= 0.70
     CG style diagonalization
     ethr =  5.08E-03,  avg # of iterations =  3.3

     total cpu time spent up to now is     2058.2 secs

     total energy              =    -366.51511189 Ry
     Harris-Foulkes estimate   =    -366.88226820 Ry
     estimated scf accuracy    <       1.06658561 Ry

     iteration #  5     ecut=    50.00 Ry     beta= 0.70
     CG style diagonalization
     ethr =  1.67E-03,  avg # of iterations =  3.4

     total cpu time spent up to now is     2118.6 secs

     total energy              =    -366.60110179 Ry
     Harris-Foulkes estimate   =    -366.65141421 Ry
     estimated scf accuracy    <       0.15739494 Ry

     iteration #  6     ecut=    50.00 Ry     beta= 0.70
     CG style diagonalization
     ethr =  2.46E-04,  avg # of iterations =  3.6

     total cpu time spent up to now is     2182.0 secs

     total energy              =    -366.62233522 Ry
     Harris-Foulkes estimate   =    -366.63028524 Ry
     estimated scf accuracy    <       0.02199611 Ry

     iteration #  7     ecut=    50.00 Ry     beta= 0.70
     CG style diagonalization
     ethr =  3.44E-05,  avg # of iterations =  3.7

     total cpu time spent up to now is     2246.9 secs

     total energy              =    -366.62887571 Ry
     Harris-Foulkes estimate   =    -366.62957011 Ry
     estimated scf accuracy    <       0.00231815 Ry

     iteration #  8     ecut=    50.00 Ry     beta= 0.70
     CG style diagonalization
     ethr =  3.62E-06,  avg # of iterations =  3.8

     total cpu time spent up to now is     2313.6 secs

     total energy              =    -366.62919355 Ry
     Harris-Foulkes estimate   =    -366.62945552 Ry
     estimated scf accuracy    <       0.00050258 Ry

     iteration #  9     ecut=    50.00 Ry     beta= 0.70
     CG style diagonalization
     ethr =  7.85E-07,  avg # of iterations =  3.7

     total cpu time spent up to now is     2379.2 secs

     total energy              =    -366.62928911 Ry
     Harris-Foulkes estimate   =    -366.62931116 Ry
     estimated scf accuracy    <       0.00003765 Ry

     iteration # 10     ecut=    50.00 Ry     beta= 0.70
     CG style diagonalization
     ethr =  5.88E-08,  avg # of iterations =  4.0

     total cpu time spent up to now is     2449.4 secs

     End of self-consistent calculation

     Number of k-points >= 100: set verbosity='high' to print the bands.

     highest occupied level (ev):     6.0085

!    total energy              =    -366.62930038 Ry
     Harris-Foulkes estimate   =    -366.62930427 Ry
     estimated scf accuracy    <       0.00000463 Ry

     The total energy is the sum of the following terms:

     one-electron contribution =    -171.67187288 Ry
     hartree contribution      =     116.24277313 Ry
     xc contribution           =     -76.99257359 Ry
     ewald contribution        =    -234.20762703 Ry

     convergence has been achieved in  10 iterations

     Forces acting on atoms (cartesian axes, Ry/au):

     atom    1 type  1   force =     0.00000000    0.00000000    0.00000000
     atom    2 type  1   force =     0.00000000    0.00000000    0.00000000
     atom    3 type  2   force =     0.00000000    0.00000000    0.00000000
     atom    4 type  2   force =    -0.00000000   -0.00000000    0.00000000
     atom    5 type  3   force =     0.45594810   -0.78972527   -0.00000000
     atom    6 type  3   force =    -0.91189620   -0.00000000    0.00000000
     atom    7 type  3   force =     0.45594810    0.78972527    0.00000000
     atom    8 type  3   force =     0.91189620    0.00000000   -0.00000000
     atom    9 type  3   force =    -0.45594810   -0.78972527   -0.00000000
     atom   10 type  3   force =    -0.45594810    0.78972527    0.00000000

     Total force =     2.233680     Total SCF correction =     0.009898


     Computing stress (Cartesian axis) and pressure

          total   stress  (Ry/bohr**3)                   (kbar)     P=  619.46
   0.00631385   0.00000000  -0.00000000        928.80      0.00     -0.00
  -0.00000000   0.00631385   0.00000000         -0.00    928.80      0.00
  -0.00000000   0.00000000   0.00000540         -0.00      0.00      0.80


     number of scf cycles    =   3
     number of bfgs steps    =   2

     enthalpy old            =    -367.1746784109 Ry
     enthalpy new            =    -366.6293003805 Ry

     CASE: enthalpy_new > enthalpy_old

     new trust radius        =       0.2089558392 bohr
     new conv_thr            =       0.0000100000 Ry

     new unit-cell volume =    981.19956 a.u.^3 (   145.39877 Ang^3 )
     density =      2.28614 g/cm^3

CELL_PARAMETERS (alat= 12.00000000)
   0.449669415  -0.259616758   0.810655405
   0.000000000   0.519233516   0.810655405
  -0.449669415  -0.259616758   0.810655405

ATOMIC_POSITIONS (crystal)
Ca       0.500000000   0.500000000   0.500000000
Ca      -0.000000000   0.000000000  -0.000000000
C        0.250000000   0.250000000   0.250000000
C        0.750000000   0.750000000   0.750000000
O        0.479748106   1.020251894   0.250000000
O        1.020251894   0.250000000   0.479748106
O        0.250000000   0.479748106   1.020251894
O       -0.020251894   0.750000000   0.520251894
O        0.750000000   0.520251894  -0.020251894
O        0.520251894  -0.020251894   0.750000000



     Writing output data file CCO_k.save/
     NEW-OLD atomic charge density approx. for the potential

     Check: negative core charge=   -0.000002
     extrapolated charge   74.62664, renormalised to   64.00000

     total cpu time spent up to now is     2452.9 secs

     Self-consistent Calculation

     iteration #  1     ecut=    50.00 Ry     beta= 0.70
     CG style diagonalization
     c_bands:  4 eigenvalues not converged
     c_bands:  1 eigenvalues not converged
     c_bands:  2 eigenvalues not converged
     c_bands:  1 eigenvalues not converged
     c_bands:  1 eigenvalues not converged
     c_bands:  1 eigenvalues not converged
     c_bands:  1 eigenvalues not converged
     c_bands:  1 eigenvalues not converged
     c_bands:  1 eigenvalues not converged
     c_bands:  1 eigenvalues not converged
     c_bands:  1 eigenvalues not converged
     c_bands:  1 eigenvalues not converged
     c_bands:  1 eigenvalues not converged
     c_bands:  1 eigenvalues not converged
     c_bands:  1 eigenvalues not converged
     c_bands:  1 eigenvalues not converged
     c_bands:  1 eigenvalues not converged
     c_bands:  1 eigenvalues not converged
     c_bands:  1 eigenvalues not converged
     c_bands:  1 eigenvalues not converged
     c_bands:  1 eigenvalues not converged
     c_bands:  1 eigenvalues not converged
     c_bands:  1 eigenvalues not converged
     c_bands:  2 eigenvalues not converged
     c_bands:  1 eigenvalues not converged
     ethr =  1.00E-06,  avg # of iterations = 24.8

     total cpu time spent up to now is     2830.7 secs

     total energy              =    -350.45955274 Ry
     Harris-Foulkes estimate   =    -348.42223995 Ry
     estimated scf accuracy    <      15.11710473 Ry

     iteration #  2     ecut=    50.00 Ry     beta= 0.70
     CG style diagonalization
     ethr =  1.00E-02,  avg # of iterations =  6.0

     total cpu time spent up to now is     2930.5 secs

     total energy              =    -367.74362378 Ry
     Harris-Foulkes estimate   =    -379.54290428 Ry
     estimated scf accuracy    <      27.89875938 Ry

     iteration #  3     ecut=    50.00 Ry     beta= 0.70
     CG style diagonalization
     ethr =  1.00E-02,  avg # of iterations =  3.8

     total cpu time spent up to now is     2997.3 secs

     total energy              =    -368.17235395 Ry
     Harris-Foulkes estimate   =    -369.66376089 Ry
     estimated scf accuracy    <       5.38277313 Ry

     iteration #  4     ecut=    50.00 Ry     beta= 0.70
     CG style diagonalization
     ethr =  8.41E-03,  avg # of iterations =  3.0

     total cpu time spent up to now is     3050.8 secs

     total energy              =    -367.81688016 Ry
     Harris-Foulkes estimate   =    -368.27783618 Ry
     estimated scf accuracy    <       2.73948997 Ry

     iteration #  5     ecut=    50.00 Ry     beta= 0.70
     CG style diagonalization
     ethr =  4.28E-03,  avg # of iterations =  3.0

     total cpu time spent up to now is     3104.4 secs

     total energy              =    -367.92724539 Ry
     Harris-Foulkes estimate   =    -367.86322723 Ry
     estimated scf accuracy    <       1.66659122 Ry

     iteration #  6     ecut=    50.00 Ry     beta= 0.70
     CG style diagonalization
     ethr =  2.60E-03,  avg # of iterations =  3.0

     total cpu time spent up to now is     3157.9 secs

     total energy              =    -366.99015893 Ry
     Harris-Foulkes estimate   =    -367.93651803 Ry
     estimated scf accuracy    <       1.78940578 Ry

     iteration #  7     ecut=    50.00 Ry     beta= 0.70
     CG style diagonalization
     ethr =  2.60E-03,  avg # of iterations =  3.6

     total cpu time spent up to now is     3220.2 secs

     total energy              =    -367.31149159 Ry
     Harris-Foulkes estimate   =    -367.32160186 Ry
     estimated scf accuracy    <       0.07389826 Ry

     iteration #  8     ecut=    50.00 Ry     beta= 0.70
     CG style diagonalization
     ethr =  1.15E-04,  avg # of iterations =  3.8

     total cpu time spent up to now is     3286.6 secs

     total energy              =    -367.33532250 Ry
     Harris-Foulkes estimate   =    -367.33439045 Ry
     estimated scf accuracy    <       0.06823621 Ry

     iteration #  9     ecut=    50.00 Ry     beta= 0.70
     CG style diagonalization
     ethr =  1.07E-04,  avg # of iterations =  3.0

     total cpu time spent up to now is     3340.0 secs

     total energy              =    -367.32735414 Ry
     Harris-Foulkes estimate   =    -367.33611409 Ry
     estimated scf accuracy    <       0.06904213 Ry

     iteration # 10     ecut=    50.00 Ry     beta= 0.70
     CG style diagonalization
     ethr =  1.07E-04,  avg # of iterations =  3.2

     total cpu time spent up to now is     3397.3 secs

     total energy              =    -367.33870282 Ry
     Harris-Foulkes estimate   =    -367.33183059 Ry
     estimated scf accuracy    <       0.06386880 Ry

     iteration # 11     ecut=    50.00 Ry     beta= 0.70
     CG style diagonalization
     ethr =  9.98E-05,  avg # of iterations =  3.6

     total cpu time spent up to now is     3459.9 secs

     total energy              =    -367.36222586 Ry
     Harris-Foulkes estimate   =    -367.34799803 Ry
     estimated scf accuracy    <       0.12201718 Ry

     iteration # 12     ecut=    50.00 Ry     beta= 0.70
     CG style diagonalization
     ethr =  9.98E-05,  avg # of iterations =  3.6

     total cpu time spent up to now is     3523.1 secs

     total energy              =    -367.37721020 Ry
     Harris-Foulkes estimate   =    -367.37480456 Ry
     estimated scf accuracy    <       0.21573893 Ry

     iteration # 13     ecut=    50.00 Ry     beta= 0.70
     CG style diagonalization
     ethr =  9.98E-05,  avg # of iterations =  3.0

     total cpu time spent up to now is     3576.6 secs

     total energy              =    -367.38127868 Ry
     Harris-Foulkes estimate   =    -367.37834894 Ry
     estimated scf accuracy    <       0.22999151 Ry

     iteration # 14     ecut=    50.00 Ry     beta= 0.70
     CG style diagonalization
     ethr =  9.98E-05,  avg # of iterations =  3.0

     total cpu time spent up to now is     3630.3 secs

     total energy              =    -367.37767054 Ry
     Harris-Foulkes estimate   =    -367.38164576 Ry
     estimated scf accuracy    <       0.24286225 Ry

     iteration # 15     ecut=    50.00 Ry     beta= 0.70
     CG style diagonalization
     ethr =  9.98E-05,  avg # of iterations =  3.0

     total cpu time spent up to now is     3683.8 secs

     total energy              =    -367.30940635 Ry
     Harris-Foulkes estimate   =    -367.37778244 Ry
     estimated scf accuracy    <       0.23620621 Ry

     iteration # 16     ecut=    50.00 Ry     beta= 0.70
     CG style diagonalization
     ethr =  9.98E-05,  avg # of iterations =  3.7

     total cpu time spent up to now is     3747.5 secs

     total energy              =    -367.30335475 Ry
     Harris-Foulkes estimate   =    -367.32549617 Ry
     estimated scf accuracy    <       0.04045593 Ry

     iteration # 17     ecut=    50.00 Ry     beta= 0.70
     CG style diagonalization
     ethr =  6.32E-05,  avg # of iterations =  4.0

     total cpu time spent up to now is     3816.9 secs

     total energy              =    -367.31403290 Ry
     Harris-Foulkes estimate   =    -367.31692661 Ry
     estimated scf accuracy    <       0.00613170 Ry

     iteration # 18     ecut=    50.00 Ry     beta= 0.70
     CG style diagonalization
     ethr =  9.58E-06,  avg # of iterations =  3.6

     total cpu time spent up to now is     3879.2 secs

     total energy              =    -367.31531007 Ry
     Harris-Foulkes estimate   =    -367.31531071 Ry
     estimated scf accuracy    <       0.00051174 Ry

     iteration # 19     ecut=    50.00 Ry     beta= 0.70
     CG style diagonalization
     ethr =  8.00E-07,  avg # of iterations =  4.0

     total cpu time spent up to now is     3953.8 secs

     total energy              =    -367.31538039 Ry
     Harris-Foulkes estimate   =    -367.31546892 Ry
     estimated scf accuracy    <       0.00063225 Ry

     iteration # 20     ecut=    50.00 Ry     beta= 0.70
     CG style diagonalization
     ethr =  8.00E-07,  avg # of iterations =  3.0

     total cpu time spent up to now is     4007.4 secs

     total energy              =    -367.31518926 Ry
     Harris-Foulkes estimate   =    -367.31540002 Ry
     estimated scf accuracy    <       0.00063644 Ry

     iteration # 21     ecut=    50.00 Ry     beta= 0.70
     CG style diagonalization
     ethr =  8.00E-07,  avg # of iterations =  3.5

     total cpu time spent up to now is     4068.5 secs

     total energy              =    -367.31527354 Ry
     Harris-Foulkes estimate   =    -367.31525759 Ry
     estimated scf accuracy    <       0.00004122 Ry

     iteration # 22     ecut=    50.00 Ry     beta= 0.70
     CG style diagonalization
     ethr =  6.44E-08,  avg # of iterations =  3.9

     total cpu time spent up to now is     4136.2 secs

     total energy              =    -367.31525911 Ry
     Harris-Foulkes estimate   =    -367.31528869 Ry
     estimated scf accuracy    <       0.00006510 Ry

     iteration # 23     ecut=    50.00 Ry     beta= 0.70
     CG style diagonalization
     ethr =  6.44E-08,  avg # of iterations =  3.8

     total cpu time spent up to now is     4202.7 secs

     End of self-consistent calculation

     Number of k-points >= 100: set verbosity='high' to print the bands.

     highest occupied level (ev):     3.5788

!    total energy              =    -367.31526806 Ry
     Harris-Foulkes estimate   =    -367.31527266 Ry
     estimated scf accuracy    <       0.00000602 Ry

     The total energy is the sum of the following terms:

     one-electron contribution =    -166.39878338 Ry
     hartree contribution      =     109.62041897 Ry
     xc contribution           =     -74.74664339 Ry
     ewald contribution        =    -235.79026025 Ry

     convergence has been achieved in  23 iterations

     Forces acting on atoms (cartesian axes, Ry/au):

     atom    1 type  1   force =     0.00000000    0.00000000    0.00000000
     atom    2 type  1   force =     0.00000000    0.00000000    0.00000000
     atom    3 type  2   force =     0.00000000   -0.00000000   -0.00000000
     atom    4 type  2   force =    -0.00000000   -0.00000000    0.00000000
     atom    5 type  3   force =    -0.00067990    0.00117763    0.00000000
     atom    6 type  3   force =     0.00135981   -0.00000000   -0.00000000
     atom    7 type  3   force =    -0.00067990   -0.00117763   -0.00000000
     atom    8 type  3   force =    -0.00135981    0.00000000    0.00000000
     atom    9 type  3   force =     0.00067990    0.00117763    0.00000000
     atom   10 type  3   force =     0.00067990   -0.00117763   -0.00000000

     Total force =     0.003331     Total SCF correction =     0.003368
     SCF correction compared to forces is large: reduce conv_thr to get better values


     Computing stress (Cartesian axis) and pressure

          total   stress  (Ry/bohr**3)                   (kbar)     P= -104.59
  -0.00098983  -0.00000000   0.00000000       -145.61     -0.00      0.00
  -0.00000000  -0.00098983  -0.00000000         -0.00   -145.61     -0.00
   0.00000000  -0.00000000  -0.00015341          0.00     -0.00    -22.57


     number of scf cycles    =   4
     number of bfgs steps    =   2

     enthalpy old            =    -367.1746784109 Ry
     enthalpy new            =    -367.3152680600 Ry

     CASE: enthalpy_new < enthalpy_old

     new trust radius        =       0.2005546701 bohr
     new conv_thr            =       0.0000001360 Ry

     new unit-cell volume =    915.40072 a.u.^3 (   135.64839 Ang^3 )
     density =      2.45047 g/cm^3

CELL_PARAMETERS (alat= 12.00000000)
   0.435274223  -0.251305690   0.807143942
   0.000000000   0.502611380   0.807143942
  -0.435274223  -0.251305690   0.807143942

ATOMIC_POSITIONS (crystal)
Ca       0.500000000   0.500000000   0.500000000
Ca       0.000000000   0.000000000  -0.000000000
C        0.250000000   0.250000000   0.250000000
C        0.750000000   0.750000000   0.750000000
O        0.480318367   1.019681633   0.250000000
O        1.019681633   0.250000000   0.480318367
O        0.250000000   0.480318367   1.019681633
O       -0.019681633   0.750000000   0.519681633
O        0.750000000   0.519681633  -0.019681633
O        0.519681633  -0.019681633   0.750000000



     Writing output data file CCO_k.save/
     NEW-OLD atomic charge density approx. for the potential

     Check: negative core charge=   -0.000003
     extrapolated charge   59.40048, renormalised to   64.00000

     total cpu time spent up to now is     4207.6 secs

     Self-consistent Calculation

     iteration #  1     ecut=    50.00 Ry     beta= 0.70
     CG style diagonalization
     c_bands:  2 eigenvalues not converged
     c_bands:  3 eigenvalues not converged
     c_bands:  3 eigenvalues not converged
     c_bands:  5 eigenvalues not converged
     c_bands:  4 eigenvalues not converged
     c_bands:  4 eigenvalues not converged
     c_bands:  5 eigenvalues not converged
     c_bands:  5 eigenvalues not converged
     c_bands:  5 eigenvalues not converged
     c_bands:  5 eigenvalues not converged
     c_bands:  4 eigenvalues not converged
     c_bands:  4 eigenvalues not converged
     c_bands:  5 eigenvalues not converged
     c_bands:  4 eigenvalues not converged
     c_bands:  5 eigenvalues not converged
     c_bands:  5 eigenvalues not converged
     c_bands:  5 eigenvalues not converged
     c_bands:  5 eigenvalues not converged
     c_bands:  5 eigenvalues not converged
     c_bands:  4 eigenvalues not converged
     c_bands:  5 eigenvalues not converged
     c_bands:  4 eigenvalues not converged
     c_bands:  5 eigenvalues not converged
     c_bands:  5 eigenvalues not converged
     c_bands:  4 eigenvalues not converged
     c_bands:  3 eigenvalues not converged
     c_bands:  2 eigenvalues not converged
     c_bands:  5 eigenvalues not converged
     c_bands:  5 eigenvalues not converged
     c_bands:  5 eigenvalues not converged
     c_bands:  5 eigenvalues not converged
     c_bands:  5 eigenvalues not converged
     c_bands:  4 eigenvalues not converged
     c_bands:  5 eigenvalues not converged
     c_bands:  4 eigenvalues not converged
     c_bands:  5 eigenvalues not converged
     c_bands:  4 eigenvalues not converged
     c_bands:  5 eigenvalues not converged
     c_bands:  4 eigenvalues not converged
     c_bands:  3 eigenvalues not converged
     ethr =  1.00E-06,  avg # of iterations = 15.9

     total cpu time spent up to now is     4455.6 secs

     total energy              =    -366.16627638 Ry
     Harris-Foulkes estimate   =    -376.32398666 Ry
     estimated scf accuracy    <       0.87752208 Ry

     iteration #  2     ecut=    50.00 Ry     beta= 0.70
     CG style diagonalization
     ethr =  1.37E-03,  avg # of iterations =  5.1

     total cpu time spent up to now is     4543.5 secs

     total energy              =    -367.18083213 Ry
     Harris-Foulkes estimate   =    -368.32986101 Ry
     estimated scf accuracy    <       3.34100526 Ry

     iteration #  3     ecut=    50.00 Ry     beta= 0.70
     CG style diagonalization
     ethr =  1.37E-03,  avg # of iterations =  4.0

     total cpu time spent up to now is     4613.7 secs

     total energy              =    -367.37544553 Ry
     Harris-Foulkes estimate   =    -367.45940668 Ry
     estimated scf accuracy    <       0.35745747 Ry

     iteration #  4     ecut=    50.00 Ry     beta= 0.70
     CG style diagonalization
     ethr =  5.59E-04,  avg # of iterations =  3.0

     total cpu time spent up to now is     4668.0 secs

     total energy              =    -367.34828049 Ry
     Harris-Foulkes estimate   =    -367.38765583 Ry
     estimated scf accuracy    <       0.16056551 Ry

     iteration #  5     ecut=    50.00 Ry     beta= 0.70
     CG style diagonalization
     ethr =  2.51E-04,  avg # of iterations =  3.3

     total cpu time spent up to now is     4726.4 secs

     total energy              =    -367.35033439 Ry
     Harris-Foulkes estimate   =    -367.36133320 Ry
     estimated scf accuracy    <       0.03383649 Ry

     iteration #  6     ecut=    50.00 Ry     beta= 0.70
     CG style diagonalization
     ethr =  5.29E-05,  avg # of iterations =  3.3

     total cpu time spent up to now is     4785.2 secs

     total energy              =    -367.35172876 Ry
     Harris-Foulkes estimate   =    -367.35324558 Ry
     estimated scf accuracy    <       0.00674495 Ry

     iteration #  7     ecut=    50.00 Ry     beta= 0.70
     CG style diagonalization
     ethr =  1.05E-05,  avg # of iterations =  3.3

     total cpu time spent up to now is     4844.7 secs

     total energy              =    -367.35216145 Ry
     Harris-Foulkes estimate   =    -367.35249699 Ry
     estimated scf accuracy    <       0.00237112 Ry

     iteration #  8     ecut=    50.00 Ry     beta= 0.70
     CG style diagonalization
     ethr =  3.70E-06,  avg # of iterations =  3.4

     total cpu time spent up to now is     4905.2 secs

     total energy              =    -367.35222046 Ry
     Harris-Foulkes estimate   =    -367.35248319 Ry
     estimated scf accuracy    <       0.00097027 Ry

     iteration #  9     ecut=    50.00 Ry     beta= 0.70
     CG style diagonalization
     ethr =  1.52E-06,  avg # of iterations =  3.2

     total cpu time spent up to now is     4962.4 secs

     total energy              =    -367.35211733 Ry
     Harris-Foulkes estimate   =    -367.35229372 Ry
     estimated scf accuracy    <       0.00030583 Ry

     iteration # 10     ecut=    50.00 Ry     beta= 0.70
     CG style diagonalization
     ethr =  4.78E-07,  avg # of iterations =  4.0

     total cpu time spent up to now is     5031.0 secs

     total energy              =    -367.35221715 Ry
     Harris-Foulkes estimate   =    -367.35224524 Ry
     estimated scf accuracy    <       0.00006017 Ry

     iteration # 11     ecut=    50.00 Ry     beta= 0.70
     CG style diagonalization
     ethr =  9.40E-08,  avg # of iterations =  3.8

     total cpu time spent up to now is     5097.4 secs

     total energy              =    -367.35223694 Ry
     Harris-Foulkes estimate   =    -367.35223770 Ry
     estimated scf accuracy    <       0.00000156 Ry

     iteration # 12     ecut=    50.00 Ry     beta= 0.70
     CG style diagonalization
     ethr =  2.43E-09,  avg # of iterations =  4.3

     total cpu time spent up to now is     5170.9 secs

     End of self-consistent calculation

     Number of k-points >= 100: set verbosity='high' to print the bands.

     highest occupied level (ev):     4.1884

!    total energy              =    -367.35223791 Ry
     Harris-Foulkes estimate   =    -367.35223795 Ry
     estimated scf accuracy    <       0.00000006 Ry

     The total energy is the sum of the following terms:

     one-electron contribution =    -159.93864002 Ry
     hartree contribution      =     107.86931217 Ry
     xc contribution           =     -75.19306305 Ry
     ewald contribution        =    -240.08984701 Ry

     convergence has been achieved in  12 iterations

     Forces acting on atoms (cartesian axes, Ry/au):

     atom    1 type  1   force =    -0.00000000   -0.00000000   -0.00000000
     atom    2 type  1   force =    -0.00000000   -0.00000000    0.00000000
     atom    3 type  2   force =     0.00000000   -0.00000000    0.00000000
     atom    4 type  2   force =    -0.00000000   -0.00000000    0.00000000
     atom    5 type  3   force =     0.04515583   -0.07821218   -0.00000000
     atom    6 type  3   force =    -0.09031165   -0.00000000    0.00000000
     atom    7 type  3   force =     0.04515583    0.07821218    0.00000000
     atom    8 type  3   force =     0.09031165    0.00000000   -0.00000000
     atom    9 type  3   force =    -0.04515583   -0.07821218   -0.00000000
     atom   10 type  3   force =    -0.04515583    0.07821218    0.00000000

     Total force =     0.221217     Total SCF correction =     0.000028


     Computing stress (Cartesian axis) and pressure

          total   stress  (Ry/bohr**3)                   (kbar)     P=  -12.08
  -0.00010240  -0.00000000   0.00000000        -15.06     -0.00      0.00
  -0.00000000  -0.00010240  -0.00000000         -0.00    -15.06     -0.00
  -0.00000000  -0.00000000  -0.00004156         -0.00     -0.00     -6.11


     number of scf cycles    =   8
     number of bfgs steps    =   4

     enthalpy old            =    -367.4335278694 Ry
     enthalpy new            =    -367.3522379098 Ry

     CASE: enthalpy_new > enthalpy_old


 %%%%%%%%%%%%%%%%%%%%%%%%%%%%%%%%%%%%%%%%%%%%%%%%%%%%%%%%%%%%%%%%%%%%%%%%%%%%%%
     Error in routine bfgs (1):
     dE0s is positive which should never happen
 %%%%%%%%%%%%%%%%%%%%%%%%%%%%%%%%%%%%%%%%%%%%%%%%%%%%%%%%%%%%%%%%%%%%%%%%%%%%%%

     stopping ...
