
     Program PWSCF v.6.4.1 starts on 24Apr2022 at  6:54:49 

     This program is part of the open-source Quantum ESPRESSO suite
     for quantum simulation of materials; please cite
         "P. Giannozzi et al., J. Phys.:Condens. Matter 21 395502 (2009);
         "P. Giannozzi et al., J. Phys.:Condens. Matter 29 465901 (2017);
          URL http://www.quantum-espresso.org", 
     in publications or presentations arising from this work. More details at
     http://www.quantum-espresso.org/quote

     Parallel version (MPI & OpenMP), running on     120 processor cores
     Number of MPI processes:               120
     Threads/MPI process:                     1

     MPI processes distributed on     2 nodes
     R & G space division:  proc/nbgrp/npool/nimage =     120
     Waiting for input...
     Reading input from standard input

     Current dimensions of program PWSCF are:
     Max number of different atomic species (ntypx) = 10
     Max number of k-points (npk) =  40000
     Max angular momentum in pseudopotentials (lmaxx) =  3

     Subspace diagonalization in iterative solution of the eigenvalue problem:
     one sub-group per band group will be used
     scalapack distributed-memory algorithm (size of sub-group:  7*  7 procs)

 
     Parallelization info
     --------------------
     sticks:   dense  smooth     PW     G-vecs:    dense   smooth      PW
     Min          14      14      4                  339      339      54
     Max          15      15      5                  342      342      59
     Sum        1707    1707    509                40873    40873    6705
 


     bravais-lattice index     =            5
     lattice parameter (alat)  =      12.1722  a.u.
     unit-cell volume          =     854.4976 (a.u.)^3
     number of atoms/cell      =           10
     number of atomic types    =            3
     number of electrons       =        64.00
     number of Kohn-Sham states=           32
     kinetic-energy cutoff     =      50.0000  Ry
     charge density cutoff     =     200.0000  Ry
     convergence threshold     =      1.0E-08
     mixing beta               =       0.7000
     number of iterations used =            8  plain     mixing
     Exchange-correlation      = SLA  PW   PBE  PBE ( 1  4  3  4 0 0)
     nstep                     =           50


     celldm(1)=  12.172200  celldm(2)=   0.000000  celldm(3)=   0.000000
     celldm(4)=   0.693300  celldm(5)=   0.000000  celldm(6)=   0.000000

     crystal axes: (cart. coord. in units of alat)
               a(1) = (   0.391599  -0.226090   0.891927 )  
               a(2) = (   0.000000   0.452180   0.891927 )  
               a(3) = (  -0.391599  -0.226090   0.891927 )  

     reciprocal axes: (cart. coord. in units 2 pi/alat)
               b(1) = (  1.276815 -0.737170  0.373723 )  
               b(2) = ( -0.000000  1.474339  0.373723 )  
               b(3) = ( -1.276815 -0.737170  0.373723 )  


     PseudoPot. # 1 for Ca read from file:
     ./Ca_PBE.UPF
     MD5 check sum: 403a4c14b9e4d4dfdc3024c9a3812218
     Pseudo is Ultrasoft + core correction, Zval = 10.0
     Generated by new atomic code, or converted to UPF format
     Using radial grid of  845 points,  6 beta functions with: 
                l(1) =   0
                l(2) =   0
                l(3) =   1
                l(4) =   1
                l(5) =   2
                l(6) =   2
     Q(r) pseudized with  8 coefficients,  rinner =    1.500   1.500   1.500
                                                       1.500   1.500

     PseudoPot. # 2 for C  read from file:
     ./C_PBE.UPF
     MD5 check sum: d1aef80898a10debaa0f26306b886e00
     Pseudo is Ultrasoft + core correction, Zval =  4.0
     Generated by new atomic code, or converted to UPF format
     Using radial grid of  721 points,  4 beta functions with: 
                l(1) =   0
                l(2) =   0
                l(3) =   1
                l(4) =   1
     Q(r) pseudized with  8 coefficients,  rinner =    1.100   1.100   1.100


     PseudoPot. # 3 for O  read from file:
     ./O_PBE.UPF
     MD5 check sum: 734c27235a0248c51dbae37a1fbe46ec
     Pseudo is Ultrasoft + core correction, Zval =  6.0
     Generated by new atomic code, or converted to UPF format
     Using radial grid of  737 points,  5 beta functions with: 
                l(1) =   0
                l(2) =   0
                l(3) =   1
                l(4) =   1
                l(5) =   2
     Q(r) pseudized with  8 coefficients,  rinner =    0.900   0.900   0.900
                                                       0.900   0.900

     atomic species   valence    mass     pseudopotential
        Ca            10.00    40.07800     Ca( 1.00)
        C              4.00    12.01070     C ( 1.00)
        O              6.00    16.00000     O ( 1.00)

     12 Sym. Ops., with inversion, found ( 6 have fractional translation)



   Cartesian axes

     site n.     atom                  positions (alat units)
         1           Ca  tau(   1) = (   0.0000000  -0.0000000   1.3378901  )
         2           Ca  tau(   2) = (   0.0000000   0.0000000   0.0000000  )
         3           C   tau(   3) = (   0.0000000  -0.0000000   0.6689451  )
         4           C   tau(   4) = (   0.0000000  -0.0000000   2.0068352  )
         5           O   tau(   5) = (   0.1006418   0.2778633   1.5608718  )
         6           O   tau(   6) = (   0.1903158  -0.2260900   1.5608718  )
         7           O   tau(   7) = (  -0.2909575  -0.0517733   1.5608718  )
         8           O   tau(   8) = (  -0.1903158   0.2260900   1.1149084  )
         9           O   tau(   9) = (   0.2909575   0.0517733   1.1149084  )
        10           O   tau(  10) = (  -0.1006418  -0.2778633   1.1149084  )

     number of k points=    85
                       cart. coord. in units 2pi/alat
        k(    1) = (   0.0000000   0.0000000   0.0000000), wk =   0.0027435
        k(    2) = (  -0.1418684  -0.0819077   0.0415248), wk =   0.0164609
        k(    3) = (  -0.2837368  -0.1638155   0.0830495), wk =   0.0164609
        k(    4) = (  -0.4256051  -0.2457232   0.1245743), wk =   0.0164609
        k(    5) = (  -0.5674735  -0.3276310   0.1660990), wk =   0.0164609
        k(    6) = (  -0.1418684   0.0819077   0.0830495), wk =   0.0164609
        k(    7) = (  -0.2837368  -0.0000000   0.1245743), wk =   0.0329218
        k(    8) = (  -0.4256051  -0.0819077   0.1660990), wk =   0.0329218
        k(    9) = (  -0.5674735  -0.1638155   0.2076238), wk =   0.0329218
        k(   10) = (   0.5674735   0.4914465  -0.1245743), wk =   0.0329218
        k(   11) = (   0.4256051   0.4095387  -0.0830495), wk =   0.0329218
        k(   12) = (   0.2837368   0.3276310  -0.0415248), wk =   0.0329218
        k(   13) = (   0.1418684   0.2457232   0.0000000), wk =   0.0164609
        k(   14) = (  -0.2837368   0.1638155   0.1660990), wk =   0.0164609
        k(   15) = (  -0.4256051   0.0819077   0.2076238), wk =   0.0329218
        k(   16) = (  -0.5674735  -0.0000000   0.2491485), wk =   0.0329218
        k(   17) = (   0.5674735   0.6552620  -0.0830495), wk =   0.0329218
        k(   18) = (   0.4256051   0.5733542  -0.0415248), wk =   0.0329218
        k(   19) = (   0.2837368   0.4914465   0.0000000), wk =   0.0164609
        k(   20) = (  -0.4256051   0.2457232   0.2491485), wk =   0.0164609
        k(   21) = (  -0.5674735   0.1638155   0.2906733), wk =   0.0329218
        k(   22) = (   0.5674735   0.8190775  -0.0415248), wk =   0.0329218
        k(   23) = (   0.4256051   0.7371697   0.0000000), wk =   0.0164609
        k(   24) = (  -0.5674735   0.3276310   0.3321980), wk =   0.0164609
        k(   25) = (   0.5674735   0.9828930   0.0000000), wk =   0.0164609
        k(   26) = (  -0.0000000  -0.0000000   0.1245743), wk =   0.0054870
        k(   27) = (  -0.1418684  -0.0819077   0.1660990), wk =   0.0164609
        k(   28) = (  -0.2837368  -0.1638155   0.2076238), wk =   0.0164609
        k(   29) = (  -0.4256051  -0.2457232   0.2491485), wk =   0.0164609
        k(   30) = (   0.7093419   0.4095387  -0.0830495), wk =   0.0164609
        k(   31) = (   0.5674735   0.3276310  -0.0415248), wk =   0.0164609
        k(   32) = (   0.4256051   0.2457232   0.0000000), wk =   0.0164609
        k(   33) = (   0.2837368   0.1638155   0.0415248), wk =   0.0164609
        k(   34) = (  -0.1418684   0.0819077   0.2076238), wk =   0.0164609
        k(   35) = (  -0.2837368  -0.0000000   0.2491485), wk =   0.0329218
        k(   36) = (  -0.4256051  -0.0819077   0.2906733), wk =   0.0329218
        k(   37) = (   0.7093419   0.5733542  -0.0415248), wk =   0.0329218
        k(   38) = (   0.5674735   0.4914465   0.0000000), wk =   0.0329218
        k(   39) = (   0.4256051   0.4095387   0.0415248), wk =   0.0329218
        k(   40) = (   0.2837368   0.3276310   0.0830495), wk =   0.0329218
        k(   41) = (  -0.2837368   0.1638155   0.2906733), wk =   0.0164609
        k(   42) = (  -0.4256051   0.0819077   0.3321980), wk =   0.0329218
        k(   43) = (   0.7093419   0.7371697   0.0000000), wk =   0.0329218
        k(   44) = (   0.5674735   0.6552620   0.0415248), wk =   0.0329218
        k(   45) = (   0.4256051   0.5733542   0.0830495), wk =   0.0329218
        k(   46) = (   0.2837368   0.4914465   0.1245743), wk =   0.0329218
        k(   47) = (  -0.4256051   0.2457232   0.3737228), wk =   0.0164609
        k(   48) = (   0.7093419   0.9009852   0.0415248), wk =   0.0329218
        k(   49) = (   0.5674735   0.8190775   0.0830495), wk =   0.0329218
        k(   50) = (   0.4256051   0.7371697   0.1245743), wk =   0.0329218
        k(   51) = (   0.2837368   0.6552620   0.1660990), wk =   0.0329218
        k(   52) = (   0.7093419  -0.4095387  -0.2906733), wk =   0.0164609
        k(   53) = (   0.5674735  -0.4914465  -0.2491485), wk =   0.0329218
        k(   54) = (   0.4256051  -0.5733542  -0.2076238), wk =   0.0329218
        k(   55) = (   0.5674735  -0.3276310  -0.2076238), wk =   0.0164609
        k(   56) = (   0.4256051  -0.4095387  -0.1660990), wk =   0.0329218
        k(   57) = (   0.4256051  -0.2457232  -0.1245743), wk =   0.0164609
        k(   58) = (  -0.0000000  -0.0000000   0.2491485), wk =   0.0054870
        k(   59) = (  -0.1418684  -0.0819077   0.2906733), wk =   0.0164609
        k(   60) = (  -0.2837368  -0.1638155   0.3321980), wk =   0.0164609
        k(   61) = (   0.8512103   0.4914465   0.0000000), wk =   0.0164609
        k(   62) = (   0.7093419   0.4095387   0.0415248), wk =   0.0164609
        k(   63) = (   0.5674735   0.3276310   0.0830495), wk =   0.0164609
        k(   64) = (  -0.1418684   0.0819077   0.3321980), wk =   0.0164609
        k(   65) = (  -0.2837368   0.0000000   0.3737228), wk =   0.0329218
        k(   66) = (   0.8512103   0.6552620   0.0415248), wk =   0.0329218
        k(   67) = (   0.7093419   0.5733542   0.0830495), wk =   0.0329218
        k(   68) = (   0.5674735   0.4914465   0.1245743), wk =   0.0329218
        k(   69) = (  -0.2837368   0.1638155   0.4152475), wk =   0.0164609
        k(   70) = (   0.8512103   0.8190775   0.0830495), wk =   0.0329218
        k(   71) = (   0.7093419   0.7371697   0.1245743), wk =   0.0329218
        k(   72) = (   0.5674735   0.6552620   0.1660990), wk =   0.0329218
        k(   73) = (   0.8512103  -0.4914465  -0.2491485), wk =   0.0164609
        k(   74) = (   0.7093419  -0.5733542  -0.2076238), wk =   0.0329218
        k(   75) = (   0.7093419  -0.4095387  -0.1660990), wk =   0.0164609
        k(   76) = (  -0.0000000   0.0000000   0.3737228), wk =   0.0054870
        k(   77) = (  -0.1418684  -0.0819077   0.4152475), wk =   0.0164609
        k(   78) = (   0.9930786   0.5733542   0.0830495), wk =   0.0164609
        k(   79) = (   0.8512103   0.4914465   0.1245743), wk =   0.0164609
        k(   80) = (  -0.1418684   0.0819077   0.4567723), wk =   0.0164609
        k(   81) = (   0.9930786   0.7371697   0.1245743), wk =   0.0329218
        k(   82) = (   0.8512103   0.6552620   0.1660990), wk =   0.0329218
        k(   83) = (   0.9930786  -0.5733542  -0.2076238), wk =   0.0164609
        k(   84) = (  -0.0000000  -0.0000000   0.4982970), wk =   0.0054870
        k(   85) = (   1.1349470   0.6552620   0.1660990), wk =   0.0164609

     Dense  grid:    40873 G-vectors     FFT dimensions: (  60,  60,  60)

     Estimated max dynamical RAM per process >      16.60 MB

     Estimated total dynamical RAM >       1.95 GB
     Message from routine sym_rho_init:
     some processors have no G-vectors for symmetrization
     Message from routine sym_rho_init:
     some processors have no G-vectors for symmetrization
     Message from routine sym_rho_init:
     some processors have no G-vectors for symmetrization
     Message from routine sym_rho_init:
     some processors have no G-vectors for symmetrization
     Message from routine sym_rho_init:
     some processors have no G-vectors for symmetrization
     Message from routine sym_rho_init:
     some processors have no G-vectors for symmetrization

     Check: negative core charge=   -0.000003

     Initial potential from superposition of free atoms

     starting charge   63.98899, renormalised to   64.00000
     Starting wfcs are   52 randomized atomic wfcs

     total cpu time spent up to now is       14.3 secs

     Self-consistent Calculation

     iteration #  1     ecut=    50.00 Ry     beta= 0.70
     CG style diagonalization
     ethr =  1.00E-02,  avg # of iterations =  2.7

     total cpu time spent up to now is       35.2 secs

     total energy              =    -366.66974920 Ry
     Harris-Foulkes estimate   =    -367.89284942 Ry
     estimated scf accuracy    <       1.75368539 Ry

     iteration #  2     ecut=    50.00 Ry     beta= 0.70
     CG style diagonalization
     ethr =  2.74E-03,  avg # of iterations =  4.4

     total cpu time spent up to now is       68.6 secs

     total energy              =    -367.10146269 Ry
     Harris-Foulkes estimate   =    -367.91368890 Ry
     estimated scf accuracy    <       1.66985143 Ry

     iteration #  3     ecut=    50.00 Ry     beta= 0.70
     CG style diagonalization
     ethr =  2.61E-03,  avg # of iterations =  3.8

     total cpu time spent up to now is       97.8 secs

     total energy              =    -367.41847696 Ry
     Harris-Foulkes estimate   =    -367.42045267 Ry
     estimated scf accuracy    <       0.01097670 Ry

     iteration #  4     ecut=    50.00 Ry     beta= 0.70
     CG style diagonalization
     ethr =  1.72E-05,  avg # of iterations =  4.4

     total cpu time spent up to now is      131.8 secs

     total energy              =    -367.42990784 Ry
     Harris-Foulkes estimate   =    -367.43091837 Ry
     estimated scf accuracy    <       0.00272701 Ry

     iteration #  5     ecut=    50.00 Ry     beta= 0.70
     CG style diagonalization
     ethr =  4.26E-06,  avg # of iterations =  3.6

     total cpu time spent up to now is      159.4 secs

     total energy              =    -367.43031570 Ry
     Harris-Foulkes estimate   =    -367.43034729 Ry
     estimated scf accuracy    <       0.00014736 Ry

     iteration #  6     ecut=    50.00 Ry     beta= 0.70
     CG style diagonalization
     ethr =  2.30E-07,  avg # of iterations =  4.1

     total cpu time spent up to now is      191.1 secs

     total energy              =    -367.43035380 Ry
     Harris-Foulkes estimate   =    -367.43036695 Ry
     estimated scf accuracy    <       0.00002245 Ry

     iteration #  7     ecut=    50.00 Ry     beta= 0.70
     CG style diagonalization
     ethr =  3.51E-08,  avg # of iterations =  4.1

     total cpu time spent up to now is      222.5 secs

     total energy              =    -367.43036331 Ry
     Harris-Foulkes estimate   =    -367.43036522 Ry
     estimated scf accuracy    <       0.00000475 Ry

     iteration #  8     ecut=    50.00 Ry     beta= 0.70
     CG style diagonalization
     ethr =  7.42E-09,  avg # of iterations =  3.7

     total cpu time spent up to now is      250.8 secs

     total energy              =    -367.43036423 Ry
     Harris-Foulkes estimate   =    -367.43036430 Ry
     estimated scf accuracy    <       0.00000013 Ry

     iteration #  9     ecut=    50.00 Ry     beta= 0.70
     CG style diagonalization
     ethr =  2.07E-10,  avg # of iterations =  4.3

     total cpu time spent up to now is      283.4 secs

     total energy              =    -367.43036430 Ry
     Harris-Foulkes estimate   =    -367.43036431 Ry
     estimated scf accuracy    <       0.00000002 Ry

     iteration # 10     ecut=    50.00 Ry     beta= 0.70
     CG style diagonalization
     ethr =  2.72E-11,  avg # of iterations =  3.9

     total cpu time spent up to now is      313.6 secs

     End of self-consistent calculation

          k = 0.0000 0.0000 0.0000 (  5173 PWs)   bands (ev):

   -33.6960 -33.6834 -17.0916 -17.0809 -15.1281 -15.1281 -14.7617 -14.7617
   -14.6677 -14.5597 -13.9098 -13.9098 -13.3777 -13.3777  -3.3149  -3.0411
    -1.6959  -1.5365  -1.5365  -1.2767  -1.2767  -0.4097   2.3542   2.3542
     2.7908   2.7908   2.9605   2.9605   3.5725   3.5725   3.7748   4.2018

          k =-0.1419-0.0819 0.0415 (  5135 PWs)   bands (ev):

   -33.6955 -33.6838 -17.0906 -17.0781 -15.1274 -15.0892 -14.8015 -14.7597
   -14.6830 -14.6268 -13.8832 -13.8080 -13.4275 -13.3868  -3.2648  -3.0479
    -1.6502  -1.5172  -1.4970  -1.2991  -1.2693  -0.4627   2.3789   2.4105
     2.7346   2.7758   2.8665   2.9127   3.4926   3.5109   3.8877   4.2063

          k =-0.2837-0.1638 0.0830 (  5102 PWs)   bands (ev):

   -33.6943 -33.6847 -17.1073 -17.0496 -15.1258 -15.0187 -14.9264 -14.7702
   -14.6926 -14.6696 -13.8168 -13.6481 -13.5405 -13.4145  -3.1447  -3.0497
    -1.5634  -1.4636  -1.3863  -1.3235  -1.2639  -0.5860   2.4194   2.4985
     2.6140   2.6453   2.7770   2.7860   3.3446   3.3759   4.0921   4.2189

          k =-0.4256-0.2457 0.1246 (  5099 PWs)   bands (ev):

   -33.6925 -33.6862 -17.1083 -17.0346 -15.1162 -15.0096 -14.9926 -14.8372
   -14.6705 -14.6532 -13.7358 -13.6197 -13.5591 -13.4639  -3.0237  -3.0209
    -1.5418  -1.4176  -1.2790  -1.2732  -1.2095  -0.7157   2.2855   2.3606
     2.5714   2.5943   2.7197   2.8254   3.1964   3.2302   4.2452   4.2600

          k =-0.5675-0.3276 0.1661 (  5094 PWs)   bands (ev):

   -33.6903 -33.6882 -17.0849 -17.0510 -15.0582 -15.0205 -15.0055 -14.9448
   -14.6575 -14.6420 -13.6460 -13.6021 -13.5583 -13.5431  -2.9746  -2.9624
    -1.5283  -1.4666  -1.2425  -1.2322  -1.0119  -0.8450   2.1501   2.2084
     2.5337   2.5626   2.8041   2.8557   3.1070   3.1216   4.2931   4.3220

          k =-0.1419 0.0819 0.0830 (  5127 PWs)   bands (ev):

   -33.6954 -33.6839 -17.0916 -17.0774 -15.1075 -15.1051 -14.7985 -14.7625
   -14.6777 -14.6440 -13.8464 -13.8295 -13.4142 -13.4074  -3.2624  -3.0548
    -1.6348  -1.5110  -1.5013  -1.3035  -1.2670  -0.4737   2.3795   2.4160
     2.7388   2.7430   2.8928   2.9196   3.4647   3.5275   3.8888   4.2004

          k =-0.2837-0.0000 0.1246 (  5102 PWs)   bands (ev):

   -33.6945 -33.6846 -17.1053 -17.0561 -15.1114 -15.0585 -14.8641 -14.7667
   -14.7079 -14.6730 -13.8077 -13.7101 -13.4921 -13.4217  -3.1753  -3.0624
    -1.5609  -1.4789  -1.4246  -1.3250  -1.2566  -0.5678   2.4102   2.4886
     2.6208   2.7103   2.7646   2.8638   3.3387   3.4402   4.0408   4.2060

          k =-0.4256-0.0819 0.1661 (  5091 PWs)   bands (ev):

   -33.6930 -33.6859 -17.1098 -17.0387 -15.1097 -15.0680 -14.9065 -14.8189
   -14.6765 -14.6721 -13.7351 -13.6975 -13.5019 -13.4593  -3.0614  -3.0383
    -1.5247  -1.4205  -1.3603  -1.2523  -1.2354  -0.6855   2.3459   2.4492
     2.5336   2.6111   2.7223   2.8200   3.1928   3.3109   4.2138   4.2349

          k =-0.5675-0.1638 0.2076 (  5094 PWs)   bands (ev):

   -33.6910 -33.6876 -17.0898 -17.0490 -15.0988 -15.0543 -14.9359 -14.9036
   -14.6616 -14.6510 -13.7085 -13.6506 -13.5254 -13.4824  -2.9858  -2.9780
    -1.5139  -1.4542  -1.2947  -1.2345  -1.0540  -0.7957   2.1966   2.2763
     2.5091   2.5471   2.7536   2.8379   3.1071   3.1997   4.2912   4.3110

          k = 0.5675 0.4914-0.1246 (  5112 PWs)   bands (ev):

   -33.6895 -33.6889 -17.0828 -17.0518 -15.0916 -15.0300 -14.9921 -14.9091
   -14.6637 -14.6400 -13.7011 -13.6210 -13.5496 -13.4847  -2.9779  -2.9272
    -1.5282  -1.4641  -1.2609  -1.2150  -0.9355  -0.8928   2.1297   2.1981
     2.4804   2.5417   2.7691   2.8338   3.1142   3.1493   4.3050   4.3546

          k = 0.4256 0.4095-0.0830 (  5095 PWs)   bands (ev):

   -33.6916 -33.6870 -17.1133 -17.0224 -15.1377 -15.0352 -14.9820 -14.8310
   -14.6824 -14.6282 -13.7602 -13.6271 -13.5377 -13.4533  -3.0151  -2.9448
    -1.5562  -1.3966  -1.2808  -1.2285  -1.1225  -0.7737   2.1510   2.3352
     2.4800   2.5745   2.6976   2.8676   3.1315   3.2123   4.2565   4.3485

          k = 0.2837 0.3276-0.0415 (  5092 PWs)   bands (ev):

   -33.6934 -33.6854 -17.1206 -17.0257 -15.1205 -15.0663 -14.9111 -14.7931
   -14.6975 -14.6653 -13.7530 -13.6876 -13.5006 -13.4527  -3.0487  -3.0431
    -1.5459  -1.4087  -1.3326  -1.3026  -1.2413  -0.6638   2.3339   2.4647
     2.5454   2.6369   2.6491   2.8284   3.2234   3.3290   4.2225   4.2324

          k = 0.1419 0.2457 0.0000 (  5103 PWs)   bands (ev):

   -33.6948 -33.6843 -17.1065 -17.0541 -15.1088 -15.0691 -14.8212 -14.8050
   -14.6967 -14.6798 -13.8134 -13.7208 -13.4809 -13.4182  -3.1749  -3.0536
    -1.5854  -1.4801  -1.4373  -1.3294  -1.2501  -0.5434   2.4095   2.4904
     2.6175   2.7446   2.7512   2.8208   3.3722   3.4436   4.0385   4.2153

          k =-0.2837 0.1638 0.1661 (  5092 PWs)   bands (ev):

   -33.6940 -33.6850 -17.1182 -17.0401 -15.0921 -15.0761 -14.8222 -14.7992
   -14.7391 -14.6864 -13.7467 -13.7133 -13.4869 -13.4597  -3.1207  -3.0845
    -1.4983  -1.4679  -1.4492  -1.2871  -1.2437  -0.6234   2.4233   2.4276
     2.6221   2.6382   2.7573   2.9079   3.2361   3.4372   4.1077   4.1906

          k =-0.4256 0.0819 0.2076 (  5105 PWs)   bands (ev):

   -33.6930 -33.6859 -17.1276 -17.0212 -15.1313 -15.0724 -14.8543 -14.7975
   -14.7035 -14.6864 -13.7650 -13.6891 -13.4973 -13.4483  -3.0799  -3.0241
    -1.5045  -1.4225  -1.3954  -1.2313  -1.2004  -0.7111   2.2860   2.4174
     2.5519   2.6386   2.7108   2.9006   3.1061   3.3624   4.1985   4.2444

          k =-0.5675-0.0000 0.2491 (  5103 PWs)   bands (ev):

   -33.6914 -33.6871 -17.1135 -17.0270 -15.1569 -15.0296 -14.9303 -14.8214
   -14.6837 -14.6552 -13.8067 -13.6107 -13.5531 -13.4213  -3.0233  -2.9521
    -1.5033  -1.4292  -1.3542  -1.2215  -1.0519  -0.7827   2.1617   2.3258
     2.5036   2.5569   2.6969   2.8386   3.0831   3.2744   4.2557   4.3465

          k = 0.5675 0.6553-0.0830 (  5105 PWs)   bands (ev):

   -33.6897 -33.6887 -17.0740 -17.0623 -15.1281 -15.0299 -14.9562 -14.8627
   -14.6800 -14.6571 -13.7617 -13.6499 -13.5190 -13.4387  -2.9437  -2.9395
    -1.5052  -1.4580  -1.3216  -1.2089  -0.9109  -0.8633   2.1464   2.1866
     2.4607   2.4982   2.7027   2.7574   3.1374   3.2177   4.3484   4.3566

          k = 0.4256 0.5734-0.0415 (  5101 PWs)   bands (ev):

   -33.6904 -33.6880 -17.1031 -17.0298 -15.1477 -15.0470 -14.9870 -14.7891
   -14.6978 -14.6332 -13.8008 -13.6429 -13.5237 -13.4173  -2.9857  -2.8952
    -1.5565  -1.3857  -1.3108  -1.2114  -0.9998  -0.8161   2.1020   2.2675
     2.4177   2.5030   2.6816   2.7845   3.1787   3.1961   4.2999   4.4066

          k = 0.2837 0.4914 0.0000 (  5099 PWs)   bands (ev):

   -33.6921 -33.6865 -17.1243 -17.0110 -15.1687 -15.0430 -14.9718 -14.7529
   -14.7124 -14.6247 -13.8170 -13.6417 -13.5254 -13.4164  -3.0309  -2.9368
    -1.5598  -1.3661  -1.2972  -1.2308  -1.1701  -0.7483   2.1634   2.4362
     2.4444   2.5310   2.6461   2.8561   3.1555   3.2573   4.2465   4.3627

          k =-0.4256 0.2457 0.2491 (  5096 PWs)   bands (ev):

   -33.6925 -33.6862 -17.1475 -16.9947 -15.1548 -15.1287 -14.7991 -14.7409
   -14.7196 -14.6898 -13.8012 -13.7424 -13.4611 -13.4207  -3.1125  -2.9393
    -1.5408  -1.3932  -1.3511  -1.2166  -1.1257  -0.7742   2.1469   2.3784
     2.4977   2.7077   2.7150   2.9610   2.9895   3.3469   4.1642   4.3300

          k =-0.5675 0.1638 0.2907 (  5108 PWs)   bands (ev):

   -33.6916 -33.6870 -17.1470 -16.9891 -15.1929 -15.1228 -14.8172 -14.7557
   -14.6958 -14.6445 -13.8767 -13.7207 -13.4647 -13.3834  -3.0920  -2.8718
    -1.5491  -1.4031  -1.3141  -1.2048  -1.0270  -0.8163   2.0405   2.3041
     2.4806   2.6798   2.7081   2.8061   3.0741   3.2936   4.1827   4.4130

          k = 0.5675 0.8191-0.0415 (  5109 PWs)   bands (ev):

   -33.6904 -33.6880 -17.1164 -17.0197 -15.1712 -15.0682 -14.8736 -14.8075
   -14.7079 -14.6534 -13.8386 -13.6720 -13.4927 -13.3983  -3.0125  -2.8698
    -1.5021  -1.4600  -1.3321  -1.1994  -0.9219  -0.8328   2.0351   2.2236
     2.4813   2.5705   2.6747   2.6964   3.1486   3.2487   4.2723   4.4300

          k = 0.4256 0.7372 0.0000 (  5081 PWs)   bands (ev):

   -33.6892 -33.6892 -17.0679 -17.0677 -15.1163 -15.0816 -14.9157 -14.8270
   -14.7161 -14.6584 -13.7362 -13.7294 -13.4549 -13.4516  -2.9246  -2.9240
    -1.5241  -1.4142  -1.3571  -1.2009  -0.8933  -0.8469   2.1329   2.1445
     2.4607   2.4779   2.6603   2.6970   3.1811   3.2244   4.3731   4.3767

          k =-0.5675 0.3276 0.3322 (  5091 PWs)   bands (ev):

   -33.6914 -33.6871 -17.1661 -16.9631 -15.2080 -15.2020 -14.7474 -14.7262
   -14.6943 -14.5917 -13.9264 -13.8265 -13.4011 -13.3604  -3.1288  -2.8040
    -1.5891  -1.3800  -1.2673  -1.1927  -0.9897  -0.8588   1.9438   2.2557
     2.4971   2.7273   2.7338   2.7425   3.1072   3.2711   4.1341   4.4707

          k = 0.5675 0.9829 0.0000 (  5108 PWs)   bands (ev):

   -33.6910 -33.6874 -17.1546 -16.9760 -15.2016 -15.1750 -14.7718 -14.7199
   -14.7172 -14.6178 -13.9166 -13.7818 -13.4206 -13.3640  -3.0963  -2.8046
    -1.5700  -1.4071  -1.2809  -1.1911  -0.9524  -0.8494   1.9423   2.2324
     2.5047   2.6672   2.7008   2.7096   3.1446   3.2505   4.1725   4.4790

          k =-0.0000-0.0000 0.1246 (  5164 PWs)   bands (ev):

   -33.6956 -33.6838 -17.0916 -17.0815 -15.1203 -15.1203 -14.7791 -14.7791
   -14.6640 -14.5625 -13.8874 -13.8874 -13.3905 -13.3905  -3.3122  -3.0585
    -1.6502  -1.5287  -1.5287  -1.2845  -1.2845  -0.4445   2.3675   2.3675
     2.7747   2.7747   2.9798   2.9798   3.5509   3.5509   3.7860   4.1852

          k =-0.1419-0.0819 0.1661 (  5127 PWs)   bands (ev):

   -33.6949 -33.6844 -17.0895 -17.0801 -15.1311 -15.0623 -14.8615 -14.7527
   -14.6801 -14.6098 -13.8803 -13.7625 -13.4616 -13.3903  -3.2638  -3.0687
    -1.5938  -1.5091  -1.4698  -1.3045  -1.2869  -0.5134   2.3956   2.4243
     2.7111   2.7608   2.8729   2.9634   3.4547   3.4828   3.8982   4.1849

          k =-0.2837-0.1638 0.2076 (  5101 PWs)   bands (ev):

   -33.6936 -33.6855 -17.0973 -17.0613 -15.1278 -14.9844 -14.9829 -14.7506
   -14.7062 -14.6434 -13.8184 -13.6187 -13.5753 -13.4136  -3.1587  -3.0519
    -1.5306  -1.4612  -1.3512  -1.2970  -1.2897  -0.6331   2.4066   2.5264
     2.6048   2.6352   2.7473   2.8694   3.2964   3.3431   4.0877   4.2119

          k =-0.4256-0.2457 0.2491 (  5106 PWs)   bands (ev):

   -33.6917 -33.6870 -17.0847 -17.0613 -15.0985 -15.0478 -14.9573 -14.8481
   -14.6740 -14.6466 -13.7299 -13.6300 -13.5646 -13.4577  -3.0624  -2.9906
    -1.4997  -1.4574  -1.3139  -1.2686  -1.1243  -0.7510   2.3001   2.3433
     2.5490   2.5900   2.7600   2.8523   3.1446   3.2073   4.2278   4.2701

          k = 0.7093 0.4095-0.0830 (  5111 PWs)   bands (ev):

   -33.6896 -33.6889 -17.0867 -17.0504 -15.0933 -15.0277 -14.9767 -14.9177
   -14.6696 -14.6322 -13.6788 -13.6373 -13.5531 -13.4906  -3.0194  -2.9190
    -1.5280  -1.4607  -1.2797  -1.2103  -0.9542  -0.8819   2.1288   2.2197
     2.4991   2.5977   2.7743   2.9179   3.0437   3.1402   4.2674   4.3457

          k = 0.5675 0.3276-0.0415 (  5099 PWs)   bands (ev):

   -33.6910 -33.6875 -17.1168 -17.0166 -15.1238 -15.0785 -14.9406 -14.8647
   -14.6832 -14.6159 -13.7441 -13.6313 -13.5312 -13.4673  -3.0292  -2.9056
    -1.5717  -1.3926  -1.2797  -1.1992  -1.0599  -0.8226   2.0749   2.2781
     2.4713   2.6296   2.7211   2.9474   3.0432   3.1808   4.2403   4.3751

          k = 0.4256 0.2457 0.0000 (  5082 PWs)   bands (ev):

   -33.6929 -33.6858 -17.1280 -17.0128 -15.1383 -15.0549 -14.9396 -14.7930
   -14.6970 -14.6489 -13.7759 -13.6090 -13.5633 -13.4400  -3.0539  -2.9870
    -1.5558  -1.3957  -1.2894  -1.2590  -1.2318  -0.7103   2.2242   2.4083
     2.5446   2.6384   2.6464   2.8914   3.1472   3.2968   4.2170   4.2900

          k = 0.2837 0.1638 0.0415 (  5097 PWs)   bands (ev):

   -33.6945 -33.6846 -17.1145 -17.0423 -15.1087 -15.0569 -14.8621 -14.7887
   -14.7030 -14.6922 -13.7913 -13.6809 -13.5096 -13.4300  -3.1313  -3.0610
    -1.5528  -1.4603  -1.4357  -1.3107  -1.2466  -0.5833   2.4262   2.4587
     2.6296   2.6403   2.7382   2.8431   3.3073   3.4254   4.0986   4.2116

          k =-0.1419 0.0819 0.2076 (  5111 PWs)   bands (ev):

   -33.6946 -33.6847 -17.0923 -17.0781 -15.1088 -15.0727 -14.8564 -14.7699
   -14.6667 -14.6408 -13.8219 -13.7805 -13.4507 -13.4227  -3.2565  -3.0867
    -1.5558  -1.4914  -1.4781  -1.3165  -1.2805  -0.5453   2.3989   2.4398
     2.6922   2.7259   2.9128   2.9893   3.4023   3.5015   3.9037   4.1685

          k =-0.2837-0.0000 0.2491 (  5100 PWs)   bands (ev):

   -33.6936 -33.6855 -17.1017 -17.0616 -15.1116 -15.0381 -14.9082 -14.7441
   -14.7241 -14.6576 -13.7897 -13.6840 -13.5190 -13.4347  -3.1752  -3.0854
    -1.5027  -1.4708  -1.4004  -1.2973  -1.2737  -0.6395   2.4146   2.4871
     2.6183   2.6671   2.8001   2.9434   3.2622   3.4124   4.0485   4.1814

          k =-0.4256-0.0819 0.2907 (  5098 PWs)   bands (ev):

   -33.6920 -33.6868 -17.0953 -17.0566 -15.0902 -15.0834 -14.8999 -14.8134
   -14.7000 -14.6590 -13.7375 -13.6842 -13.5189 -13.4554  -3.0806  -3.0326
    -1.4778  -1.4360  -1.3874  -1.2636  -1.1453  -0.7388   2.3365   2.4067
     2.5726   2.6008   2.7264   2.8940   3.1206   3.2849   4.2001   4.2370

          k = 0.7093 0.5734-0.0415 (  5100 PWs)   bands (ev):

   -33.6902 -33.6884 -17.0778 -17.0639 -15.1146 -15.0285 -14.9569 -14.8655
   -14.6786 -14.6519 -13.7420 -13.6110 -13.5697 -13.4504  -3.0262  -2.9418
    -1.5057  -1.4440  -1.3362  -1.2242  -0.9821  -0.8336   2.1818   2.2544
     2.5016   2.5828   2.7321   2.8795   3.0677   3.1902   4.2709   4.3272

          k = 0.5675 0.4914 0.0000 (  5103 PWs)   bands (ev):

   -33.6901 -33.6883 -17.1114 -17.0223 -15.1407 -15.0677 -14.9554 -14.8237
   -14.6894 -14.6236 -13.7831 -13.6338 -13.5363 -13.4300  -3.0250  -2.8791
    -1.5671  -1.3833  -1.3121  -1.1972  -0.9665  -0.8600   2.0587   2.2474
     2.4364   2.6032   2.7181   2.8655   3.0946   3.1767   4.2568   4.4021

          k = 0.4256 0.4095 0.0415 (  5099 PWs)   bands (ev):

   -33.6919 -33.6867 -17.1319 -17.0019 -15.1735 -15.0657 -14.9459 -14.7637
   -14.7070 -14.6169 -13.8292 -13.6151 -13.5503 -13.4094  -3.0490  -2.9094
    -1.5711  -1.3640  -1.2832  -1.2318  -1.1323  -0.7722   2.1000   2.3823
     2.4311   2.6145   2.6674   2.9010   3.0988   3.2531   4.2235   4.3810

          k = 0.2837 0.3276 0.0830 (  5099 PWs)   bands (ev):

   -33.6934 -33.6854 -17.1268 -17.0196 -15.1242 -15.0758 -14.8900 -14.7778
   -14.7086 -14.6750 -13.7647 -13.6825 -13.5031 -13.4458  -3.0631  -3.0305
    -1.5357  -1.4026  -1.3813  -1.2651  -1.2315  -0.6732   2.3088   2.4513
     2.5757   2.5943   2.6749   2.8620   3.1830   3.3562   4.2133   4.2391

          k =-0.2837 0.1638 0.2907 (  5099 PWs)   bands (ev):

   -33.6931 -33.6860 -17.1176 -17.0431 -15.1180 -15.0313 -14.8734 -14.7797
   -14.7398 -14.6694 -13.7410 -13.6930 -13.5007 -13.4730  -3.1143  -3.1124
    -1.4828  -1.4314  -1.4238  -1.2584  -1.2382  -0.7026   2.4081   2.4186
     2.6150   2.6369   2.8018   2.9798   3.1429   3.4082   4.1201   4.1615

          k =-0.4256 0.0819 0.3322 (  5100 PWs)   bands (ev):

   -33.6920 -33.6868 -17.1225 -17.0297 -15.1387 -15.0548 -14.8454 -14.7997
   -14.7278 -14.6719 -13.7591 -13.6968 -13.4884 -13.4589  -3.0951  -3.0232
    -1.4880  -1.4219  -1.3834  -1.2460  -1.1207  -0.7736   2.2743   2.3790
     2.5631   2.6646   2.7464   2.9235   3.0445   3.3331   4.1855   4.2457

          k = 0.7093 0.7372 0.0000 (  5116 PWs)   bands (ev):

   -33.6907 -33.6879 -17.1005 -17.0441 -15.1369 -15.0389 -14.8871 -14.8368
   -14.6966 -14.6854 -13.7805 -13.6370 -13.5308 -13.4347  -3.0137  -2.9677
    -1.4628  -1.4572  -1.3711  -1.2288  -0.9798  -0.8192   2.1671   2.2650
     2.5356   2.5909   2.7071   2.8027   3.0806   3.2504   4.2687   4.3288

          k = 0.5675 0.6553 0.0415 (  5091 PWs)   bands (ev):

   -33.6892 -33.6892 -17.0807 -17.0574 -15.1231 -15.0469 -14.9482 -14.8137
   -14.7079 -14.6704 -13.7676 -13.6593 -13.5131 -13.4312  -2.9688  -2.9153
    -1.5277  -1.4008  -1.3594  -1.2138  -0.8846  -0.8682   2.1209   2.1692
     2.4689   2.5452   2.6826   2.7422   3.1439   3.2099   4.3291   4.3754

          k = 0.4256 0.5734 0.0830 (  5103 PWs)   bands (ev):

   -33.6906 -33.6878 -17.1128 -17.0201 -15.1671 -15.0434 -14.9802 -14.7511
   -14.7138 -14.6340 -13.8368 -13.6233 -13.5398 -13.3972  -3.0022  -2.8784
    -1.5597  -1.3801  -1.3026  -1.2269  -0.9935  -0.8108   2.0704   2.2721
     2.4151   2.5328   2.6683   2.7787   3.1640   3.2195   4.2824   4.4235

          k = 0.2837 0.4914 0.1246 (  5103 PWs)   bands (ev):

   -33.6919 -33.6867 -17.1216 -17.0152 -15.1664 -15.0374 -14.9610 -14.7830
   -14.6938 -14.6328 -13.8161 -13.6293 -13.5361 -13.4168  -3.0290  -2.9408
    -1.5444  -1.3903  -1.3130  -1.2341  -1.1249  -0.7575   2.1624   2.3886
     2.4765   2.5345   2.6661   2.8520   3.1270   3.2693   4.2486   4.3584

          k =-0.4256 0.2457 0.3737 (  5100 PWs)   bands (ev):

   -33.6917 -33.6870 -17.1448 -17.0004 -15.1792 -15.1002 -14.7806 -14.7587
   -14.7428 -14.6558 -13.7952 -13.7763 -13.4374 -13.4289  -3.1292  -2.9320
    -1.5428  -1.3895  -1.3231  -1.2324  -1.0589  -0.8280   2.1404   2.3366
     2.5465   2.7192   2.7452   2.8680   3.0265   3.3171   4.1523   4.3344

          k = 0.7093 0.9010 0.0415 (  5107 PWs)   bands (ev):

   -33.6910 -33.6876 -17.1414 -16.9979 -15.1793 -15.1260 -14.7944 -14.7450
   -14.7140 -14.6729 -13.8383 -13.7607 -13.4367 -13.4039  -3.0953  -2.8728
    -1.5463  -1.4059  -1.3018  -1.2236  -0.9742  -0.8451   2.0448   2.2695
     2.5315   2.6921   2.7073   2.7541   3.0889   3.2659   4.1852   4.4078

          k = 0.5675 0.8191 0.0830 (  5101 PWs)   bands (ev):

   -33.6901 -33.6883 -17.1095 -17.0286 -15.1479 -15.0838 -14.8474 -14.8155
   -14.7167 -14.6790 -13.8035 -13.6977 -13.4733 -13.4166  -3.0051  -2.8784
    -1.5037  -1.4605  -1.3172  -1.2208  -0.8989  -0.8406   2.0451   2.1977
     2.5093   2.5766   2.6620   2.6865   3.1585   3.2290   4.2835   4.4191

          k = 0.4256 0.7372 0.1246 (  5092 PWs)   bands (ev):

   -33.6892 -33.6892 -17.0678 -17.0677 -15.1091 -15.0922 -14.8952 -14.8528
   -14.6966 -14.6693 -13.7345 -13.7311 -13.4541 -13.4524  -2.9244  -2.9242
    -1.5077  -1.4619  -1.2994  -1.2308  -0.8798  -0.8569   2.1357   2.1415
     2.4652   2.4738   2.6688   2.6871   3.1925   3.2141   4.3739   4.3758

          k = 0.2837 0.6553 0.1661 (  5109 PWs)   bands (ev):

   -33.6901 -33.6883 -17.0897 -17.0445 -15.1318 -15.0516 -14.9552 -14.8526
   -14.6743 -14.6456 -13.7671 -13.6598 -13.5089 -13.4384  -2.9640  -2.9180
    -1.5216  -1.4542  -1.2650  -1.2400  -0.9599  -0.8372   2.1301   2.2341
     2.4503   2.4750   2.7026   2.7668   3.1614   3.2057   4.3224   4.3833

          k = 0.7093-0.4095-0.2907 (  5090 PWs)   bands (ev):

   -33.6911 -33.6874 -17.1611 -16.9702 -15.2101 -15.1847 -14.7474 -14.7258
   -14.7175 -14.5927 -13.8972 -13.8382 -13.3943 -13.3742  -3.1275  -2.8072
    -1.5897  -1.3773  -1.2500  -1.2180  -0.9655  -0.8712   1.9540   2.2460
     2.5212   2.6769   2.7388   2.7707   3.1099   3.2461   4.1410   4.4639

          k = 0.5675-0.4914-0.2491 (  5092 PWs)   bands (ev):

   -33.6909 -33.6875 -17.1495 -16.9816 -15.1953 -15.1620 -14.8073 -14.7258
   -14.7092 -14.6198 -13.9005 -13.7601 -13.4357 -13.3702  -3.0877  -2.8136
    -1.5754  -1.3953  -1.2632  -1.2189  -0.9573  -0.8463   1.9567   2.2415
     2.4749   2.6719   2.6947   2.7462   3.1375   3.2358   4.1837   4.4694

          k = 0.4256-0.5734-0.2076 (  5106 PWs)   bands (ev):

   -33.6906 -33.6878 -17.1175 -17.0167 -15.1769 -15.0553 -14.9315 -14.7783
   -14.6959 -14.6431 -13.8521 -13.6391 -13.5228 -13.3902  -3.0114  -2.8697
    -1.5349  -1.4301  -1.2901  -1.2294  -0.9563  -0.8201   2.0452   2.2519
     2.4419   2.5560   2.6677   2.7434   3.1528   3.2418   4.2722   4.4316

          k = 0.5675-0.3276-0.2076 (  5099 PWs)   bands (ev):

   -33.6916 -33.6870 -17.1597 -16.9693 -15.1977 -15.1842 -14.7888 -14.7224
   -14.7211 -14.5890 -13.9029 -13.7789 -13.4273 -13.3721  -3.1110  -2.8210
    -1.5917  -1.3673  -1.2524  -1.2216  -1.0230  -0.8379   1.9631   2.2907
     2.4432   2.7030   2.7244   2.8367   3.0817   3.2619   4.1525   4.4557

          k = 0.4256-0.4095-0.1661 (  5106 PWs)   bands (ev):

   -33.6919 -33.6867 -17.1436 -16.9903 -15.1922 -15.1015 -14.8821 -14.7388
   -14.7080 -14.6225 -13.8731 -13.6674 -13.5057 -13.3853  -3.0758  -2.8842
    -1.5633  -1.3826  -1.2936  -1.2258  -1.0829  -0.7892   2.0603   2.3593
     2.4327   2.6480   2.6845   2.8806   3.0720   3.2863   4.1968   4.4036

          k = 0.4256-0.2457-0.1246 (  5098 PWs)   bands (ev):

   -33.6929 -33.6858 -17.1416 -16.9989 -15.1425 -15.1120 -14.8659 -14.7433
   -14.7219 -14.6681 -13.8010 -13.6759 -13.5072 -13.4222  -3.0860  -2.9578
    -1.5487  -1.3926  -1.3403  -1.2315  -1.1829  -0.7321   2.1756   2.4339
     2.4726   2.6615   2.6890   2.9468   3.0638   3.3383   4.1878   4.3144

          k =-0.0000-0.0000 0.2491 (  5121 PWs)   bands (ev):

   -33.6945 -33.6849 -17.0914 -17.0832 -15.0973 -15.0973 -14.8250 -14.8250
   -14.6535 -14.5708 -13.8273 -13.8273 -13.4281 -13.4281  -3.3028  -3.1028
    -1.5235  -1.5060  -1.5060  -1.3072  -1.3072  -0.5460   2.4059   2.4059
     2.7338   2.7338   3.0306   3.0306   3.4902   3.4902   3.8183   4.1397

          k =-0.1419-0.0819 0.2907 (  5111 PWs)   bands (ev):

   -33.6937 -33.6856 -17.0882 -17.0830 -15.1185 -15.0255 -14.9252 -14.7824
   -14.6664 -14.6024 -13.8379 -13.7009 -13.5139 -13.4172  -3.2574  -3.1081
    -1.5050  -1.4882  -1.4006  -1.3174  -1.3146  -0.6221   2.4275   2.4568
     2.6777   2.7014   2.9322   3.0381   3.3679   3.4362   3.9211   4.1420

          k =-0.2837-0.1638 0.3322 (  5095 PWs)   bands (ev):

   -33.6923 -33.6867 -17.0855 -17.0754 -15.1210 -15.0204 -14.9579 -14.7396
   -14.7242 -14.6276 -13.8013 -13.6047 -13.5969 -13.4253  -3.1691  -3.0637
    -1.4700  -1.4588  -1.3584  -1.3162  -1.2031  -0.7229   2.3949   2.5163
     2.6033   2.6271   2.7592   2.9847   3.1969   3.3065   4.0871   4.1950

          k = 0.8512 0.4914 0.0000 (  5110 PWs)   bands (ev):

   -33.6906 -33.6881 -17.0890 -17.0595 -15.1359 -15.0018 -14.9794 -14.8053
   -14.7006 -14.6297 -13.7754 -13.6149 -13.5782 -13.4308  -3.0968  -2.9654
    -1.4979  -1.4337  -1.3422  -1.2615  -1.0380  -0.8133   2.2394   2.3629
     2.5471   2.6245   2.7081   2.9857   3.0457   3.1895   4.1967   4.2925

          k = 0.7093 0.4095 0.0415 (  5120 PWs)   bands (ev):

   -33.6897 -33.6888 -17.1192 -17.0171 -15.1509 -15.0942 -14.8876 -14.8391
   -14.6943 -14.6109 -13.7522 -13.7347 -13.4735 -13.4403  -3.0697  -2.8687
    -1.5681  -1.3771  -1.3228  -1.1998  -0.9195  -0.9089   2.0530   2.2606
     2.4650   2.6602   2.7193   2.9471   3.0274   3.1586   4.2151   4.3953

          k = 0.5675 0.3276 0.0830 (  5093 PWs)   bands (ev):

   -33.6914 -33.6871 -17.1426 -16.9880 -15.1713 -15.1401 -14.8594 -14.7852
   -14.7059 -14.5966 -13.8355 -13.7090 -13.4716 -13.4084  -3.0764  -2.8564
    -1.5903  -1.3501  -1.2786  -1.2152  -1.0575  -0.8212   2.0090   2.3165
     2.4233   2.6860   2.6920   2.9486   3.0277   3.2279   4.1910   4.4218

          k =-0.1419 0.0819 0.3322 (  5103 PWs)   bands (ev):

   -33.6932 -33.6861 -17.0923 -17.0799 -15.0995 -15.0250 -14.9217 -14.8130
   -14.6510 -14.6281 -13.7861 -13.6996 -13.5137 -13.4517  -3.2449  -3.1320
    -1.4898  -1.4616  -1.3895  -1.3169  -1.3080  -0.6719   2.4370   2.4787
     2.6410   2.6852   2.9689   3.0710   3.3137   3.4375   3.9338   4.1187

          k =-0.2837 0.0000 0.3737 (  5090 PWs)   bands (ev):

   -33.6922 -33.6869 -17.0959 -17.0697 -15.1027 -15.0332 -14.9219 -14.7893
   -14.6920 -14.6467 -13.7589 -13.6631 -13.5413 -13.4596  -3.1713  -3.1143
    -1.4582  -1.4411  -1.3929  -1.3049  -1.2014  -0.7535   2.4271   2.4865
     2.6000   2.6359   2.8626   3.0321   3.1724   3.3516   4.0630   4.1484

          k = 0.8512 0.6553 0.0415 (  5110 PWs)   bands (ev):

   -33.6908 -33.6880 -17.0784 -17.0766 -15.1061 -15.0640 -14.8994 -14.7863
   -14.7231 -14.6602 -13.7500 -13.6663 -13.5320 -13.4514  -3.0965  -3.0297
    -1.4652  -1.4047  -1.4015  -1.2801  -1.0480  -0.8200   2.3127   2.3735
     2.6071   2.6123   2.7264   2.9458   3.0896   3.2333   4.1876   4.2384

          k = 0.7093 0.5734 0.0830 (  5101 PWs)   bands (ev):

   -33.6893 -33.6893 -17.1049 -17.0381 -15.1401 -15.0617 -14.9134 -14.7967
   -14.7033 -14.6593 -13.7720 -13.6873 -13.5047 -13.4292  -3.0607  -2.9101
    -1.5357  -1.3727  -1.3616  -1.2339  -0.9217  -0.8789   2.1222   2.2582
     2.5183   2.6317   2.6947   2.8582   3.1029   3.1695   4.2340   4.3609

          k = 0.5675 0.4914 0.1246 (  5098 PWs)   bands (ev):

   -33.6906 -33.6878 -17.1345 -16.9978 -15.1753 -15.1251 -14.8782 -14.7499
   -14.7117 -14.6185 -13.8535 -13.7046 -13.4768 -13.3914  -3.0630  -2.8396
    -1.5802  -1.3644  -1.2913  -1.2207  -0.9683  -0.8455   1.9977   2.2576
     2.4356   2.6515   2.6943   2.8214   3.1155   3.2042   4.2142   4.4423

          k =-0.2837 0.1638 0.4152 (  5096 PWs)   bands (ev):

   -33.6917 -33.6874 -17.1124 -17.0504 -15.1309 -14.9819 -14.9312 -14.8061
   -14.7044 -14.6486 -13.7598 -13.6411 -13.5477 -13.4654  -3.1425  -3.1040
    -1.4829  -1.4103  -1.3733  -1.2909  -1.1362  -0.8139   2.3971   2.4254
     2.6104   2.6300   2.8633   3.0459   3.0581   3.3421   4.1318   4.1356

          k = 0.8512 0.8191 0.0830 (  5105 PWs)   bands (ev):

   -33.6908 -33.6880 -17.1116 -17.0436 -15.1371 -15.0410 -14.8673 -14.7932
   -14.7224 -14.6728 -13.7568 -13.6900 -13.4979 -13.4601  -3.1044  -3.0250
    -1.4886  -1.4123  -1.3468  -1.2819  -1.0247  -0.8553   2.2756   2.3572
     2.5859   2.6583   2.7936   2.8733   3.0790   3.2686   4.1786   4.2439

          k = 0.7093 0.7372 0.1246 (  5105 PWs)   bands (ev):

   -33.6898 -33.6888 -17.0835 -17.0639 -15.1062 -15.0695 -14.8463 -14.8319
   -14.7183 -14.7131 -13.7382 -13.6870 -13.4926 -13.4589  -3.0007  -2.9848
    -1.4680  -1.4626  -1.3260  -1.2669  -0.9163  -0.8634   2.1841   2.2165
     2.5779   2.6072   2.7105   2.7474   3.1310   3.1976   4.2870   4.3080

          k = 0.5675 0.6553 0.1661 (  5104 PWs)   bands (ev):

   -33.6897 -33.6887 -17.0971 -17.0417 -15.1185 -15.0898 -14.8955 -14.7878
   -14.7143 -14.6957 -13.7747 -13.6933 -13.4836 -13.4276  -2.9901  -2.8941
    -1.5237  -1.4367  -1.2864  -1.2598  -0.8878  -0.8500   2.0757   2.1794
     2.4950   2.5744   2.6643   2.7077   3.1744   3.1951   4.3036   4.4001

          k = 0.8512-0.4914-0.2491 (  5100 PWs)   bands (ev):

   -33.6906 -33.6881 -17.1333 -17.0147 -15.1838 -15.0620 -14.8556 -14.7569
   -14.7249 -14.6323 -13.8208 -13.7318 -13.4715 -13.4128  -3.1326  -2.9350
    -1.5418  -1.3797  -1.2870  -1.2824  -0.9802  -0.8890   2.1552   2.3267
     2.5872   2.7003   2.7197   2.8661   3.0643   3.2519   4.1549   4.3277

          k = 0.7093-0.5734-0.2076 (  5106 PWs)   bands (ev):

   -33.6902 -33.6884 -17.1269 -17.0151 -15.1603 -15.1051 -14.8436 -14.7413
   -14.7178 -14.6816 -13.7791 -13.7698 -13.4454 -13.4245  -3.0846  -2.8863
    -1.5471  -1.3949  -1.2827  -1.2654  -0.9258  -0.8772   2.0732   2.2575
     2.5496   2.6577   2.6889   2.7955   3.1126   3.2064   4.2037   4.3893

          k = 0.7093-0.4095-0.1661 (  5107 PWs)   bands (ev):

   -33.6905 -33.6880 -17.1449 -16.9891 -15.1907 -15.1478 -14.7989 -14.7766
   -14.7113 -14.5972 -13.8267 -13.8102 -13.4126 -13.4076  -3.1071  -2.8298
    -1.5866  -1.3588  -1.2869  -1.2180  -0.9459  -0.8828   1.9920   2.2580
     2.4850   2.6886   2.7107   2.8465   3.0922   3.1953   4.1704   4.4370

          k =-0.0000 0.0000 0.3737 (  5112 PWs)   bands (ev):

   -33.6928 -33.6866 -17.0908 -17.0855 -15.0600 -15.0600 -14.8860 -14.8860
   -14.6379 -14.5840 -13.7444 -13.7444 -13.4876 -13.4876  -3.2844  -3.1582
    -1.4714  -1.4714  -1.3418  -1.3418  -1.3394  -0.7047   2.4640   2.4640
     2.6764   2.6764   3.1045   3.1045   3.4014   3.4014   3.8684   4.0752

          k =-0.1419-0.0819 0.4152 (  5095 PWs)   bands (ev):

   -33.6920 -33.6873 -17.0866 -17.0863 -15.0905 -14.9836 -14.9806 -14.8353
   -14.6487 -14.6054 -13.7679 -13.6324 -13.5790 -13.4652  -3.2423  -3.1531
    -1.4585  -1.4423  -1.3603  -1.3566  -1.2247  -0.7793   2.4714   2.5051
     2.6325   2.6355   3.0118   3.1319   3.2636   3.3599   3.9574   4.0873

          k = 0.9931 0.5734 0.0830 (  5102 PWs)   bands (ev):

   -33.6907 -33.6883 -17.0900 -17.0730 -15.1218 -15.0206 -14.9411 -14.7825
   -14.7005 -14.6238 -13.7811 -13.6134 -13.5887 -13.4432  -3.1714  -3.0791
    -1.4629  -1.4020  -1.3717  -1.3363  -1.0813  -0.8483   2.3896   2.4839
     2.5983   2.6233   2.8229   3.0905   3.1007   3.2489   4.0930   4.1743

          k = 0.8512 0.4914 0.1246 (  5109 PWs)   bands (ev):

   -33.6894 -33.6893 -17.1140 -17.0353 -15.1686 -15.0198 -14.9322 -14.7652
   -14.7199 -14.6239 -13.8124 -13.6749 -13.5203 -13.4137  -3.1215  -2.9465
    -1.5274  -1.3640  -1.3556  -1.2652  -0.9586  -0.8941   2.1892   2.3428
     2.5863   2.6651   2.6842   2.9453   3.0770   3.1831   4.1709   4.3125

          k =-0.1419 0.0819 0.4568 (  5091 PWs)   bands (ev):

   -33.6914 -33.6879 -17.0913 -17.0822 -15.0772 -14.9844 -14.9681 -14.8669
   -14.6331 -14.6249 -13.7294 -13.6164 -13.5902 -13.4974  -3.2246  -3.1779
    -1.4492  -1.4261  -1.3855  -1.3463  -1.1670  -0.8413   2.4913   2.5249
     2.5884   2.6301   3.0505   3.1634   3.2125   3.3463   3.9773   4.0614

          k = 0.9931 0.7372 0.1246 (  5100 PWs)   bands (ev):

   -33.6905 -33.6886 -17.0881 -17.0790 -15.0834 -15.0562 -14.8917 -14.8422
   -14.6649 -14.6487 -13.7185 -13.6784 -13.5291 -13.4941  -3.1605  -3.1410
    -1.4370  -1.4202  -1.3780  -1.3400  -1.0575  -0.8991   2.4493   2.4743
     2.5933   2.6104   2.9456   3.0348   3.1711   3.2650   4.0852   4.1146

          k = 0.8512 0.6553 0.1661 (  5098 PWs)   bands (ev):

   -33.6894 -33.6894 -17.0957 -17.0605 -15.1252 -15.0444 -14.8878 -14.7882
   -14.7152 -14.6732 -13.7565 -13.6721 -13.5214 -13.4533  -3.1051  -3.0275
    -1.4811  -1.4088  -1.3375  -1.3075  -0.9492  -0.9198   2.2893   2.3562
     2.6081   2.6329   2.7724   2.8896   3.1419   3.1900   4.1796   4.2408

          k = 0.9931-0.5734-0.2076 (  5098 PWs)   bands (ev):

   -33.6900 -33.6890 -17.1029 -17.0609 -15.1304 -14.9845 -14.9454 -14.8117
   -14.6911 -14.6317 -13.7698 -13.6030 -13.5907 -13.4577  -3.1626  -3.0932
    -1.4735  -1.3897  -1.3511  -1.3397  -0.9943  -0.9457   2.3910   2.4489
     2.6024   2.6243   2.8921   3.0062   3.1313   3.2549   4.1079   4.1539

          k =-0.0000-0.0000 0.4983 (  5100 PWs)   bands (ev):

   -33.6908 -33.6886 -17.0896 -17.0878 -15.0100 -15.0100 -14.9503 -14.9503
   -14.6195 -14.6008 -13.6532 -13.6532 -13.5648 -13.5648  -3.2541  -3.2112
    -1.4291  -1.4291  -1.3842  -1.3842  -1.1243  -0.9046   2.5343   2.5343
     2.6078   2.6078   3.1962   3.1962   3.2988   3.2988   3.9318   4.0029

          k = 1.1349 0.6553 0.1661 (  5104 PWs)   bands (ev):

   -33.6900 -33.6893 -17.0893 -17.0845 -15.0574 -15.0228 -14.9342 -14.8929
   -14.6331 -14.6167 -13.6934 -13.6417 -13.5712 -13.5243  -3.2159  -3.1937
    -1.4285  -1.3957  -1.3956  -1.3859  -1.0349  -0.9687   2.5213   2.5481
     2.5775   2.5883   3.1013   3.1595   3.2307   3.2721   4.0056   4.0301

     highest occupied level (ev):     4.4790

!    total energy              =    -367.43036430 Ry
     Harris-Foulkes estimate   =    -367.43036431 Ry
     estimated scf accuracy    <          5.6E-09 Ry

     The total energy is the sum of the following terms:

     one-electron contribution =    -148.19362945 Ry
     hartree contribution      =     103.48032958 Ry
     xc contribution           =     -75.27216609 Ry
     ewald contribution        =    -247.44489834 Ry

     convergence has been achieved in  10 iterations

     Forces acting on atoms (cartesian axes, Ry/au):

     atom    1 type  1   force =     0.00000000    0.00000000    0.00000000
     atom    2 type  1   force =    -0.00000000    0.00000000    0.00000000
     atom    3 type  2   force =     0.00000000   -0.00000000    0.00000000
     atom    4 type  2   force =    -0.00000000    0.00000000   -0.00000000
     atom    5 type  3   force =     0.00053065   -0.00091911   -0.00000000
     atom    6 type  3   force =    -0.00106129   -0.00000000    0.00000000
     atom    7 type  3   force =     0.00053065    0.00091911    0.00000000
     atom    8 type  3   force =     0.00106129    0.00000000   -0.00000000
     atom    9 type  3   force =    -0.00053065   -0.00091911   -0.00000000
     atom   10 type  3   force =    -0.00053065    0.00091911    0.00000000

     Total force =     0.002600     Total SCF correction =     0.000012


     Computing stress (Cartesian axis) and pressure

          total   stress  (Ry/bohr**3)                   (kbar)     P=   -0.04
   0.00000177  -0.00000000   0.00000000          0.26     -0.00      0.00
  -0.00000000   0.00000177   0.00000000         -0.00      0.26      0.00
   0.00000000   0.00000000  -0.00000442          0.00      0.00     -0.65


     BFGS Geometry Optimization

     number of scf cycles    =   1
     number of bfgs steps    =   0

     enthalpy new            =    -367.4303643013 Ry

     new trust radius        =       0.0010612916 bohr
     new conv_thr            =       0.0000000100 Ry

     new unit-cell volume =    854.47881 a.u.^3 (   126.62069 Ang^3 )
     density =      2.62518 g/cm^3

CELL_PARAMETERS (alat= 12.17220000)
   0.391616620  -0.226099961   0.891828207
  -0.000000000   0.452199922   0.891828207
  -0.391616620  -0.226099961   0.891828207

ATOMIC_POSITIONS (crystal)
Ca       0.500000000   0.500000000   0.500000000
Ca      -0.000000000   0.000000000   0.000000000
C        0.250000000   0.250000000   0.250000000
C        0.750000000   0.750000000   0.750000000
O        0.507113228   0.992886772   0.250000000
O        0.992886772   0.250000000   0.507113228
O        0.250000000   0.507113228   0.992886772
O        0.007113228   0.750000000   0.492886772
O        0.750000000   0.492886772   0.007113228
O        0.492886772   0.007113228   0.750000000



     Writing output data file CCO.save/
     NEW-OLD atomic charge density approx. for the potential

     Check: negative core charge=   -0.000003
     extrapolated charge   63.99859, renormalised to   64.00000

     total cpu time spent up to now is      316.3 secs

     Self-consistent Calculation

     iteration #  1     ecut=    50.00 Ry     beta= 0.70
     CG style diagonalization
     ethr =  1.00E-06,  avg # of iterations =  2.8

     Threshold (ethr) on eigenvalues was too large:
     Diagonalizing with lowered threshold

     CG style diagonalization
     c_bands:  1 eigenvalues not converged
     c_bands:  1 eigenvalues not converged
     c_bands:  1 eigenvalues not converged
     c_bands:  1 eigenvalues not converged
     c_bands:  1 eigenvalues not converged
     c_bands:  1 eigenvalues not converged
     c_bands:  2 eigenvalues not converged
     c_bands:  1 eigenvalues not converged
     c_bands:  1 eigenvalues not converged
     c_bands:  1 eigenvalues not converged
     c_bands:  1 eigenvalues not converged
     c_bands:  1 eigenvalues not converged
     c_bands:  1 eigenvalues not converged
     c_bands:  1 eigenvalues not converged
     c_bands:  1 eigenvalues not converged
     c_bands:  2 eigenvalues not converged
     c_bands:  1 eigenvalues not converged
     c_bands:  1 eigenvalues not converged
     c_bands:  1 eigenvalues not converged
     c_bands:  1 eigenvalues not converged
     c_bands:  1 eigenvalues not converged
     c_bands:  1 eigenvalues not converged
     c_bands:  1 eigenvalues not converged
     ethr =  4.47E-09,  avg # of iterations =  5.0

     total cpu time spent up to now is      374.8 secs

     total energy              =    -367.43036467 Ry
     Harris-Foulkes estimate   =    -367.43288214 Ry
     estimated scf accuracy    <       0.00000369 Ry

     iteration #  2     ecut=    50.00 Ry     beta= 0.70
     CG style diagonalization
     ethr =  5.76E-09,  avg # of iterations =  3.9

     total cpu time spent up to now is      405.0 secs

     total energy              =    -367.43036560 Ry
     Harris-Foulkes estimate   =    -367.43036640 Ry
     estimated scf accuracy    <       0.00000139 Ry

     iteration #  3     ecut=    50.00 Ry     beta= 0.70
     CG style diagonalization
     ethr =  2.17E-09,  avg # of iterations =  3.6

     total cpu time spent up to now is      432.7 secs

     total energy              =    -367.43036596 Ry
     Harris-Foulkes estimate   =    -367.43036598 Ry
     estimated scf accuracy    <       0.00000003 Ry

     iteration #  4     ecut=    50.00 Ry     beta= 0.70
     CG style diagonalization
     ethr =  5.35E-11,  avg # of iterations =  4.0

     total cpu time spent up to now is      463.3 secs

     End of self-consistent calculation

          k = 0.0000 0.0000 0.0000 (  5173 PWs)   bands (ev):

   -33.6944 -33.6819 -17.0842 -17.0730 -15.1268 -15.1268 -14.7603 -14.7603
   -14.6664 -14.5573 -13.9060 -13.9060 -13.3735 -13.3735  -3.3165  -3.0434
    -1.6917  -1.5351  -1.5351  -1.2751  -1.2751  -0.4037   2.3537   2.3537
     2.7910   2.7910   2.9607   2.9607   3.5727   3.5727   3.7717   4.1991

          k =-0.1419-0.0819 0.0415 (  5135 PWs)   bands (ev):

   -33.6940 -33.6822 -17.0828 -17.0706 -15.1261 -15.0879 -14.8000 -14.7582
   -14.6816 -14.6246 -13.8794 -13.8042 -13.4232 -13.3825  -3.2665  -3.0502
    -1.6460  -1.5157  -1.4955  -1.2975  -1.2677  -0.4568   2.3785   2.4101
     2.7348   2.7760   2.8667   2.9128   3.4926   3.5111   3.8850   4.2037

          k =-0.2837-0.1638 0.0831 (  5102 PWs)   bands (ev):

   -33.6928 -33.6832 -17.0996 -17.0420 -15.1245 -15.0174 -14.9248 -14.7687
   -14.6911 -14.6677 -13.8130 -13.6442 -13.5363 -13.4103  -3.1464  -3.0521
    -1.5598  -1.4621  -1.3842  -1.3217  -1.2623  -0.5804   2.4192   2.4983
     2.6141   2.6453   2.7770   2.7861   3.3445   3.3760   4.0895   4.2163

          k =-0.4256-0.2457 0.1246 (  5099 PWs)   bands (ev):

   -33.6910 -33.6847 -17.1007 -17.0269 -15.1149 -15.0081 -14.9912 -14.8358
   -14.6686 -14.6513 -13.7320 -13.6157 -13.5552 -13.4598  -3.0256  -3.0233
    -1.5394  -1.4159  -1.2771  -1.2714  -1.2060  -0.7105   2.2856   2.3606
     2.5713   2.5943   2.7195   2.8255   3.1964   3.2302   4.2426   4.2574

          k =-0.5674-0.3276 0.1661 (  5094 PWs)   bands (ev):

   -33.6888 -33.6866 -17.0773 -17.0433 -15.0569 -15.0191 -15.0041 -14.9435
   -14.6556 -14.6400 -13.6421 -13.5982 -13.5544 -13.5392  -2.9770  -2.9646
    -1.5262  -1.4647  -1.2406  -1.2303  -1.0076  -0.8402   2.1502   2.2085
     2.5337   2.5626   2.8039   2.8557   3.1070   3.1214   4.2905   4.3194

          k =-0.1419 0.0819 0.0831 (  5127 PWs)   bands (ev):

   -33.6939 -33.6823 -17.0838 -17.0700 -15.1063 -15.1038 -14.7970 -14.7611
   -14.6763 -14.6417 -13.8426 -13.8257 -13.4100 -13.4031  -3.2641  -3.0571
    -1.6306  -1.5096  -1.4998  -1.3019  -1.2655  -0.4678   2.3791   2.4156
     2.7390   2.7432   2.8929   2.9198   3.4647   3.5277   3.8860   4.1977

          k =-0.2837 0.0000 0.1246 (  5102 PWs)   bands (ev):

   -33.6930 -33.6830 -17.0976 -17.0485 -15.1101 -15.0571 -14.8625 -14.7651
   -14.7063 -14.6713 -13.8039 -13.7063 -13.4880 -13.4175  -3.1770  -3.0648
    -1.5572  -1.4773  -1.4229  -1.3233  -1.2549  -0.5621   2.4099   2.4883
     2.6208   2.7105   2.7647   2.8640   3.3387   3.4403   4.0382   4.2034

          k =-0.4256-0.0819 0.1661 (  5091 PWs)   bands (ev):

   -33.6914 -33.6843 -17.1022 -17.0310 -15.1083 -15.0666 -14.9050 -14.8174
   -14.6748 -14.6703 -13.7312 -13.6936 -13.4979 -13.4552  -3.0632  -3.0406
    -1.5221  -1.4187  -1.3585  -1.2506  -1.2323  -0.6802   2.3458   2.4492
     2.5335   2.6112   2.7222   2.8200   3.1928   3.3109   4.2113   4.2323

          k =-0.5674-0.1638 0.2076 (  5094 PWs)   bands (ev):

   -33.6895 -33.6860 -17.0822 -17.0413 -15.0975 -15.0528 -14.9345 -14.9022
   -14.6597 -14.6491 -13.7046 -13.6467 -13.5214 -13.4783  -2.9879  -2.9803
    -1.5117  -1.4523  -1.2927  -1.2327  -1.0501  -0.7908   2.1966   2.2763
     2.5090   2.5471   2.7535   2.8378   3.1070   3.1996   4.2886   4.3084

          k = 0.5674 0.4914-0.1246 (  5112 PWs)   bands (ev):

   -33.6880 -33.6874 -17.0752 -17.0441 -15.0902 -15.0286 -14.9907 -14.9077
   -14.6619 -14.6380 -13.6972 -13.6171 -13.5457 -13.4807  -2.9802  -2.9295
    -1.5262  -1.4620  -1.2590  -1.2131  -0.9309  -0.8883   2.1298   2.1982
     2.4804   2.5417   2.7689   2.8337   3.1141   3.1492   4.3024   4.3521

          k = 0.4256 0.4095-0.0831 (  5095 PWs)   bands (ev):

   -33.6901 -33.6854 -17.1057 -17.0146 -15.1364 -15.0339 -14.9806 -14.8296
   -14.6807 -14.6262 -13.7564 -13.6232 -13.5338 -13.4493  -3.0176  -2.9469
    -1.5541  -1.3947  -1.2790  -1.2267  -1.1184  -0.7687   2.1511   2.3354
     2.4799   2.5746   2.6973   2.8676   3.1315   3.2122   4.2539   4.3460

          k = 0.2837 0.3276-0.0415 (  5092 PWs)   bands (ev):

   -33.6919 -33.6838 -17.1130 -17.0179 -15.1192 -15.0649 -14.9096 -14.7914
   -14.6959 -14.6635 -13.7491 -13.6837 -13.4965 -13.4486  -3.0511  -3.0450
    -1.5433  -1.4068  -1.3308  -1.2995  -1.2396  -0.6584   2.3339   2.4646
     2.5453   2.6370   2.6490   2.8285   3.2234   3.3290   4.2198   4.2299

          k = 0.1419 0.2457 0.0000 (  5103 PWs)   bands (ev):

   -33.6933 -33.6827 -17.0988 -17.0465 -15.1075 -15.0677 -14.8198 -14.8032
   -14.6954 -14.6779 -13.8096 -13.7170 -13.4767 -13.4140  -3.1767  -3.0560
    -1.5814  -1.4785  -1.4357  -1.3277  -1.2485  -0.5377   2.4091   2.4902
     2.6176   2.7447   2.7513   2.8210   3.3721   3.4437   4.0359   4.2126

          k =-0.2837 0.1638 0.1661 (  5092 PWs)   bands (ev):

   -33.6925 -33.6834 -17.1106 -17.0324 -15.0908 -15.0748 -14.8204 -14.7974
   -14.7375 -14.6851 -13.7429 -13.7095 -13.4827 -13.4555  -3.1224  -3.0869
    -1.4946  -1.4661  -1.4476  -1.2851  -1.2421  -0.6179   2.4230   2.4274
     2.6222   2.6383   2.7572   2.9080   3.2361   3.4373   4.1051   4.1879

          k =-0.4256 0.0819 0.2076 (  5105 PWs)   bands (ev):

   -33.6914 -33.6843 -17.1201 -17.0134 -15.1300 -15.0710 -14.8526 -14.7959
   -14.7018 -14.6849 -13.7612 -13.6852 -13.4932 -13.4442  -3.0823  -3.0260
    -1.5026  -1.4201  -1.3931  -1.2296  -1.1976  -0.7058   2.2859   2.4172
     2.5520   2.6387   2.7108   2.9006   3.1060   3.3624   4.1959   4.2418

          k =-0.5674 0.0000 0.2492 (  5103 PWs)   bands (ev):

   -33.6899 -33.6856 -17.1060 -17.0191 -15.1557 -15.0281 -14.9287 -14.8200
   -14.6821 -14.6533 -13.8029 -13.6068 -13.5491 -13.4172  -3.0257  -2.9541
    -1.5014  -1.4273  -1.3517  -1.2197  -1.0483  -0.7777   2.1616   2.3257
     2.5036   2.5570   2.6968   2.8385   3.0830   3.2743   4.2531   4.3439

          k = 0.5674 0.6552-0.0831 (  5105 PWs)   bands (ev):

   -33.6882 -33.6872 -17.0664 -17.0546 -15.1268 -15.0284 -14.9547 -14.8612
   -14.6782 -14.6553 -13.7580 -13.6460 -13.5151 -13.4346  -2.9460  -2.9418
    -1.5032  -1.4560  -1.3193  -1.2071  -0.9066  -0.8586   2.1463   2.1865
     2.4607   2.4982   2.7026   2.7572   3.1373   3.2176   4.3458   4.3540

          k = 0.4256 0.5733-0.0415 (  5101 PWs)   bands (ev):

   -33.6889 -33.6864 -17.0956 -17.0219 -15.1464 -15.0456 -14.9856 -14.7875
   -14.6962 -14.6312 -13.7970 -13.6391 -13.5198 -13.4132  -2.9881  -2.8974
    -1.5545  -1.3836  -1.3089  -1.2096  -0.9953  -0.8115   2.1020   2.2674
     2.4177   2.5031   2.6814   2.7845   3.1786   3.1959   4.2973   4.4041

          k = 0.2837 0.4914 0.0000 (  5099 PWs)   bands (ev):

   -33.6906 -33.6849 -17.1168 -17.0031 -15.1674 -15.0417 -14.9704 -14.7512
   -14.7110 -14.6226 -13.8131 -13.6378 -13.5214 -13.4124  -3.0334  -2.9388
    -1.5577  -1.3642  -1.2954  -1.2291  -1.1661  -0.7433   2.1634   2.4359
     2.4445   2.5311   2.6459   2.8561   3.1555   3.2572   4.2439   4.3602

          k =-0.4256 0.2457 0.2492 (  5096 PWs)   bands (ev):

   -33.6909 -33.6847 -17.1401 -16.9868 -15.1535 -15.1273 -14.7976 -14.7394
   -14.7175 -14.6883 -13.7974 -13.7385 -13.4570 -13.4165  -3.1149  -2.9412
    -1.5393  -1.3914  -1.3477  -1.2149  -1.1228  -0.7690   2.1468   2.3780
     2.4979   2.7076   2.7152   2.9610   2.9894   3.3470   4.1615   4.3274

          k =-0.5674 0.1638 0.2907 (  5108 PWs)   bands (ev):

   -33.6900 -33.6854 -17.1396 -16.9810 -15.1917 -15.1214 -14.8156 -14.7542
   -14.6943 -14.6424 -13.8730 -13.7168 -13.4606 -13.3793  -3.0945  -2.8738
    -1.5477  -1.4010  -1.3110  -1.2031  -1.0235  -0.8114   2.0404   2.3037
     2.4807   2.6799   2.7080   2.8060   3.0740   3.2936   4.1800   4.4105

          k = 0.5674 0.8190-0.0415 (  5109 PWs)   bands (ev):

   -33.6889 -33.6864 -17.1090 -17.0119 -15.1699 -15.0667 -14.8720 -14.8059
   -14.7064 -14.6515 -13.8348 -13.6682 -13.4887 -13.3941  -3.0149  -2.8720
    -1.5005  -1.4578  -1.3293  -1.1976  -0.9179  -0.8281   2.0349   2.2233
     2.4814   2.5706   2.6745   2.6961   3.1485   3.2486   4.2697   4.4275

          k = 0.4256 0.7371 0.0000 (  5081 PWs)   bands (ev):

   -33.6876 -33.6876 -17.0602 -17.0600 -15.1151 -15.0802 -14.9142 -14.8250
   -14.7148 -14.6566 -13.7324 -13.7256 -13.4508 -13.4476  -2.9269  -2.9264
    -1.5220  -1.4125  -1.3545  -1.1991  -0.8886  -0.8426   2.1327   2.1444
     2.4608   2.4781   2.6601   2.6968   3.1809   3.2243   4.3705   4.3741

          k =-0.5674 0.3276 0.3322 (  5091 PWs)   bands (ev):

   -33.6899 -33.6855 -17.1588 -16.9549 -15.2067 -15.2008 -14.7460 -14.7248
   -14.6930 -14.5893 -13.9227 -13.8227 -13.3970 -13.3563  -3.1312  -2.8060
    -1.5877  -1.3778  -1.2639  -1.1910  -0.9863  -0.8540   1.9437   2.2552
     2.4973   2.7271   2.7337   2.7427   3.1071   3.2710   4.1314   4.4681

          k = 0.5674 0.9828 0.0000 (  5108 PWs)   bands (ev):

   -33.6895 -33.6859 -17.1474 -16.9679 -15.2004 -15.1736 -14.7704 -14.7184
   -14.7158 -14.6156 -13.9129 -13.7780 -13.4165 -13.3598  -3.0987  -2.8067
    -1.5686  -1.4049  -1.2777  -1.1894  -0.9486  -0.8447   1.9422   2.2320
     2.5049   2.6670   2.7010   2.7094   3.1445   3.2504   4.1698   4.4765

          k =-0.0000-0.0000 0.1246 (  5164 PWs)   bands (ev):

   -33.6941 -33.6823 -17.0842 -17.0736 -15.1191 -15.1191 -14.7777 -14.7777
   -14.6626 -14.5602 -13.8836 -13.8836 -13.3863 -13.3863  -3.3138  -3.0607
    -1.6461  -1.5273  -1.5273  -1.2830  -1.2830  -0.4386   2.3671   2.3671
     2.7749   2.7749   2.9800   2.9800   3.5511   3.5511   3.7829   4.1825

          k =-0.1419-0.0819 0.1661 (  5127 PWs)   bands (ev):

   -33.6934 -33.6828 -17.0817 -17.0726 -15.1298 -15.0610 -14.8600 -14.7513
   -14.6787 -14.6076 -13.8764 -13.7587 -13.4574 -13.3860  -3.2655  -3.0709
    -1.5899  -1.5077  -1.4680  -1.3029  -1.2854  -0.5076   2.3952   2.4239
     2.7112   2.7610   2.8731   2.9635   3.4548   3.4828   3.8955   4.1822

          k =-0.2837-0.1638 0.2076 (  5101 PWs)   bands (ev):

   -33.6920 -33.6839 -17.0896 -17.0537 -15.1265 -14.9831 -14.9814 -14.7492
   -14.7046 -14.6414 -13.8146 -13.6149 -13.5712 -13.4095  -3.1605  -3.0542
    -1.5274  -1.4597  -1.3496  -1.2943  -1.2880  -0.6276   2.4063   2.5263
     2.6049   2.6352   2.7474   2.8694   3.2964   3.3431   4.0852   4.2092

          k =-0.4256-0.2457 0.2492 (  5106 PWs)   bands (ev):

   -33.6901 -33.6855 -17.0770 -17.0537 -15.0972 -15.0464 -14.9559 -14.8467
   -14.6722 -14.6446 -13.7261 -13.6261 -13.5607 -13.4537  -3.0644  -2.9929
    -1.4972  -1.4558  -1.3119  -1.2668  -1.1208  -0.7459   2.3000   2.3433
     2.5491   2.5900   2.7600   2.8522   3.1445   3.2072   4.2252   4.2675

          k = 0.7093 0.4095-0.0831 (  5111 PWs)   bands (ev):

   -33.6880 -33.6874 -17.0791 -17.0426 -15.0919 -15.0263 -14.9753 -14.9163
   -14.6678 -14.6301 -13.6749 -13.6335 -13.5491 -13.4866  -3.0217  -2.9213
    -1.5262  -1.4586  -1.2777  -1.2084  -0.9500  -0.8772   2.1289   2.2198
     2.4990   2.5977   2.7742   2.9178   3.0436   3.1400   4.2648   4.3431

          k = 0.5674 0.3276-0.0415 (  5099 PWs)   bands (ev):

   -33.6894 -33.6860 -17.1093 -17.0087 -15.1225 -15.0772 -14.9392 -14.8633
   -14.6815 -14.6138 -13.7403 -13.6273 -13.5272 -13.4633  -3.0316  -2.9078
    -1.5697  -1.3906  -1.2778  -1.1973  -1.0556  -0.8178   2.0749   2.2782
     2.4711   2.6297   2.7209   2.9474   3.0431   3.1807   4.2377   4.3725

          k = 0.4256 0.2457 0.0000 (  5082 PWs)   bands (ev):

   -33.6914 -33.6843 -17.1204 -17.0049 -15.1370 -15.0535 -14.9381 -14.7915
   -14.6953 -14.6470 -13.7720 -13.6051 -13.5593 -13.4359  -3.0564  -2.9889
    -1.5536  -1.3939  -1.2864  -1.2572  -1.2292  -0.7051   2.2241   2.4084
     2.5444   2.6382   2.6465   2.8915   3.1472   3.2967   4.2143   4.2874

          k = 0.2837 0.1638 0.0415 (  5097 PWs)   bands (ev):

   -33.6929 -33.6830 -17.1069 -17.0346 -15.1074 -15.0556 -14.8605 -14.7870
   -14.7012 -14.6908 -13.7875 -13.6770 -13.5054 -13.4259  -3.1330  -3.0634
    -1.5490  -1.4588  -1.4337  -1.3090  -1.2450  -0.5777   2.4259   2.4586
     2.6297   2.6403   2.7382   2.8433   3.3073   3.4255   4.0960   4.2089

          k =-0.1419 0.0819 0.2076 (  5111 PWs)   bands (ev):

   -33.6931 -33.6831 -17.0845 -17.0707 -15.1075 -15.0715 -14.8549 -14.7685
   -14.6653 -14.6386 -13.8181 -13.7767 -13.4465 -13.4185  -3.2582  -3.0889
    -1.5521  -1.4900  -1.4762  -1.3149  -1.2790  -0.5396   2.3985   2.4395
     2.6923   2.7261   2.9129   2.9895   3.4023   3.5017   3.9009   4.1658

          k =-0.2837 0.0000 0.2492 (  5100 PWs)   bands (ev):

   -33.6921 -33.6840 -17.0940 -17.0541 -15.1102 -15.0368 -14.9066 -14.7425
   -14.7224 -14.6559 -13.7859 -13.6802 -13.5149 -13.4306  -3.1769  -3.0876
    -1.4995  -1.4694  -1.3986  -1.2949  -1.2719  -0.6340   2.4143   2.4868
     2.6183   2.6672   2.8001   2.9435   3.2622   3.4124   4.0459   4.1787

          k =-0.4256-0.0819 0.2907 (  5098 PWs)   bands (ev):

   -33.6905 -33.6852 -17.0877 -17.0489 -15.0888 -15.0821 -14.8986 -14.8118
   -14.6983 -14.6571 -13.7336 -13.6803 -13.5149 -13.4513  -3.0825  -3.0349
    -1.4755  -1.4341  -1.3856  -1.2618  -1.1419  -0.7337   2.3363   2.4066
     2.5727   2.6008   2.7263   2.8939   3.1206   3.2848   4.1975   4.2344

          k = 0.7093 0.5733-0.0415 (  5100 PWs)   bands (ev):

   -33.6887 -33.6868 -17.0702 -17.0562 -15.1132 -15.0271 -14.9555 -14.8640
   -14.6769 -14.6500 -13.7381 -13.6071 -13.5658 -13.4463  -3.0284  -2.9441
    -1.5039  -1.4418  -1.3340  -1.2223  -0.9781  -0.8288   2.1818   2.2543
     2.5016   2.5828   2.7320   2.8794   3.0676   3.1901   4.2684   4.3246

          k = 0.5674 0.4914 0.0000 (  5103 PWs)   bands (ev):

   -33.6886 -33.6868 -17.1039 -17.0144 -15.1394 -15.0663 -14.9540 -14.8222
   -14.6877 -14.6215 -13.7793 -13.6300 -13.5323 -13.4259  -3.0274  -2.8813
    -1.5652  -1.3812  -1.3102  -1.1953  -0.9620  -0.8555   2.0586   2.2474
     2.4363   2.6033   2.7179   2.8654   3.0945   3.1766   4.2542   4.3995

          k = 0.4256 0.4095 0.0415 (  5099 PWs)   bands (ev):

   -33.6904 -33.6851 -17.1244 -16.9939 -15.1723 -15.0644 -14.9445 -14.7623
   -14.7054 -14.6148 -13.8254 -13.6112 -13.5463 -13.4053  -3.0515  -2.9114
    -1.5692  -1.3621  -1.2813  -1.2296  -1.1286  -0.7672   2.1000   2.3824
     2.4309   2.6145   2.6672   2.9010   3.0988   3.2530   4.2209   4.3784

          k = 0.2837 0.3276 0.0831 (  5099 PWs)   bands (ev):

   -33.6919 -33.6838 -17.1193 -17.0118 -15.1229 -15.0745 -14.8884 -14.7760
   -14.7072 -14.6733 -13.7609 -13.6787 -13.4990 -13.4416  -3.0655  -3.0323
    -1.5333  -1.4009  -1.3787  -1.2626  -1.2298  -0.6678   2.3087   2.4512
     2.5757   2.5942   2.6749   2.8621   3.1830   3.3562   4.2106   4.2366

          k =-0.2837 0.1638 0.2907 (  5099 PWs)   bands (ev):

   -33.6915 -33.6844 -17.1100 -17.0354 -15.1167 -15.0299 -14.8716 -14.7781
   -14.7382 -14.6679 -13.7372 -13.6892 -13.4966 -13.4689  -3.1166  -3.1141
    -1.4811  -1.4298  -1.4207  -1.2567  -1.2355  -0.6973   2.4079   2.4183
     2.6152   2.6369   2.8017   2.9799   3.1429   3.4083   4.1174   4.1588

          k =-0.4256 0.0819 0.3322 (  5100 PWs)   bands (ev):

   -33.6905 -33.6852 -17.1150 -17.0220 -15.1374 -15.0533 -14.8437 -14.7981
   -14.7263 -14.6703 -13.7553 -13.6929 -13.4843 -13.4548  -3.0974  -3.0251
    -1.4865  -1.4198  -1.3808  -1.2442  -1.1174  -0.7686   2.2742   2.3787
     2.5632   2.6648   2.7463   2.9235   3.0444   3.3331   4.1829   4.2431

          k = 0.7093 0.7371 0.0000 (  5116 PWs)   bands (ev):

   -33.6892 -33.6863 -17.0930 -17.0364 -15.1357 -15.0374 -14.8853 -14.8353
   -14.6951 -14.6837 -13.7767 -13.6331 -13.5268 -13.4306  -3.0161  -2.9698
    -1.4612  -1.4553  -1.3683  -1.2269  -0.9760  -0.8144   2.1670   2.2648
     2.5357   2.5911   2.7070   2.8026   3.0804   3.2503   4.2661   4.3263

          k = 0.5674 0.6552 0.0415 (  5091 PWs)   bands (ev):

   -33.6877 -33.6877 -17.0731 -17.0497 -15.1217 -15.0455 -14.9466 -14.8119
   -14.7064 -14.6686 -13.7639 -13.6555 -13.5090 -13.4271  -2.9711  -2.9176
    -1.5258  -1.3991  -1.3568  -1.2118  -0.8800  -0.8639   2.1209   2.1691
     2.4690   2.5453   2.6824   2.7420   3.1438   3.2098   4.3266   4.3729

          k = 0.4256 0.5733 0.0831 (  5103 PWs)   bands (ev):

   -33.6891 -33.6863 -17.1053 -17.0122 -15.1658 -15.0420 -14.9787 -14.7494
   -14.7125 -14.6320 -13.8330 -13.6194 -13.5358 -13.3931  -3.0046  -2.8806
    -1.5577  -1.3779  -1.3008  -1.2249  -0.9892  -0.8062   2.0704   2.2719
     2.4152   2.5329   2.6681   2.7786   3.1640   3.2194   4.2797   4.4210

          k = 0.2837 0.4914 0.1246 (  5103 PWs)   bands (ev):

   -33.6904 -33.6851 -17.1141 -17.0073 -15.1651 -15.0360 -14.9595 -14.7815
   -14.6922 -14.6308 -13.8123 -13.6254 -13.5321 -13.4127  -3.0315  -2.9429
    -1.5423  -1.3884  -1.3108  -1.2323  -1.1212  -0.7524   2.1623   2.3885
     2.4766   2.5346   2.6658   2.8520   3.1270   3.2692   4.2460   4.3559

          k =-0.4256 0.2457 0.3738 (  5100 PWs)   bands (ev):

   -33.6901 -33.6855 -17.1374 -16.9925 -15.1779 -15.0988 -14.7788 -14.7573
   -14.7414 -14.6540 -13.7913 -13.7726 -13.4332 -13.4248  -3.1315  -2.9340
    -1.5414  -1.3876  -1.3200  -1.2305  -1.0555  -0.8230   2.1402   2.3362
     2.5467   2.7194   2.7450   2.8680   3.0264   3.3172   4.1496   4.3318

          k = 0.7093 0.9009 0.0415 (  5107 PWs)   bands (ev):

   -33.6894 -33.6860 -17.1340 -16.9899 -15.1780 -15.1246 -14.7928 -14.7435
   -14.7126 -14.6709 -13.8346 -13.7569 -13.4326 -13.3998  -3.0977  -2.8749
    -1.5448  -1.4039  -1.2989  -1.2218  -0.9704  -0.8404   2.0446   2.2691
     2.5317   2.6923   2.7071   2.7540   3.0887   3.2658   4.1825   4.4053

          k = 0.5674 0.8190 0.0831 (  5101 PWs)   bands (ev):

   -33.6886 -33.6868 -17.1020 -17.0207 -15.1466 -15.0823 -14.8459 -14.8136
   -14.7153 -14.6773 -13.7998 -13.6939 -13.4692 -13.4125  -3.0075  -2.8806
    -1.5020  -1.4584  -1.3145  -1.2189  -0.8948  -0.8361   2.0450   2.1975
     2.5095   2.5767   2.6617   2.6863   3.1584   3.2289   4.2809   4.4166

          k = 0.4256 0.7371 0.1246 (  5092 PWs)   bands (ev):

   -33.6876 -33.6876 -17.0602 -17.0601 -15.1078 -15.0908 -14.8937 -14.8510
   -14.6950 -14.6676 -13.7307 -13.7273 -13.4500 -13.4484  -2.9268  -2.9265
    -1.5056  -1.4599  -1.2972  -1.2289  -0.8753  -0.8526   2.1355   2.1414
     2.4653   2.4739   2.6685   2.6869   3.1924   3.2141   4.3714   4.3732

          k = 0.2837 0.6552 0.1661 (  5109 PWs)   bands (ev):

   -33.6886 -33.6868 -17.0821 -17.0368 -15.1305 -15.0502 -14.9537 -14.8511
   -14.6726 -14.6437 -13.7633 -13.6559 -13.5049 -13.4343  -2.9664  -2.9202
    -1.5196  -1.4522  -1.2630  -1.2381  -0.9556  -0.8326   2.1301   2.2340
     2.4503   2.4751   2.7024   2.7667   3.1613   3.2056   4.3198   4.3808

          k = 0.7093-0.4095-0.2907 (  5090 PWs)   bands (ev):

   -33.6895 -33.6859 -17.1538 -16.9620 -15.2088 -15.1835 -14.7460 -14.7244
   -14.7160 -14.5903 -13.8935 -13.8343 -13.3902 -13.3700  -3.1299  -2.8093
    -1.5883  -1.3751  -1.2469  -1.2161  -0.9618  -0.8665   1.9539   2.2456
     2.5214   2.6768   2.7391   2.7706   3.1098   3.2461   4.1382   4.4614

          k = 0.5674-0.4914-0.2492 (  5092 PWs)   bands (ev):

   -33.6894 -33.6860 -17.1422 -16.9735 -15.1940 -15.1607 -14.8058 -14.7244
   -14.7078 -14.6176 -13.8968 -13.7563 -13.4316 -13.3660  -3.0902  -2.8157
    -1.5739  -1.3931  -1.2603  -1.2171  -0.9535  -0.8416   1.9566   2.2411
     2.4751   2.6719   2.6948   2.7460   3.1374   3.2357   4.1810   4.4669

          k = 0.4256-0.5733-0.2076 (  5106 PWs)   bands (ev):

   -33.6891 -33.6863 -17.1100 -17.0088 -15.1757 -15.0539 -14.9299 -14.7768
   -14.6944 -14.6412 -13.8483 -13.6353 -13.5187 -13.3861  -3.0139  -2.8719
    -1.5331  -1.4280  -1.2876  -1.2275  -0.9523  -0.8154   2.0451   2.2517
     2.4420   2.5562   2.6675   2.7433   3.1527   3.2417   4.2696   4.4291

          k = 0.5674-0.3276-0.2076 (  5099 PWs)   bands (ev):

   -33.6900 -33.6854 -17.1524 -16.9612 -15.1965 -15.1829 -14.7874 -14.7209
   -14.7197 -14.5867 -13.8992 -13.7750 -13.4232 -13.3679  -3.1135  -2.8231
    -1.5902  -1.3651  -1.2492  -1.2199  -1.0195  -0.8330   1.9630   2.2903
     2.4433   2.7029   2.7246   2.8366   3.0817   3.2619   4.1498   4.4531

          k = 0.4256-0.4095-0.1661 (  5106 PWs)   bands (ev):

   -33.6904 -33.6851 -17.1362 -16.9823 -15.1910 -15.1001 -14.8806 -14.7373
   -14.7066 -14.6204 -13.8693 -13.6635 -13.5017 -13.3812  -3.0783  -2.8862
    -1.5616  -1.3805  -1.2908  -1.2240  -1.0795  -0.7842   2.0602   2.3590
     2.4328   2.6481   2.6844   2.8805   3.0720   3.2863   4.1941   4.4010

          k = 0.4256-0.2457-0.1246 (  5098 PWs)   bands (ev):

   -33.6914 -33.6843 -17.1341 -16.9910 -15.1412 -15.1107 -14.8644 -14.7417
   -14.7203 -14.6663 -13.7972 -13.6720 -13.5031 -13.4181  -3.0884  -2.9597
    -1.5469  -1.3908  -1.3369  -1.2299  -1.1803  -0.7269   2.1755   2.4337
     2.4725   2.6614   2.6892   2.9469   3.0637   3.3383   4.1851   4.3119

          k =-0.0000-0.0000 0.2492 (  5121 PWs)   bands (ev):

   -33.6930 -33.6834 -17.0839 -17.0754 -15.0960 -15.0960 -14.8236 -14.8236
   -14.6520 -14.5686 -13.8235 -13.8235 -13.4239 -13.4239  -3.3045  -3.1049
    -1.5193  -1.5046  -1.5046  -1.3057  -1.3057  -0.5403   2.4055   2.4055
     2.7340   2.7340   3.0308   3.0308   3.4904   3.4904   3.8153   4.1370

          k =-0.1419-0.0819 0.2907 (  5111 PWs)   bands (ev):

   -33.6922 -33.6841 -17.0804 -17.0756 -15.1172 -15.0242 -14.9237 -14.7809
   -14.6649 -14.6003 -13.8340 -13.6970 -13.5098 -13.4131  -3.2591  -3.1102
    -1.5023  -1.4868  -1.3978  -1.3159  -1.3127  -0.6166   2.4271   2.4565
     2.6778   2.7015   2.9324   3.0383   3.3680   3.4363   3.9183   4.1393

          k =-0.2837-0.1638 0.3322 (  5095 PWs)   bands (ev):

   -33.6908 -33.6852 -17.0778 -17.0679 -15.1196 -15.0190 -14.9566 -14.7379
   -14.7228 -14.6256 -13.7974 -13.6006 -13.5930 -13.4211  -3.1710  -3.0659
    -1.4672  -1.4574  -1.3568  -1.3144  -1.1998  -0.7177   2.3947   2.5161
     2.6035   2.6270   2.7593   2.9847   3.1969   3.3065   4.0845   4.1923

          k = 0.8512 0.4914 0.0000 (  5110 PWs)   bands (ev):

   -33.6891 -33.6866 -17.0815 -17.0517 -15.1346 -15.0004 -14.9781 -14.8038
   -14.6990 -14.6277 -13.7715 -13.6111 -13.5742 -13.4267  -3.0989  -2.9676
    -1.4963  -1.4312  -1.3403  -1.2596  -1.0343  -0.8084   2.2393   2.3628
     2.5472   2.6245   2.7080   2.9856   3.0456   3.1894   4.1941   4.2899

          k = 0.7093 0.4095 0.0415 (  5120 PWs)   bands (ev):

   -33.6882 -33.6872 -17.1118 -17.0092 -15.1496 -15.0928 -14.8862 -14.8376
   -14.6927 -14.6087 -13.7483 -13.7309 -13.4694 -13.4362  -3.0720  -2.8709
    -1.5664  -1.3748  -1.3208  -1.1977  -0.9149  -0.9047   2.0530   2.2605
     2.4650   2.6604   2.7192   2.9470   3.0273   3.1584   4.2125   4.3927

          k = 0.5674 0.3276 0.0831 (  5093 PWs)   bands (ev):

   -33.6899 -33.6856 -17.1352 -16.9800 -15.1700 -15.1388 -14.8580 -14.7838
   -14.7043 -14.5944 -13.8318 -13.7051 -13.4675 -13.4043  -3.0789  -2.8585
    -1.5886  -1.3479  -1.2768  -1.2126  -1.0537  -0.8165   2.0090   2.3164
     2.4232   2.6862   2.6918   2.9485   3.0277   3.2278   4.1883   4.4192

          k =-0.1419 0.0819 0.3322 (  5103 PWs)   bands (ev):

   -33.6917 -33.6845 -17.0846 -17.0724 -15.0982 -15.0237 -14.9202 -14.8116
   -14.6494 -14.6260 -13.7823 -13.6957 -13.5095 -13.4475  -3.2466  -3.1340
    -1.4879  -1.4601  -1.3867  -1.3144  -1.3065  -0.6665   2.4367   2.4783
     2.6410   2.6854   2.9689   3.0712   3.3138   3.4377   3.9310   4.1160

          k =-0.2837 0.0000 0.3738 (  5090 PWs)   bands (ev):

   -33.6907 -33.6854 -17.0882 -17.0621 -15.1013 -15.0318 -14.9205 -14.7877
   -14.6903 -14.6449 -13.7551 -13.6591 -13.5373 -13.4555  -3.1731  -3.1164
    -1.4564  -1.4391  -1.3912  -1.3032  -1.1979  -0.7484   2.4269   2.4863
     2.6000   2.6360   2.8626   3.0322   3.1724   3.3516   4.0603   4.1457

          k = 0.8512 0.6552 0.0415 (  5110 PWs)   bands (ev):

   -33.6893 -33.6865 -17.0707 -17.0690 -15.1047 -15.0626 -14.8980 -14.7845
   -14.7216 -14.6583 -13.7461 -13.6625 -13.5280 -13.4473  -3.0985  -3.0319
    -1.4636  -1.4029  -1.3991  -1.2782  -1.0442  -0.8151   2.3125   2.3734
     2.6071   2.6125   2.7262   2.9458   3.0895   3.2333   4.1850   4.2357

          k = 0.7093 0.5733 0.0831 (  5101 PWs)   bands (ev):

   -33.6877 -33.6877 -17.0974 -17.0302 -15.1387 -15.0603 -14.9118 -14.7951
   -14.7018 -14.6573 -13.7681 -13.6836 -13.5007 -13.4251  -3.0629  -2.9124
    -1.5340  -1.3709  -1.3591  -1.2318  -0.9176  -0.8744   2.1221   2.2580
     2.5184   2.6318   2.6946   2.8580   3.1028   3.1693   4.2314   4.3583

          k = 0.5674 0.4914 0.1246 (  5098 PWs)   bands (ev):

   -33.6891 -33.6863 -17.1271 -16.9898 -15.1740 -15.1238 -14.8768 -14.7484
   -14.7102 -14.6163 -13.8497 -13.7007 -13.4727 -13.3873  -3.0655  -2.8417
    -1.5784  -1.3622  -1.2894  -1.2183  -0.9642  -0.8410   1.9976   2.2574
     2.4356   2.6516   2.6942   2.8213   3.1155   3.2040   4.2116   4.4397

          k =-0.2837 0.1638 0.4153 (  5096 PWs)   bands (ev):

   -33.6901 -33.6858 -17.1049 -17.0427 -15.1297 -14.9804 -14.9295 -14.8047
   -14.7027 -14.6469 -13.7559 -13.6372 -13.5436 -13.4613  -3.1447  -3.1059
    -1.4813  -1.4087  -1.3710  -1.2891  -1.1324  -0.8089   2.3970   2.4252
     2.6105   2.6299   2.8632   3.0459   3.0581   3.3422   4.1292   4.1329

          k = 0.8512 0.8190 0.0831 (  5105 PWs)   bands (ev):

   -33.6893 -33.6865 -17.1041 -17.0358 -15.1358 -15.0395 -14.8656 -14.7917
   -14.7209 -14.6711 -13.7530 -13.6861 -13.4938 -13.4560  -3.1066  -3.0270
    -1.4870  -1.4106  -1.3443  -1.2800  -1.0207  -0.8506   2.2754   2.3569
     2.5860   2.6584   2.7935   2.8732   3.0788   3.2686   4.1760   4.2413

          k = 0.7093 0.7371 0.1246 (  5105 PWs)   bands (ev):

   -33.6882 -33.6873 -17.0759 -17.0563 -15.1049 -15.0681 -14.8444 -14.8301
   -14.7169 -14.7116 -13.7344 -13.6832 -13.4886 -13.4548  -3.0029  -2.9870
    -1.4662  -1.4608  -1.3235  -1.2647  -0.9122  -0.8589   2.1839   2.2163
     2.5780   2.6074   2.7103   2.7472   3.1308   3.1975   4.2844   4.3055

          k = 0.5674 0.6552 0.1661 (  5104 PWs)   bands (ev):

   -33.6882 -33.6872 -17.0895 -17.0339 -15.1171 -15.0884 -14.8938 -14.7858
   -14.7129 -14.6941 -13.7709 -13.6895 -13.4795 -13.4235  -2.9924  -2.8964
    -1.5218  -1.4346  -1.2842  -1.2574  -0.8835  -0.8456   2.0755   2.1792
     2.4952   2.5746   2.6641   2.7075   3.1743   3.1949   4.3010   4.3976

          k = 0.8512-0.4914-0.2492 (  5100 PWs)   bands (ev):

   -33.6890 -33.6866 -17.1259 -17.0068 -15.1825 -15.0606 -14.8539 -14.7554
   -14.7235 -14.6303 -13.8169 -13.7280 -13.4674 -13.4087  -3.1349  -2.9370
    -1.5403  -1.3779  -1.2845  -1.2804  -0.9761  -0.8845   2.1550   2.3264
     2.5875   2.7005   2.7195   2.8660   3.0641   3.2519   4.1523   4.3251

          k = 0.7093-0.5733-0.2076 (  5106 PWs)   bands (ev):
[...]
    -1.4595  -1.4537  -1.3671  -1.2252  -0.9750  -0.8138   2.1695   2.2673
     2.5382   2.5936   2.7095   2.8050   3.0829   3.2529   4.2697   4.3299

          k = 0.5675 0.6553 0.0415 (  5090 PWs)   bands (ev):

   -33.6833 -33.6833 -17.0739 -17.0506 -15.1187 -15.0423 -14.9433 -14.8084
   -14.7023 -14.6646 -13.7625 -13.6539 -13.5072 -13.4251  -2.9677  -2.9141
    -1.5243  -1.3974  -1.3555  -1.2100  -0.8794  -0.8631   2.1233   2.1715
     2.4714   2.5479   2.6849   2.7444   3.1463   3.2124   4.3302   4.3765

          k = 0.4256 0.5734 0.0831 (  5100 PWs)   bands (ev):

   -33.6847 -33.6819 -17.1060 -17.0131 -15.1628 -15.0388 -14.9753 -14.7456
   -14.7083 -14.6280 -13.8318 -13.6178 -13.5340 -13.3911  -3.0012  -2.8771
    -1.5562  -1.3764  -1.2990  -1.2232  -0.9885  -0.8056   2.0728   2.2745
     2.4176   2.5354   2.6705   2.7810   3.1665   3.2220   4.2834   4.4247

          k = 0.2838 0.4915 0.1246 (  5101 PWs)   bands (ev):

   -33.6861 -33.6808 -17.1149 -17.0082 -15.1620 -15.0328 -14.9561 -14.7777
   -14.6881 -14.6268 -13.8111 -13.6238 -13.5304 -13.4107  -3.0281  -2.9395
    -1.5409  -1.3868  -1.3092  -1.2305  -1.1203  -0.7519   2.1648   2.3911
     2.4791   2.5371   2.6683   2.8544   3.1295   3.2718   4.2496   4.3596

          k =-0.4256 0.2457 0.3738 (  5100 PWs)   bands (ev):

   -33.6858 -33.6812 -17.1382 -16.9934 -15.1748 -15.0957 -14.7752 -14.7533
   -14.7372 -14.6500 -13.7903 -13.7712 -13.4313 -13.4228  -3.1283  -2.9306
    -1.5397  -1.3860  -1.3189  -1.2288  -1.0544  -0.8226   2.1427   2.3387
     2.5492   2.7220   2.7476   2.8704   3.0289   3.3197   4.1532   4.3355

          k = 0.7094 0.9011 0.0415 (  5106 PWs)   bands (ev):

   -33.6851 -33.6817 -17.1347 -16.9908 -15.1750 -15.1216 -14.7890 -14.7395
   -14.7084 -14.6671 -13.8334 -13.7556 -13.4307 -13.3978  -3.0943  -2.8714
    -1.5431  -1.4023  -1.2976  -1.2200  -0.9695  -0.8399   2.0470   2.2716
     2.5342   2.6948   2.7096   2.7565   3.0912   3.2684   4.1861   4.4090

          k = 0.5675 0.8192 0.0831 (  5101 PWs)   bands (ev):

   -33.6842 -33.6824 -17.1027 -17.0216 -15.1435 -15.0793 -14.8422 -14.8102
   -14.7111 -14.6733 -13.7984 -13.6924 -13.4673 -13.4105  -3.0041  -2.8771
    -1.5004  -1.4569  -1.3132  -1.2171  -0.8939  -0.8354   2.0473   2.2000
     2.5119   2.5792   2.6642   2.6888   3.1609   3.2314   4.2845   4.4203

          k = 0.4256 0.7372 0.1246 (  5090 PWs)   bands (ev):

   -33.6833 -33.6833 -17.0610 -17.0609 -15.1047 -15.0877 -14.8902 -14.8476
   -14.6909 -14.6635 -13.7293 -13.7258 -13.4481 -13.4465  -2.9233  -2.9230
    -1.5042  -1.4584  -1.2956  -1.2271  -0.8746  -0.8518   2.1380   2.1439
     2.4677   2.4763   2.6709   2.6892   3.1950   3.2166   4.3751   4.3769

          k = 0.2838 0.6553 0.1661 (  5109 PWs)   bands (ev):

   -33.6843 -33.6824 -17.0829 -17.0376 -15.1274 -15.0470 -14.9504 -14.8475
   -14.6685 -14.6397 -13.7620 -13.6543 -13.5030 -13.4324  -2.9629  -2.9168
    -1.5181  -1.4507  -1.2613  -1.2364  -0.9548  -0.8320   2.1325   2.2365
     2.4528   2.4776   2.7048   2.7691   3.1639   3.2081   4.3235   4.3844

          k = 0.7094-0.4096-0.2907 (  5088 PWs)   bands (ev):

   -33.6852 -33.6816 -17.1545 -16.9630 -15.2058 -15.1805 -14.7419 -14.7204
   -14.7119 -14.5865 -13.8924 -13.8334 -13.3882 -13.3680  -3.1266  -2.8057
    -1.5866  -1.3736  -1.2456  -1.2144  -0.9607  -0.8660   1.9561   2.2481
     2.5238   2.6792   2.7418   2.7731   3.1123   3.2486   4.1418   4.4651

          k = 0.5675-0.4915-0.2492 (  5087 PWs)   bands (ev):

   -33.6851 -33.6816 -17.1429 -16.9745 -15.1910 -15.1577 -14.8020 -14.7202
   -14.7036 -14.6138 -13.8957 -13.7551 -13.4296 -13.3640  -3.0868  -2.8122
    -1.5723  -1.3916  -1.2590  -1.2153  -0.9525  -0.8410   1.9589   2.2436
     2.4775   2.6744   2.6974   2.7484   3.1400   3.2382   4.1846   4.4706

          k = 0.4256-0.5734-0.2077 (  5105 PWs)   bands (ev):

   -33.6847 -33.6819 -17.1108 -17.0096 -15.1727 -15.0508 -14.9265 -14.7729
   -14.6902 -14.6372 -13.8472 -13.6337 -13.5169 -13.3841  -3.0104  -2.8684
    -1.5315  -1.4265  -1.2862  -1.2258  -0.9514  -0.8148   2.0475   2.2542
     2.4444   2.5587   2.6699   2.7457   3.1552   3.2442   4.2732   4.4328

          k = 0.5675-0.3277-0.2077 (  5095 PWs)   bands (ev):

   -33.6857 -33.6811 -17.1531 -16.9621 -15.1935 -15.1799 -14.7834 -14.7168
   -14.7156 -14.5828 -13.8982 -13.7739 -13.4213 -13.3659  -3.1101  -2.8195
    -1.5886  -1.3636  -1.2481  -1.2181  -1.0184  -0.8326   1.9653   2.2928
     2.4457   2.7055   2.7273   2.8390   3.0842   3.2644   4.1533   4.4568

          k = 0.4256-0.4096-0.1661 (  5103 PWs)   bands (ev):

   -33.6860 -33.6808 -17.1370 -16.9832 -15.1880 -15.0970 -14.8771 -14.7333
   -14.7025 -14.6165 -13.8683 -13.6620 -13.4998 -13.3792  -3.0749  -2.8827
    -1.5600  -1.3790  -1.2895  -1.2222  -1.0784  -0.7837   2.0625   2.3616
     2.4352   2.6507   2.6870   2.8829   3.0745   3.2888   4.1977   4.4047

          k = 0.4256-0.2457-0.1246 (  5098 PWs)   bands (ev):

   -33.6870 -33.6799 -17.1349 -16.9919 -15.1381 -15.1076 -14.8608 -14.7379
   -14.7162 -14.6623 -13.7960 -13.6705 -13.5013 -13.4161  -3.0850  -2.9564
    -1.5454  -1.3892  -1.3359  -1.2280  -1.1789  -0.7265   2.1779   2.4362
     2.4750   2.6640   2.6919   2.9493   3.0662   3.3409   4.1887   4.3155

          k =-0.0000-0.0000 0.2492 (  5121 PWs)   bands (ev):

   -33.6886 -33.6790 -17.0847 -17.0763 -15.0928 -15.0928 -14.8197 -14.8197
   -14.6478 -14.5646 -13.8224 -13.8224 -13.4221 -13.4221  -3.3015  -3.1016
    -1.5190  -1.5030  -1.5030  -1.3038  -1.3038  -0.5399   2.4079   2.4079
     2.7365   2.7365   3.0335   3.0335   3.4931   3.4931   3.8187   4.1405

          k =-0.1419-0.0819 0.2907 (  5109 PWs)   bands (ev):

   -33.6878 -33.6797 -17.0813 -17.0763 -15.1140 -15.0208 -14.9202 -14.7770
   -14.6608 -14.5963 -13.8330 -13.6956 -13.5081 -13.4112  -3.2560  -3.1068
    -1.5012  -1.4852  -1.3967  -1.3140  -1.3110  -0.6162   2.4296   2.4590
     2.6803   2.7042   2.9350   3.0409   3.3707   3.4389   3.9218   4.1428

          k =-0.2838-0.1638 0.3322 (  5093 PWs)   bands (ev):

   -33.6865 -33.6808 -17.0787 -17.0687 -15.1165 -15.0157 -14.9531 -14.7340
   -14.7187 -14.6216 -13.7963 -13.5991 -13.5912 -13.4193  -3.1678  -3.0625
    -1.4662  -1.4557  -1.3550  -1.3127  -1.1988  -0.7172   2.3972   2.5187
     2.6060   2.6297   2.7617   2.9873   3.1994   3.3090   4.0880   4.1959

          k = 0.8513 0.4915 0.0000 (  5110 PWs)   bands (ev):

   -33.6847 -33.6822 -17.0823 -17.0526 -15.1315 -14.9971 -14.9747 -14.8000
   -14.6949 -14.6237 -13.7703 -13.6093 -13.5725 -13.4248  -3.0957  -2.9641
    -1.4946  -1.4299  -1.3387  -1.2578  -1.0334  -0.8079   2.2418   2.3653
     2.5497   2.6271   2.7105   2.9881   3.0481   3.1919   4.1977   4.2935

          k = 0.7094 0.4096 0.0415 (  5118 PWs)   bands (ev):

   -33.6839 -33.6829 -17.1126 -17.0101 -15.1465 -15.0897 -14.8827 -14.8339
   -14.6885 -14.6048 -13.7471 -13.7294 -13.4675 -13.4343  -3.0687  -2.8674
    -1.5649  -1.3734  -1.3192  -1.1959  -0.9143  -0.9040   2.0553   2.2630
     2.4675   2.6630   2.7217   2.9494   3.0298   3.1609   4.2161   4.3964

          k = 0.5675 0.3277 0.0831 (  5093 PWs)   bands (ev):

   -33.6855 -33.6812 -17.1360 -16.9809 -15.1670 -15.1357 -14.8543 -14.7799
   -14.7002 -14.5904 -13.8305 -13.7038 -13.4656 -13.4023  -3.0755  -2.8550
    -1.5871  -1.3464  -1.2751  -1.2111  -1.0528  -0.8159   2.0113   2.3189
     2.4257   2.6889   2.6944   2.9509   3.0302   3.2303   4.1919   4.4229

          k =-0.1419 0.0819 0.3322 (  5099 PWs)   bands (ev):

   -33.6873 -33.6802 -17.0854 -17.0732 -15.0949 -15.0203 -14.9167 -14.8078
   -14.6453 -14.6221 -13.7810 -13.6942 -13.5079 -13.4457  -3.2435  -3.1308
    -1.4864  -1.4585  -1.3856  -1.3131  -1.3046  -0.6661   2.4392   2.4808
     2.6436   2.6880   2.9716   3.0739   3.3164   3.4403   3.9344   4.1195

          k =-0.2838 0.0000 0.3738 (  5089 PWs)   bands (ev):

   -33.6863 -33.6810 -17.0891 -17.0629 -15.0982 -15.0285 -14.9170 -14.7839
   -14.6863 -14.6408 -13.7538 -13.6576 -13.5355 -13.4537  -3.1700  -3.1131
    -1.4548  -1.4377  -1.3895  -1.3015  -1.1970  -0.7479   2.4294   2.4889
     2.6025   2.6386   2.8652   3.0348   3.1750   3.3542   4.0639   4.1492

          k = 0.8513 0.6553 0.0415 (  5107 PWs)   bands (ev):

   -33.6849 -33.6821 -17.0716 -17.0698 -15.1015 -15.0594 -14.8945 -14.7809
   -14.7175 -14.6543 -13.7449 -13.6609 -13.5262 -13.4454  -3.0953  -3.0285
    -1.4620  -1.4013  -1.3978  -1.2765  -1.0433  -0.8146   2.3150   2.3759
     2.6097   2.6150   2.7287   2.9482   3.0920   3.2358   4.1886   4.2393

          k = 0.7094 0.5734 0.0831 (  5100 PWs)   bands (ev):

   -33.6834 -33.6834 -17.0982 -17.0311 -15.1357 -15.0572 -14.9084 -14.7913
   -14.6977 -14.6534 -13.7669 -13.6820 -13.4989 -13.4232  -3.0596  -2.9089
    -1.5324  -1.3692  -1.3578  -1.2301  -0.9168  -0.8737   2.1245   2.2605
     2.5209   2.6344   2.6971   2.8605   3.1054   3.1718   4.2350   4.3619

          k = 0.5675 0.4915 0.1246 (  5094 PWs)   bands (ev):

   -33.6847 -33.6820 -17.1279 -16.9907 -15.1710 -15.1207 -14.8732 -14.7444
   -14.7060 -14.6124 -13.8486 -13.6993 -13.4708 -13.3853  -3.0621  -2.8382
    -1.5769  -1.3607  -1.2877  -1.2167  -0.9634  -0.8403   1.9999   2.2599
     2.4380   2.6542   2.6968   2.8237   3.1180   3.2065   4.2151   4.4434

          k =-0.2838 0.1638 0.4153 (  5096 PWs)   bands (ev):

   -33.6858 -33.6815 -17.1057 -17.0436 -15.1265 -14.9771 -14.9262 -14.8008
   -14.6987 -14.6428 -13.7547 -13.6356 -13.5419 -13.4595  -3.1414  -3.1026
    -1.4797  -1.4070  -1.3696  -1.2874  -1.1316  -0.8085   2.3995   2.4277
     2.6131   2.6325   2.8658   3.0485   3.0607   3.3448   4.1327   4.1365

          k = 0.8513 0.8192 0.0831 (  5102 PWs)   bands (ev):

   -33.6849 -33.6821 -17.1049 -17.0367 -15.1327 -15.0363 -14.8621 -14.7879
   -14.7168 -14.6670 -13.7517 -13.6846 -13.4920 -13.4541  -3.1033  -3.0237
    -1.4853  -1.4089  -1.3429  -1.2783  -1.0199  -0.8500   2.2779   2.3594
     2.5885   2.6610   2.7960   2.8757   3.0814   3.2712   4.1796   4.2449

          k = 0.7094 0.7372 0.1246 (  5103 PWs)   bands (ev):

   -33.6839 -33.6829 -17.0767 -17.0571 -15.1018 -15.0650 -14.8411 -14.8266
   -14.7127 -14.7074 -13.7330 -13.6817 -13.4867 -13.4529  -2.9995  -2.9836
    -1.4646  -1.4592  -1.3221  -1.2632  -0.9113  -0.8582   2.1864   2.2188
     2.5805   2.6099   2.7128   2.7497   3.1334   3.2001   4.2880   4.3091

          k = 0.5675 0.6553 0.1661 (  5099 PWs)   bands (ev):

   -33.6838 -33.6829 -17.0903 -17.0348 -15.1140 -15.0853 -14.8904 -14.7823
   -14.7087 -14.6900 -13.7695 -13.6880 -13.4776 -13.4216  -2.9890  -2.8929
    -1.5203  -1.4331  -1.2826  -1.2559  -0.8826  -0.8448   2.0779   2.1817
     2.4976   2.5771   2.6666   2.7099   3.1768   3.1975   4.3047   4.4013

          k = 0.8513-0.4915-0.2492 (  5100 PWs)   bands (ev):

   -33.6847 -33.6823 -17.1267 -17.0077 -15.1794 -15.0574 -14.8505 -14.7514
   -14.7194 -14.6263 -13.8160 -13.7265 -13.4656 -13.4067  -3.1316  -2.9336
    -1.5387  -1.3762  -1.2830  -1.2788  -0.9753  -0.8839   2.1575   2.3289
     2.5900   2.7031   2.7219   2.8686   3.0666   3.2545   4.1559   4.3288

          k = 0.7094-0.5734-0.2077 (  5103 PWs)   bands (ev):

   -33.6843 -33.6825 -17.1202 -17.0081 -15.1560 -15.1007 -14.8384 -14.7357
   -14.7122 -14.6758 -13.7741 -13.7647 -13.4394 -13.4184  -3.0836  -2.8849
    -1.5439  -1.3913  -1.2790  -1.2614  -0.9208  -0.8722   2.0754   2.2596
     2.5523   2.6601   2.6915   2.7979   3.1149   3.2089   4.2046   4.3904

          k = 0.7094-0.4096-0.1661 (  5105 PWs)   bands (ev):

   -33.6846 -33.6822 -17.1383 -16.9820 -15.1863 -15.1435 -14.7936 -14.7712
   -14.7057 -14.5910 -13.8217 -13.8053 -13.4065 -13.4015  -3.1062  -2.8284
    -1.5834  -1.3551  -1.2833  -1.2139  -0.9409  -0.8777   1.9943   2.2601
     2.4875   2.6910   2.7136   2.8488   3.0946   3.1977   4.1713   4.4381

          k = 0.0000 0.0000 0.3738 (  5112 PWs)   bands (ev):

   -33.6870 -33.6807 -17.0841 -17.0786 -15.0553 -15.0553 -14.8809 -14.8809
   -14.6321 -14.5778 -13.7392 -13.7392 -13.4818 -13.4818  -3.2830  -3.1570
    -1.4684  -1.4684  -1.3385  -1.3385  -1.3346  -0.6990   2.4662   2.4662
     2.6790   2.6790   3.1074   3.1074   3.4042   3.4042   3.8689   4.0759

          k =-0.1419-0.0819 0.4153 (  5095 PWs)   bands (ev):

   -33.6861 -33.6814 -17.0797 -17.0796 -15.0860 -14.9788 -14.9758 -14.8301
   -14.6429 -14.5994 -13.7628 -13.6269 -13.5734 -13.4593  -3.2409  -3.1518
    -1.4553  -1.4389  -1.3569  -1.3532  -1.2201  -0.7737   2.4736   2.5074
     2.6351   2.6380   3.0145   3.1347   3.2663   3.3626   3.9581   4.0881

          k = 0.9932 0.5734 0.0831 (  5100 PWs)   bands (ev):

   -33.6849 -33.6824 -17.0833 -17.0662 -15.1173 -15.0159 -14.9363 -14.7771
   -14.6949 -14.6179 -13.7760 -13.6078 -13.5831 -13.4372  -3.1702  -3.0778
    -1.4597  -1.3983  -1.3684  -1.3328  -1.0765  -0.8429   2.3919   2.4863
     2.6009   2.6258   2.8254   3.0930   3.1033   3.2515   4.0938   4.1751

          k = 0.8513 0.4915 0.1246 (  5109 PWs)   bands (ev):

   -33.6835 -33.6835 -17.1074 -17.0283 -15.1643 -15.0152 -14.9273 -14.7597
   -14.7143 -14.6179 -13.8075 -13.6695 -13.5145 -13.4076  -3.1204  -2.9452
    -1.5242  -1.3605  -1.3518  -1.2615  -0.9537  -0.8889   2.1915   2.3450
     2.5890   2.6678   2.6864   2.9477   3.0794   3.1856   4.1719   4.3135

          k =-0.1419 0.0819 0.4568 (  5089 PWs)   bands (ev):

   -33.6855 -33.6820 -17.0845 -17.0754 -15.0726 -14.9796 -14.9633 -14.8618
   -14.6273 -14.6189 -13.7242 -13.6108 -13.5846 -13.4915  -3.2232  -3.1766
    -1.4459  -1.4229  -1.3822  -1.3429  -1.1622  -0.8359   2.4936   2.5273
     2.5909   2.6328   3.0532   3.1662   3.2153   3.3491   3.9779   4.0622

          k = 0.9932 0.7372 0.1246 (  5100 PWs)   bands (ev):

   -33.6846 -33.6828 -17.0813 -17.0722 -15.0788 -15.0516 -14.8867 -14.8370
   -14.6591 -14.6428 -13.7133 -13.6731 -13.5233 -13.4882  -3.1592  -3.1398
    -1.4337  -1.4170  -1.3745  -1.3365  -1.0526  -0.8938   2.4516   2.4767
     2.5958   2.6129   2.9481   3.0374   3.1738   3.2677   4.0861   4.1154

          k = 0.8513 0.6553 0.1661 (  5096 PWs)   bands (ev):

   -33.6835 -33.6835 -17.0890 -17.0537 -15.1208 -15.0398 -14.8827 -14.7828
   -14.7096 -14.6674 -13.7514 -13.6667 -13.5156 -13.4474  -3.1039  -3.0262
    -1.4779  -1.4054  -1.3338  -1.3038  -0.9442  -0.9147   2.2916   2.3585
     2.6108   2.6355   2.7748   2.8920   3.1443   3.1925   4.1806   4.2418

          k = 0.9932-0.5734-0.2077 (  5097 PWs)   bands (ev):

   -33.6841 -33.6832 -17.0962 -17.0540 -15.1259 -14.9797 -14.9406 -14.8064
   -14.6854 -14.6258 -13.7648 -13.5974 -13.5850 -13.4517  -3.1615  -3.0919
    -1.4703  -1.3864  -1.3476  -1.3361  -0.9892  -0.9406   2.3934   2.4513
     2.6050   2.6268   2.8946   3.0088   3.1339   3.2575   4.1088   4.1548

          k =-0.0000-0.0000 0.4984 (  5100 PWs)   bands (ev):

   -33.6849 -33.6827 -17.0829 -17.0810 -15.0052 -15.0052 -14.9454 -14.9454
   -14.6136 -14.5947 -13.6477 -13.6477 -13.5591 -13.5591  -3.2528  -3.2099
    -1.4260  -1.4260  -1.3809  -1.3809  -1.1193  -0.8992   2.5366   2.5366
     2.6103   2.6103   3.1991   3.1991   3.3016   3.3016   3.9323   4.0035

          k = 1.1350 0.6553 0.1661 (  5102 PWs)   bands (ev):

   -33.6841 -33.6835 -17.0825 -17.0777 -15.0527 -15.0181 -14.9293 -14.8879
   -14.6272 -14.6107 -13.6880 -13.6362 -13.5656 -13.5185  -3.2146  -3.1923
    -1.4253  -1.3924  -1.3923  -1.3826  -1.0298  -0.9635   2.5237   2.5506
     2.5800   2.5907   3.1041   3.1622   3.2335   3.2748   4.0063   4.0308

     highest occupied level (ev):     4.4802

!    total energy              =    -367.43036492 Ry
     Harris-Foulkes estimate   =    -367.43036492 Ry
     estimated scf accuracy    <          9.9E-12 Ry

     The total energy is the sum of the following terms:

     one-electron contribution =    -148.07989236 Ry
     hartree contribution      =     103.43226570 Ry
     xc contribution           =     -75.27047980 Ry
     ewald contribution        =    -247.51225846 Ry

     convergence has been achieved in  12 iterations

     Forces acting on atoms (cartesian axes, Ry/au):

     atom    1 type  1   force =     0.00000000    0.00000000    0.00000000
     atom    2 type  1   force =    -0.00000000   -0.00000000   -0.00000000
     atom    3 type  2   force =    -0.00000000   -0.00000000    0.00000000
     atom    4 type  2   force =     0.00000000    0.00000000   -0.00000000
     atom    5 type  3   force =     0.00003388   -0.00005868   -0.00000000
     atom    6 type  3   force =    -0.00006776   -0.00000000    0.00000000
     atom    7 type  3   force =     0.00003388    0.00005868    0.00000000
     atom    8 type  3   force =     0.00006776    0.00000000   -0.00000000
     atom    9 type  3   force =    -0.00003388   -0.00005868   -0.00000000
     atom   10 type  3   force =    -0.00003388    0.00005868    0.00000000

     Total force =     0.000166     Total SCF correction =     0.000003


     Computing stress (Cartesian axis) and pressure

          total   stress  (Ry/bohr**3)                   (kbar)     P=   -0.36
  -0.00000301  -0.00000000  -0.00000000         -0.44     -0.00     -0.00
   0.00000000  -0.00000301  -0.00000000          0.00     -0.44     -0.00
   0.00000000  -0.00000000  -0.00000131          0.00     -0.00     -0.19


     Writing output data file CCO.save/
 
     init_run     :     19.82s CPU     24.25s WALL (       2 calls)
     electrons    :   1053.44s CPU   1174.29s WALL (       4 calls)
     update_pot   :      0.13s CPU      0.17s WALL (       2 calls)
     forces       :      3.03s CPU      3.21s WALL (       4 calls)
     stress       :      4.72s CPU      4.87s WALL (       4 calls)

     Called by init_run:
     wfcinit      :     19.11s CPU     22.85s WALL (       2 calls)
     potinit      :      0.08s CPU      0.18s WALL (       2 calls)
     hinit0       :      0.50s CPU      0.81s WALL (       2 calls)

     Called by electrons:
     c_bands      :    984.69s CPU   1100.63s WALL (      38 calls)
     sum_band     :     67.75s CPU     71.75s WALL (      38 calls)
     v_of_rho     :      0.63s CPU      0.73s WALL (      40 calls)
     newd         :      0.23s CPU      0.37s WALL (      40 calls)
     mix_rho      :      0.09s CPU      0.16s WALL (      38 calls)

     Called by c_bands:
     init_us_2    :      1.39s CPU      1.63s WALL (    7310 calls)
     ccgdiagg     :    773.65s CPU    843.37s WALL (    3253 calls)
     wfcrot       :    228.07s CPU    274.32s WALL (    2913 calls)

     Called by sum_band:
     sum_band:bec :      0.91s CPU      0.97s WALL (    3230 calls)
     addusdens    :      0.15s CPU      0.21s WALL (      38 calls)

     Called by *cgdiagg:
     h_psi        :    674.43s CPU    722.22s WALL (  329275 calls)
     s_psi        :     30.74s CPU     35.04s WALL (  655637 calls)
     cdiaghg      :     83.52s CPU    121.10s WALL (    2913 calls)

     Called by h_psi:
     h_psi:pot    :    666.05s CPU    712.51s WALL (  329275 calls)
     h_psi:calbec :     69.33s CPU     75.28s WALL (  329275 calls)
     vloc_psi     :    562.87s CPU    600.62s WALL (  329275 calls)
     add_vuspsi   :     23.07s CPU     25.53s WALL (  329275 calls)
     hs_1psi      :    588.68s CPU    633.13s WALL (  326362 calls)
     s_1psi       :     65.03s CPU     73.63s WALL (  326362 calls)

     General routines
     calbec       :    104.94s CPU    117.19s WALL (  660567 calls)
     fft          :      0.73s CPU      0.89s WALL (     544 calls)
     ffts         :      0.05s CPU      0.05s WALL (      38 calls)
     fftw         :    595.70s CPU    634.45s WALL (  949316 calls)
 
     Parallel routines
     fft_scatt_xy :     27.09s CPU     28.80s WALL (  949898 calls)
     fft_scatt_yz :    445.79s CPU    476.01s WALL (  949898 calls)
 
     PWSCF        :  18m12.09s CPU  20m22.92s WALL

 
   This run was terminated on:   7:15:12  24Apr2022            

=------------------------------------------------------------------------------=
   JOB DONE.
=------------------------------------------------------------------------------=
