TACC:  Starting up job 9581708 
TACC:  Starting parallel tasks... 

     Program PWSCF v.6.4.1 starts on  4May2022 at 13:55:44 

     This program is part of the open-source Quantum ESPRESSO suite
     for quantum simulation of materials; please cite
         "P. Giannozzi et al., J. Phys.:Condens. Matter 21 395502 (2009);
         "P. Giannozzi et al., J. Phys.:Condens. Matter 29 465901 (2017);
          URL http://www.quantum-espresso.org", 
     in publications or presentations arising from this work. More details at
     http://www.quantum-espresso.org/quote

     Parallel version (MPI & OpenMP), running on     120 processor cores
     Number of MPI processes:               120
     Threads/MPI process:                     1

     MPI processes distributed on     2 nodes
     R & G space division:  proc/nbgrp/npool/nimage =     120
     Waiting for input...
     Reading input from standard input
Warning: card &CELL ignored
Warning: card  CELL_DYNAMICS = 'BFGS', ignored
Warning: card  PRESS=0.1D0, ignored
Warning: card / ignored

     Current dimensions of program PWSCF are:
     Max number of different atomic species (ntypx) = 10
     Max number of k-points (npk) =  40000
     Max angular momentum in pseudopotentials (lmaxx) =  3

     Subspace diagonalization in iterative solution of the eigenvalue problem:
     one sub-group per band group will be used
     scalapack distributed-memory algorithm (size of sub-group:  7*  7 procs)

 
     Parallelization info
     --------------------
     sticks:   dense  smooth     PW     G-vecs:    dense   smooth      PW
     Min          18      18      5                  525      525      79
     Max          19      19      6                  529      529      84
     Sum        2215    2215    641                63185    63185    9737
 


     bravais-lattice index     =            5
     lattice parameter (alat)  =      11.3568  a.u.
     unit-cell volume          =     798.0902 (a.u.)^3
     number of atoms/cell      =           10
     number of atomic types    =            3
     number of electrons       =        64.00
     number of Kohn-Sham states=           32
     kinetic-energy cutoff     =      70.0000  Ry
     charge density cutoff     =     280.0000  Ry
     convergence threshold     =      1.0E-08
     mixing beta               =       0.7000
     number of iterations used =            8  plain     mixing
     Exchange-correlation      = SLA  PW   PBE  PBE ( 1  4  3  4 0 0)
     nstep                     =           50


     celldm(1)=  11.356800  celldm(2)=   0.000000  celldm(3)=   0.000000
     celldm(4)=   0.639000  celldm(5)=   0.000000  celldm(6)=   0.000000

     crystal axes: (cart. coord. in units of alat)
               a(1) = (   0.424853  -0.245289   0.871397 )  
               a(2) = (   0.000000   0.490578   0.871397 )  
               a(3) = (  -0.424853  -0.245289   0.871397 )  

     reciprocal axes: (cart. coord. in units 2 pi/alat)
               b(1) = (  1.176878 -0.679471  0.382527 )  
               b(2) = (  0.000000  1.358942  0.382527 )  
               b(3) = ( -1.176878 -0.679471  0.382527 )  


     PseudoPot. # 1 for Ca read from file:
     ./Ca_PBE.UPF
     MD5 check sum: 403a4c14b9e4d4dfdc3024c9a3812218
     Pseudo is Ultrasoft + core correction, Zval = 10.0
     Generated by new atomic code, or converted to UPF format
     Using radial grid of  845 points,  6 beta functions with: 
                l(1) =   0
                l(2) =   0
                l(3) =   1
                l(4) =   1
                l(5) =   2
                l(6) =   2
     Q(r) pseudized with  8 coefficients,  rinner =    1.500   1.500   1.500
                                                       1.500   1.500

     PseudoPot. # 2 for C  read from file:
     ./C_PBE.UPF
     MD5 check sum: d1aef80898a10debaa0f26306b886e00
     Pseudo is Ultrasoft + core correction, Zval =  4.0
     Generated by new atomic code, or converted to UPF format
     Using radial grid of  721 points,  4 beta functions with: 
                l(1) =   0
                l(2) =   0
                l(3) =   1
                l(4) =   1
     Q(r) pseudized with  8 coefficients,  rinner =    1.100   1.100   1.100


     PseudoPot. # 3 for O  read from file:
     ./O_PBE.UPF
     MD5 check sum: 734c27235a0248c51dbae37a1fbe46ec
     Pseudo is Ultrasoft + core correction, Zval =  6.0
     Generated by new atomic code, or converted to UPF format
     Using radial grid of  737 points,  5 beta functions with: 
                l(1) =   0
                l(2) =   0
                l(3) =   1
                l(4) =   1
                l(5) =   2
     Q(r) pseudized with  8 coefficients,  rinner =    0.900   0.900   0.900
                                                       0.900   0.900

     atomic species   valence    mass     pseudopotential
        Ca            10.00    40.07800     Ca( 1.00)
        C              4.00    12.01070     C ( 1.00)
        O              6.00    16.00000     O ( 1.00)

     12 Sym. Ops., with inversion, found ( 6 have fractional translation)



   Cartesian axes

     site n.     atom                  positions (alat units)
         1           Ca  tau(   1) = (   0.0000000  -0.0000000   1.3070960  )
         2           Ca  tau(   2) = (   0.0000000   0.0000000   0.0000000  )
         3           C   tau(   3) = (   0.0000000  -0.0000000   0.6535480  )
         4           C   tau(   4) = (   0.0000000  -0.0000000   1.9606440  )
         5           O   tau(   5) = (   0.1091944   0.3014476   1.5249454  )
         6           O   tau(   6) = (   0.2064641  -0.2452889   1.5249454  )
         7           O   tau(   7) = (  -0.3156585  -0.0561587   1.5249454  )
         8           O   tau(   8) = (  -0.2064641   0.2452889   1.0892467  )
         9           O   tau(   9) = (   0.3156585   0.0561587   1.0892467  )
        10           O   tau(  10) = (  -0.1091944  -0.3014476   1.0892467  )

     number of k points=    19
                       cart. coord. in units 2pi/alat
        k(    1) = (   0.0000000   0.0000000   0.0000000), wk =   0.0160000
        k(    2) = (  -0.2353756  -0.1358942   0.0765055), wk =   0.0960000
        k(    3) = (  -0.4707512  -0.2717883   0.1530109), wk =   0.0960000
        k(    4) = (  -0.2353756   0.1358942   0.1530109), wk =   0.0960000
        k(    5) = (  -0.4707512  -0.0000000   0.2295164), wk =   0.1920000
        k(    6) = (   0.4707512   0.5435766  -0.0765055), wk =   0.1920000
        k(    7) = (   0.2353756   0.4076825   0.0000000), wk =   0.0960000
        k(    8) = (  -0.4707512   0.2717883   0.3060219), wk =   0.0960000
        k(    9) = (   0.4707512   0.8153649   0.0000000), wk =   0.0960000
        k(   10) = (  -0.0000000  -0.0000000   0.2295164), wk =   0.0320000
        k(   11) = (  -0.2353756  -0.1358942   0.3060219), wk =   0.0960000
        k(   12) = (   0.7061267   0.4076825   0.0000000), wk =   0.0960000
        k(   13) = (   0.4707512   0.2717883   0.0765055), wk =   0.0960000
        k(   14) = (  -0.2353756   0.1358942   0.3825274), wk =   0.0960000
        k(   15) = (   0.7061267   0.6794708   0.0765055), wk =   0.1920000
        k(   16) = (   0.4707512   0.5435766   0.1530109), wk =   0.1920000
        k(   17) = (   0.7061267  -0.4076825  -0.2295164), wk =   0.0960000
        k(   18) = (  -0.0000000  -0.0000000   0.4590328), wk =   0.0320000
        k(   19) = (   0.9415023   0.5435766   0.1530109), wk =   0.0960000

     Dense  grid:    63185 G-vectors     FFT dimensions: (  64,  64,  64)

     Estimated max dynamical RAM per process >      10.33 MB

     Estimated total dynamical RAM >       1.21 GB
     Message from routine sym_rho_init:
     some processors have no G-vectors for symmetrization
     Message from routine sym_rho_init:
     some processors have no G-vectors for symmetrization
     Message from routine sym_rho_init:
     some processors have no G-vectors for symmetrization

     Check: negative core charge=   -0.000003

     Initial potential from superposition of free atoms

     starting charge   63.98899, renormalised to   64.00000
     Starting wfcs are   52 randomized atomic wfcs

     total cpu time spent up to now is        5.3 secs

     Self-consistent Calculation

     iteration #  1     ecut=    70.00 Ry     beta= 0.70
     CG style diagonalization
     ethr =  1.00E-02,  avg # of iterations =  2.6

     total cpu time spent up to now is       10.6 secs

     total energy              =    -366.64116789 Ry
     Harris-Foulkes estimate   =    -367.86096256 Ry
     estimated scf accuracy    <       1.75141943 Ry

     iteration #  2     ecut=    70.00 Ry     beta= 0.70
     CG style diagonalization
     ethr =  2.74E-03,  avg # of iterations =  4.4

     total cpu time spent up to now is       18.8 secs

     total energy              =    -367.07026254 Ry
     Harris-Foulkes estimate   =    -367.91579971 Ry
     estimated scf accuracy    <       1.75543545 Ry

     iteration #  3     ecut=    70.00 Ry     beta= 0.70
     CG style diagonalization
     ethr =  2.74E-03,  avg # of iterations =  3.8

     total cpu time spent up to now is       26.0 secs

     total energy              =    -367.40102075 Ry
     Harris-Foulkes estimate   =    -367.40331485 Ry
     estimated scf accuracy    <       0.01073361 Ry

     iteration #  4     ecut=    70.00 Ry     beta= 0.70
     CG style diagonalization
     ethr =  1.68E-05,  avg # of iterations =  4.5

     total cpu time spent up to now is       34.4 secs

     total energy              =    -367.41218094 Ry
     Harris-Foulkes estimate   =    -367.41336426 Ry
     estimated scf accuracy    <       0.00300559 Ry

     iteration #  5     ecut=    70.00 Ry     beta= 0.70
     CG style diagonalization
     ethr =  4.70E-06,  avg # of iterations =  3.6

     total cpu time spent up to now is       41.3 secs

     total energy              =    -367.41265975 Ry
     Harris-Foulkes estimate   =    -367.41268402 Ry
     estimated scf accuracy    <       0.00014789 Ry

     iteration #  6     ecut=    70.00 Ry     beta= 0.70
     CG style diagonalization
     ethr =  2.31E-07,  avg # of iterations =  4.1

     total cpu time spent up to now is       49.0 secs

     total energy              =    -367.41269930 Ry
     Harris-Foulkes estimate   =    -367.41271085 Ry
     estimated scf accuracy    <       0.00002109 Ry

     iteration #  7     ecut=    70.00 Ry     beta= 0.70
     CG style diagonalization
     ethr =  3.29E-08,  avg # of iterations =  4.1

     total cpu time spent up to now is       56.6 secs

     total energy              =    -367.41270801 Ry
     Harris-Foulkes estimate   =    -367.41270904 Ry
     estimated scf accuracy    <       0.00000276 Ry

     iteration #  8     ecut=    70.00 Ry     beta= 0.70
     CG style diagonalization
     ethr =  4.32E-09,  avg # of iterations =  3.8

     total cpu time spent up to now is       63.7 secs

     total energy              =    -367.41270868 Ry
     Harris-Foulkes estimate   =    -367.41270875 Ry
     estimated scf accuracy    <       0.00000015 Ry

     iteration #  9     ecut=    70.00 Ry     beta= 0.70
     CG style diagonalization
     ethr =  2.35E-10,  avg # of iterations =  4.2

     total cpu time spent up to now is       71.5 secs

     total energy              =    -367.41270874 Ry
     Harris-Foulkes estimate   =    -367.41270875 Ry
     estimated scf accuracy    <       0.00000004 Ry

     iteration # 10     ecut=    70.00 Ry     beta= 0.70
     CG style diagonalization
     ethr =  5.56E-11,  avg # of iterations =  3.7

     total cpu time spent up to now is       78.5 secs

     End of self-consistent calculation

          k = 0.0000 0.0000 0.0000 (  7893 PWs)   bands (ev):

   -32.6687 -32.6478 -16.2583 -16.1740 -14.3238 -14.3238 -13.7632 -13.7632
   -13.6914 -13.5918 -13.2018 -13.2018 -12.3809 -12.3809  -2.7075  -2.4407
    -1.0506  -0.9044  -0.9044  -0.6019  -0.6019   0.6072   2.9817   2.9817
     3.2216   3.2216   3.6067   3.6067   4.3730   4.4070   4.4070   4.8883

          k =-0.2354-0.1359 0.0765 (  7874 PWs)   bands (ev):

   -32.6665 -32.6496 -16.2890 -16.1458 -14.3213 -14.2000 -14.0210 -13.8200
   -13.6971 -13.6842 -13.0651 -12.8411 -12.5590 -12.4227  -2.5699  -2.4903
    -0.9461  -0.8420  -0.7597  -0.6361  -0.6048   0.4106   3.0378   3.0894
     3.1688   3.2825   3.3572   3.4522   4.1856   4.2246   4.6620   4.8407

          k =-0.4708-0.2718 0.1530 (  7873 PWs)   bands (ev):

   -32.6610 -32.6546 -16.2734 -16.1728 -14.2569 -14.1753 -14.1489 -14.0115
   -13.6545 -13.6017 -12.8446 -12.7126 -12.6667 -12.5648  -2.4649  -2.4144
    -0.9412  -0.8219  -0.6183  -0.5896  -0.3004   0.1099   2.8121   2.9100
     3.1033   3.1568   3.4658   3.5667   3.9273   3.9367   4.8181   4.8714

          k =-0.2354 0.1359 0.1530 (  7882 PWs)   bands (ev):

   -32.6661 -32.6500 -16.2974 -16.1396 -14.2815 -14.2567 -13.9163 -13.8748
   -13.7451 -13.7068 -12.9373 -12.9137 -12.5099 -12.4868  -2.5522  -2.5239
    -0.8713  -0.8430  -0.8177  -0.6210  -0.5710   0.3719   3.0327   3.0643
     3.1291   3.2789   3.4188   3.5044   4.0650   4.3033   4.6583   4.8096

          k =-0.4708-0.0000 0.2295 (  7894 PWs)   bands (ev):

   -32.6624 -32.6533 -16.3022 -16.1442 -14.3337 -14.2223 -14.0179 -13.8995
   -13.6927 -13.6378 -12.9475 -12.7964 -12.5785 -12.5068  -2.5199  -2.4109
    -0.8956  -0.7880  -0.7341  -0.5441  -0.3628   0.1624   2.8163   3.0124
     3.0879   3.1826   3.3655   3.5636   3.8458   4.1229   4.7865   4.8766

          k = 0.4708 0.5436-0.0765 (  7908 PWs)   bands (ev):

   -32.6583 -32.6570 -16.2542 -16.2030 -14.2865 -14.2062 -14.1048 -13.9346
   -13.6711 -13.6276 -12.9017 -12.7650 -12.6154 -12.5177  -2.4489  -2.3720
    -0.9558  -0.8034  -0.6542  -0.5358  -0.0921   0.0023   2.7295   2.8036
     3.0421   3.1433   3.4028   3.4696   3.9462   3.9867   4.8593   4.9235

          k = 0.2354 0.4077 0.0000 (  7889 PWs)   bands (ev):

   -32.6635 -32.6522 -16.3161 -16.1201 -14.3415 -14.2313 -14.0654 -13.8453
   -13.7199 -13.6057 -12.9496 -12.8249 -12.5487 -12.5112  -2.5254  -2.3883
    -0.9653  -0.7272  -0.6674  -0.5785  -0.4903   0.2158   2.8077   3.0982
     3.0989   3.1458   3.2701   3.5706   3.9652   4.1063   4.7900   4.8933

          k =-0.4708 0.2718 0.3060 (  7892 PWs)   bands (ev):

   -32.6619 -32.6536 -16.3580 -16.0792 -14.4208 -14.3614 -13.7846 -13.7285
   -13.7135 -13.6530 -13.0788 -12.9849 -12.4720 -12.4471  -2.6294  -2.2472
    -0.9938  -0.7529  -0.6381  -0.4712  -0.2926   0.0487   2.6354   2.9197
     3.0967   3.3515   3.3589   3.4958   3.8085   4.1513   4.6482   4.9926

          k = 0.4708 0.8154 0.0000 (  7887 PWs)   bands (ev):

   -32.6598 -32.6555 -16.3127 -16.1457 -14.3550 -14.2912 -13.8821 -13.8722
   -13.7107 -13.6350 -13.0454 -12.8366 -12.5374 -12.4630  -2.5321  -2.2864
    -0.9153  -0.8526  -0.6787  -0.4667  -0.1107   0.0310   2.6038   2.8151
     3.1796   3.1906   3.3294   3.3408   3.9282   4.0752   4.7610   4.9993

          k =-0.0000-0.0000 0.2295 (  7865 PWs)   bands (ev):

   -32.6667 -32.6498 -16.2529 -16.1846 -14.2924 -14.2924 -13.8707 -13.8707
   -13.6781 -13.5977 -13.0697 -13.0697 -12.4375 -12.4375  -2.7107  -2.5090
    -0.8723  -0.8723  -0.8547  -0.6283  -0.6283   0.4783   3.0124   3.0124
     3.2180   3.2180   3.6489   3.6489   4.3048   4.3048   4.4107   4.8170

          k =-0.2354-0.1359 0.3060 (  7885 PWs)   bands (ev):

   -32.6637 -32.6524 -16.2596 -16.1860 -14.3218 -14.1546 -14.1118 -13.7778
   -13.7296 -13.6421 -13.0331 -12.7440 -12.6611 -12.4433  -2.6097  -2.5158
    -0.8364  -0.8302  -0.6881  -0.6689  -0.5081   0.2612   3.0135   3.1200
     3.1730   3.2542   3.3383   3.6591   4.0019   4.1397   4.6518   4.7910

          k = 0.7061 0.4077 0.0000 (  7899 PWs)   bands (ev):

   -32.6584 -32.6571 -16.2625 -16.1925 -14.3411 -14.1748 -14.0844 -13.9161
   -13.6652 -13.6125 -12.9153 -12.7941 -12.6325 -12.4919  -2.5385  -2.3537
    -0.9555  -0.7653  -0.6659  -0.5697  -0.1386  -0.0077   2.7748   2.9163
     3.0582   3.2251   3.4202   3.7254   3.7327   3.9396   4.7719   4.8949

          k = 0.4708 0.2718 0.0765 (  7904 PWs)   bands (ev):

   -32.6623 -32.6532 -16.3350 -16.1002 -14.3513 -14.3213 -13.9736 -13.8516
   -13.7005 -13.5739 -13.0181 -12.8077 -12.5689 -12.4808  -2.5690  -2.3005
    -1.0026  -0.7278  -0.5902  -0.5854  -0.3781   0.1238   2.6917   2.9566
     3.0572   3.2802   3.3265   3.7317   3.7638   4.0834   4.7230   4.9514

          k =-0.2354 0.1359 0.3825 (  7903 PWs)   bands (ev):

   -32.6626 -32.6535 -16.2805 -16.1687 -14.3228 -14.1389 -14.0621 -13.8726
   -13.7103 -13.6751 -12.9304 -12.7625 -12.6202 -12.5203  -2.5910  -2.5580
    -0.8586  -0.7606  -0.7321  -0.5982  -0.4399   0.1587   3.0102   3.0429
     3.1735   3.2409   3.5007   3.7034   3.8170   4.1960   4.6749   4.7249

          k = 0.7061 0.6795 0.0765 (  7897 PWs)   bands (ev):

   -32.6595 -32.6561 -16.2613 -16.2013 -14.2973 -14.2411 -13.9353 -13.9190
   -13.7181 -13.6897 -12.8956 -12.8124 -12.5769 -12.5309  -2.4993  -2.4588
    -0.8440  -0.8382  -0.6915  -0.5610  -0.1664   0.0206   2.8329   2.8879
     3.1742   3.2881   3.3638   3.4702   3.8431   4.0251   4.7972   4.8360

          k = 0.4708 0.5436 0.1530 (  7894 PWs)   bands (ev):

   -32.6594 -32.6559 -16.2963 -16.1617 -14.3321 -14.2604 -14.0320 -13.7926
   -13.7162 -13.6473 -13.0086 -12.7785 -12.5959 -12.4658  -2.5095  -2.3097
    -0.9712  -0.7925  -0.5921  -0.5723  -0.1240   0.0410   2.6413   2.8196
     3.0596   3.2256   3.3585   3.4215   3.9417   4.0147   4.7944   4.9777

          k = 0.7061-0.4077-0.2295 (  7900 PWs)   bands (ev):

   -32.6599 -32.6556 -16.3321 -16.1175 -14.4266 -14.2923 -13.8755 -13.7563
   -13.7095 -13.6106 -13.0410 -12.9748 -12.5004 -12.4450  -2.6199  -2.2710
    -0.9991  -0.7327  -0.5899  -0.5481  -0.1634  -0.0307   2.6661   2.8951
     3.1615   3.3240   3.3443   3.4894   3.8126   4.0571   4.6748   4.9665

          k =-0.0000-0.0000 0.4590 (  7877 PWs)   bands (ev):

   -32.6615 -32.6550 -16.2360 -16.2099 -14.1992 -14.1992 -14.0503 -14.0503
   -13.6472 -13.6166 -12.8255 -12.8255 -12.5962 -12.5962  -2.6961  -2.6257
    -0.7921  -0.7921  -0.6994  -0.6994  -0.3950   0.1112   3.0906   3.0906
     3.1754   3.1754   3.8053   3.8053   4.0601   4.0601   4.5140   4.6628

          k = 0.9415 0.5436 0.1530 (  7904 PWs)   bands (ev):

   -32.6587 -32.6574 -16.2391 -16.2155 -14.3142 -14.1765 -14.0560 -13.8810
   -13.6924 -13.6414 -12.9216 -12.7342 -12.6730 -12.5188  -2.6271  -2.5510
    -0.8332  -0.7169  -0.7084  -0.6824  -0.1805  -0.0606   3.0034   3.0679
     3.1952   3.2131   3.5207   3.7351   3.8988   3.9926   4.6605   4.7210

     highest occupied level (ev):     4.9993

!    total energy              =    -367.41270874 Ry
     Harris-Foulkes estimate   =    -367.41270875 Ry
     estimated scf accuracy    <          6.8E-09 Ry

     The total energy is the sum of the following terms:

     one-electron contribution =    -130.46868206 Ry
     hartree contribution      =      96.44235410 Ry
     xc contribution           =     -75.29343019 Ry
     ewald contribution        =    -258.09295059 Ry

     convergence has been achieved in  10 iterations

     Forces acting on atoms (cartesian axes, Ry/au):

     atom    1 type  1   force =     0.00000000   -0.00000000   -0.00000000
     atom    2 type  1   force =     0.00000000   -0.00000000    0.00000000
     atom    3 type  2   force =     0.00000000    0.00000000    0.00000000
     atom    4 type  2   force =     0.00000000    0.00000000    0.00000000
     atom    5 type  3   force =    -0.02391864    0.04142831    0.00000000
     atom    6 type  3   force =     0.04783729    0.00000000    0.00000000
     atom    7 type  3   force =    -0.02391864   -0.04142831   -0.00000000
     atom    8 type  3   force =    -0.04783729   -0.00000000   -0.00000000
     atom    9 type  3   force =     0.02391864    0.04142831    0.00000000
     atom   10 type  3   force =     0.02391864   -0.04142831   -0.00000000

     Total force =     0.117177     Total SCF correction =     0.000053


     Computing stress (Cartesian axis) and pressure

          total   stress  (Ry/bohr**3)                   (kbar)     P=    9.30
  -0.00015705  -0.00000000  -0.00000000        -23.10     -0.00     -0.00
   0.00000000  -0.00015705  -0.00000000          0.00    -23.10     -0.00
   0.00000000  -0.00000000   0.00050375          0.00     -0.00     74.10


     BFGS Geometry Optimization

     number of scf cycles    =   1
     number of bfgs steps    =   0

     energy   new            =    -367.4127087407 Ry

     new trust radius        =       0.0478372872 bohr
     new conv_thr            =       0.0000000100 Ry


ATOMIC_POSITIONS (crystal)
Ca       0.500000000   0.500000000   0.500000000
Ca       0.000000000  -0.000000000   0.000000000
C        0.250000000   0.250000000   0.250000000
C        0.750000000   0.750000000   0.750000000
O        0.502059692   0.997940308   0.250000000
O        0.997940308   0.250000000   0.502059692
O        0.250000000   0.502059692   0.997940308
O        0.002059692   0.750000000   0.497940308
O        0.750000000   0.497940308   0.002059692
O        0.497940308   0.002059692   0.750000000



     Writing output data file CCOrand2.save/
     NEW-OLD atomic charge density approx. for the potential

     Check: negative core charge=   -0.000003

     total cpu time spent up to now is       79.8 secs

     Self-consistent Calculation

     iteration #  1     ecut=    70.00 Ry     beta= 0.70
     CG style diagonalization
     c_bands:  2 eigenvalues not converged
     c_bands:  4 eigenvalues not converged
     c_bands:  2 eigenvalues not converged
     c_bands:  2 eigenvalues not converged
     c_bands:  2 eigenvalues not converged
     c_bands:  4 eigenvalues not converged
     c_bands:  3 eigenvalues not converged
     c_bands:  1 eigenvalues not converged
     c_bands:  2 eigenvalues not converged
     c_bands:  3 eigenvalues not converged
     c_bands:  1 eigenvalues not converged
     c_bands:  2 eigenvalues not converged
     c_bands:  4 eigenvalues not converged
     c_bands:  4 eigenvalues not converged
     c_bands:  4 eigenvalues not converged
     ethr =  1.00E-06,  avg # of iterations = 11.1

     total cpu time spent up to now is      100.0 secs

     total energy              =    -367.41407656 Ry
     Harris-Foulkes estimate   =    -367.42031188 Ry
     estimated scf accuracy    <       0.00845369 Ry

     iteration #  2     ecut=    70.00 Ry     beta= 0.70
     CG style diagonalization
     ethr =  1.32E-05,  avg # of iterations =  4.0

     total cpu time spent up to now is      107.5 secs

     total energy              =    -367.41641198 Ry
     Harris-Foulkes estimate   =    -367.41856791 Ry
     estimated scf accuracy    <       0.00386058 Ry

     iteration #  3     ecut=    70.00 Ry     beta= 0.70
     CG style diagonalization
     ethr =  6.03E-06,  avg # of iterations =  3.6

     total cpu time spent up to now is      114.3 secs

     total energy              =    -367.41735208 Ry
     Harris-Foulkes estimate   =    -367.41738854 Ry
     estimated scf accuracy    <       0.00007807 Ry

     iteration #  4     ecut=    70.00 Ry     beta= 0.70
     CG style diagonalization
     ethr =  1.22E-07,  avg # of iterations =  4.3

     total cpu time spent up to now is      122.3 secs

     total energy              =    -367.41741007 Ry
     Harris-Foulkes estimate   =    -367.41742683 Ry
     estimated scf accuracy    <       0.00004301 Ry

     iteration #  5     ecut=    70.00 Ry     beta= 0.70
     CG style diagonalization
     ethr =  6.72E-08,  avg # of iterations =  3.5

     total cpu time spent up to now is      128.9 secs

     total energy              =    -367.41741487 Ry
     Harris-Foulkes estimate   =    -367.41741599 Ry
     estimated scf accuracy    <       0.00000200 Ry

     iteration #  6     ecut=    70.00 Ry     beta= 0.70
     CG style diagonalization
     ethr =  3.13E-09,  avg # of iterations =  4.1

     total cpu time spent up to now is      136.5 secs

     total energy              =    -367.41741557 Ry
     Harris-Foulkes estimate   =    -367.41741567 Ry
     estimated scf accuracy    <       0.00000019 Ry

     iteration #  7     ecut=    70.00 Ry     beta= 0.70
     CG style diagonalization
     ethr =  2.93E-10,  avg # of iterations =  4.0

     total cpu time spent up to now is      144.0 secs

     total energy              =    -367.41741566 Ry
     Harris-Foulkes estimate   =    -367.41741568 Ry
     estimated scf accuracy    <       0.00000003 Ry

     iteration #  8     ecut=    70.00 Ry     beta= 0.70
     CG style diagonalization
     ethr =  5.04E-11,  avg # of iterations =  3.9

     total cpu time spent up to now is      151.3 secs

     End of self-consistent calculation

          k = 0.0000 0.0000 0.0000 (  7893 PWs)   bands (ev):

   -32.7535 -32.7333 -16.5738 -16.4699 -14.3828 -14.3828 -13.8373 -13.8373
   -13.7688 -13.7104 -13.3509 -13.3509 -12.5599 -12.5599  -2.6444  -2.3344
    -1.2080  -0.9553  -0.9553  -0.6637  -0.6637   0.3691   3.0046   3.0046
     3.2095   3.2095   3.5955   3.5955   4.4113   4.4113   4.5036   5.0002

          k =-0.2354-0.1359 0.0765 (  7874 PWs)   bands (ev):

   -32.7514 -32.7351 -16.5956 -16.4505 -14.3821 -14.2652 -14.1034 -13.8983
   -13.7786 -13.7782 -13.2146 -12.9985 -12.7322 -12.5981  -2.5019  -2.3840
    -1.0867  -0.8993  -0.8313  -0.7059  -0.6698   0.1928   3.0430   3.0893
     3.1756   3.2799   3.3526   3.4524   4.2073   4.2362   4.7632   4.9499

          k =-0.4708-0.2718 0.1530 (  7873 PWs)   bands (ev):

   -32.7461 -32.7398 -16.5750 -16.4822 -14.3221 -14.2442 -14.2169 -14.0813
   -13.7502 -13.7012 -13.0035 -12.8740 -12.8305 -12.7302  -2.3626  -2.3291
    -1.0320  -0.8973  -0.6918  -0.6632  -0.4486  -0.0742   2.8132   2.9071
     3.1025   3.1479   3.4850   3.5738   3.9450   3.9573   4.9244   4.9735

          k =-0.2354 0.1359 0.1530 (  7882 PWs)   bands (ev):

   -32.7510 -32.7355 -16.6016 -16.4461 -14.3453 -14.3197 -14.0039 -13.9707
   -13.8204 -13.7833 -13.0874 -13.0710 -12.6842 -12.6615  -2.4848  -2.4202
    -1.0188  -0.9030  -0.8775  -0.6941  -0.6347   0.1566   3.0362   3.0730
     3.1337   3.2741   3.4162   3.5033   4.0797   4.3132   4.7664   4.9195

          k =-0.4708-0.0000 0.2295 (  7894 PWs)   bands (ev):

   -32.7474 -32.7386 -16.6003 -16.4564 -14.3955 -14.2925 -14.0986 -13.9737
   -13.7777 -13.7307 -13.1007 -12.9569 -12.7446 -12.6799  -2.4167  -2.3321
    -0.9806  -0.8617  -0.8273  -0.6116  -0.4914  -0.0302   2.8202   3.0211
     3.0831   3.1799   3.3734   3.5743   3.8595   4.1404   4.8938   4.9783

          k = 0.4708 0.5436-0.0765 (  7908 PWs)   bands (ev):

   -32.7435 -32.7422 -16.5548 -16.5109 -14.3520 -14.2732 -14.1761 -14.0159
   -13.7593 -13.7262 -13.0541 -12.9225 -12.7816 -12.6886  -2.3509  -2.2782
    -1.0390  -0.8892  -0.7344  -0.6098  -0.2629  -0.1630   2.7302   2.8065
     3.0448   3.1400   3.4176   3.4855   3.9629   4.0041   4.9612   5.0257

          k = 0.2354 0.4077 0.0000 (  7889 PWs)   bands (ev):

   -32.7484 -32.7376 -16.6137 -16.4354 -14.4041 -14.2964 -14.1374 -13.9317
   -13.7950 -13.7050 -13.1081 -12.9813 -12.7160 -12.6839  -2.4182  -2.3109
    -1.0592  -0.8043  -0.7381  -0.6453  -0.6260   0.0205   2.8081   3.0942
     3.1005   3.1406   3.2897   3.5747   3.9783   4.1243   4.8970   4.9950

          k =-0.4708 0.2718 0.3060 (  7892 PWs)   bands (ev):

   -32.7469 -32.7390 -16.6458 -16.4055 -14.4820 -14.4216 -13.8616 -13.8020
   -13.7937 -13.7630 -13.2277 -13.1371 -12.6440 -12.6255  -2.5237  -2.1678
    -1.0501  -0.8378  -0.7669  -0.5376  -0.4226  -0.1361   2.6438   2.9418
     3.1015   3.3365   3.3648   3.5040   3.8199   4.1656   4.7593   5.0957

          k = 0.4708 0.8154 0.0000 (  7887 PWs)   bands (ev):

   -32.7449 -32.7408 -16.6049 -16.4616 -14.4135 -14.3643 -13.9682 -13.9587
   -13.7856 -13.7285 -13.1896 -12.9912 -12.7089 -12.6395  -2.4293  -2.1978
    -0.9744  -0.9426  -0.7954  -0.5362  -0.2630  -0.1473   2.6122   2.8298
     3.1792   3.1930   3.3377   3.3525   3.9434   4.0918   4.8661   5.0995

          k =-0.0000-0.0000 0.2295 (  7865 PWs)   bands (ev):

   -32.7516 -32.7352 -16.5662 -16.4821 -14.3529 -14.3529 -13.9460 -13.9460
   -13.7598 -13.7127 -13.2189 -13.2189 -12.6135 -12.6135  -2.6468  -2.4168
    -1.0075  -0.9246  -0.9246  -0.6892  -0.6892   0.2532   3.0310   3.0310
     3.2066   3.2066   3.6423   3.6423   4.3096   4.3096   4.5390   4.9317

          k =-0.2354-0.1359 0.3060 (  7885 PWs)   bands (ev):

   -32.7487 -32.7378 -16.5671 -16.4882 -14.3860 -14.2263 -14.1764 -13.8632
   -13.8050 -13.7459 -13.1883 -12.9020 -12.8292 -12.6160  -2.5386  -2.4229
    -0.9453  -0.8863  -0.7511  -0.7358  -0.6223   0.0571   3.0252   3.1156
     3.1692   3.2551   3.3392   3.6656   4.0137   4.1579   4.7567   4.9032

          k = 0.7061 0.4077 0.0000 (  7899 PWs)   bands (ev):

   -32.7436 -32.7423 -16.5594 -16.5047 -14.4055 -14.2404 -14.1576 -13.9908
   -13.7509 -13.7202 -13.0699 -12.9486 -12.8011 -12.6614  -2.4462  -2.2606
    -1.0269  -0.8625  -0.7400  -0.6465  -0.2881  -0.1875   2.7783   2.9238
     3.0571   3.2170   3.4265   3.7411   3.7478   3.9641   4.8733   5.0024

          k = 0.4708 0.2718 0.0765 (  7904 PWs)   bands (ev):

   -32.7473 -32.7386 -16.6276 -16.4217 -14.4111 -14.3852 -14.0484 -13.9288
   -13.7824 -13.6784 -13.1709 -12.9642 -12.7366 -12.6555  -2.4621  -2.2199
    -1.0799  -0.8103  -0.6854  -0.6597  -0.5110  -0.0609   2.6972   2.9575
     3.0673   3.2664   3.3376   3.7361   3.7769   4.1039   4.8306   5.0549

          k =-0.2354 0.1359 0.3825 (  7903 PWs)   bands (ev):

   -32.7476 -32.7388 -16.5821 -16.4757 -14.3856 -14.2083 -14.1445 -13.9500
   -13.7972 -13.7623 -13.0862 -12.9186 -12.7911 -12.6914  -2.5008  -2.4879
    -0.9244  -0.8224  -0.8194  -0.6637  -0.5735  -0.0375   3.0139   3.0570
     3.1654   3.2400   3.5075   3.7090   3.8249   4.2050   4.7874   4.8370

          k = 0.7061 0.6795 0.0765 (  7897 PWs)   bands (ev):

   -32.7447 -32.7413 -16.5618 -16.5070 -14.3616 -14.3125 -14.0274 -14.0017
   -13.7940 -13.7742 -13.0473 -12.9702 -12.7458 -12.7034  -2.4054  -2.3744
    -0.9189  -0.9075  -0.7880  -0.6352  -0.3163  -0.1577   2.8410   2.8984
     3.1744   3.2778   3.3750   3.4805   3.8628   4.0437   4.9030   4.9389

          k = 0.4708 0.5436 0.1530 (  7894 PWs)   bands (ev):

   -32.7445 -32.7412 -16.5909 -16.4753 -14.3967 -14.3266 -14.1101 -13.8854
   -13.7916 -13.7424 -13.1561 -12.9336 -12.7653 -12.6409  -2.4081  -2.2195
    -1.0479  -0.8816  -0.6779  -0.6541  -0.2843  -0.1286   2.6469   2.8310
     3.0637   3.2180   3.3691   3.4361   3.9560   4.0359   4.8974   5.0785

          k = 0.7061-0.4077-0.2295 (  7900 PWs)   bands (ev):

   -32.7450 -32.7409 -16.6211 -16.4394 -14.4881 -14.3559 -13.9578 -13.8316
   -13.7848 -13.7211 -13.1936 -13.1217 -12.6764 -12.6178  -2.5198  -2.1872
    -1.0622  -0.8201  -0.6914  -0.6240  -0.3213  -0.1973   2.6735   2.9153
     3.1679   3.3269   3.3293   3.4993   3.8359   4.0711   4.7811   5.0713

          k =-0.0000-0.0000 0.4590 (  7877 PWs)   bands (ev):

   -32.7465 -32.7403 -16.5439 -16.5117 -14.2641 -14.2641 -14.1213 -14.1213
   -13.7398 -13.7219 -12.9827 -12.9827 -12.7640 -12.7640  -2.6286  -2.5498
    -0.8474  -0.8474  -0.7578  -0.7578  -0.5583  -0.0824   3.0981   3.0981
     3.1704   3.1704   3.8059   3.8059   4.0645   4.0645   4.6374   4.7819

          k = 0.9415 0.5436 0.1530 (  7904 PWs)   bands (ev):

   -32.7438 -32.7426 -16.5397 -16.5228 -14.3795 -14.2488 -14.1246 -13.9560
   -13.7793 -13.7416 -13.0791 -12.9000 -12.8330 -12.6878  -2.5488  -2.4726
    -0.8924  -0.7873  -0.7768  -0.7504  -0.3435  -0.2384   3.0108   3.0705
     3.1946   3.2132   3.5243   3.7455   3.9078   4.0026   4.7719   4.8346

     highest occupied level (ev):     5.0995

!    total energy              =    -367.41741567 Ry
     Harris-Foulkes estimate   =    -367.41741567 Ry
     estimated scf accuracy    <          1.9E-09 Ry

     The total energy is the sum of the following terms:

     one-electron contribution =    -133.83586930 Ry
     hartree contribution      =      98.08842455 Ry
     xc contribution           =     -75.47113790 Ry
     ewald contribution        =    -256.19883301 Ry

     convergence has been achieved in   8 iterations

     Forces acting on atoms (cartesian axes, Ry/au):

     atom    1 type  1   force =     0.00000000    0.00000000    0.00000000
     atom    2 type  1   force =     0.00000000    0.00000000    0.00000000
     atom    3 type  2   force =     0.00000000    0.00000000    0.00000000
     atom    4 type  2   force =     0.00000000    0.00000000    0.00000000
     atom    5 type  3   force =     0.00839226   -0.01453583   -0.00000000
     atom    6 type  3   force =    -0.01678453   -0.00000000    0.00000000
     atom    7 type  3   force =     0.00839226    0.01453583    0.00000000
     atom    8 type  3   force =     0.01678453    0.00000000   -0.00000000
     atom    9 type  3   force =    -0.00839226   -0.01453583   -0.00000000
     atom   10 type  3   force =    -0.00839226    0.01453583    0.00000000

     Total force =     0.041114     Total SCF correction =     0.000063


     Computing stress (Cartesian axis) and pressure

          total   stress  (Ry/bohr**3)                   (kbar)     P=   54.54
   0.00033674  -0.00000000  -0.00000000         49.54     -0.00     -0.00
  -0.00000000   0.00033674   0.00000000         -0.00     49.54      0.00
   0.00000000   0.00000000   0.00043876          0.00      0.00     64.54


     number of scf cycles    =   2
     number of bfgs steps    =   1

     energy   old            =    -367.4127087407 Ry
     energy   new            =    -367.4174156660 Ry

     CASE: energy  _new < energy  _old

     new trust radius        =       0.0124250020 bohr
     new conv_thr            =       0.0000000017 Ry


ATOMIC_POSITIONS (crystal)
Ca       0.500000000   0.500000000   0.500000000
Ca       0.000000000  -0.000000000   0.000000000
C        0.250000000   0.250000000   0.250000000
C        0.750000000   0.750000000   0.750000000
O        0.503347265   0.996652735   0.250000000
O        0.996652735   0.250000000   0.503347265
O        0.250000000   0.503347265   0.996652735
O        0.003347265   0.750000000   0.496652735
O        0.750000000   0.496652735   0.003347265
O        0.496652735   0.003347265   0.750000000



     Writing output data file CCOrand2.save/
     NEW-OLD atomic charge density approx. for the potential

     Check: negative core charge=   -0.000003

     total cpu time spent up to now is      152.2 secs

     Self-consistent Calculation

     iteration #  1     ecut=    70.00 Ry     beta= 0.70
     CG style diagonalization
     ethr =  1.00E-06,  avg # of iterations =  5.7

     total cpu time spent up to now is      162.7 secs

     total energy              =    -367.41776583 Ry
     Harris-Foulkes estimate   =    -367.41818713 Ry
     estimated scf accuracy    <       0.00056925 Ry

     iteration #  2     ecut=    70.00 Ry     beta= 0.70
     CG style diagonalization
     ethr =  8.89E-07,  avg # of iterations =  4.0

     total cpu time spent up to now is      170.2 secs

     total energy              =    -367.41793801 Ry
     Harris-Foulkes estimate   =    -367.41807272 Ry
     estimated scf accuracy    <       0.00023806 Ry

     iteration #  3     ecut=    70.00 Ry     beta= 0.70
     CG style diagonalization
     ethr =  3.72E-07,  avg # of iterations =  3.6

     total cpu time spent up to now is      176.9 secs

     total energy              =    -367.41799617 Ry
     Harris-Foulkes estimate   =    -367.41799729 Ry
     estimated scf accuracy    <       0.00000302 Ry

     iteration #  4     ecut=    70.00 Ry     beta= 0.70
     CG style diagonalization
     ethr =  4.73E-09,  avg # of iterations =  4.5

     total cpu time spent up to now is      185.4 secs

     total energy              =    -367.41799917 Ry
     Harris-Foulkes estimate   =    -367.41800050 Ry
     estimated scf accuracy    <       0.00000356 Ry

     iteration #  5     ecut=    70.00 Ry     beta= 0.70
     CG style diagonalization
     ethr =  4.73E-09,  avg # of iterations =  3.6

     total cpu time spent up to now is      192.1 secs

     total energy              =    -367.41799942 Ry
     Harris-Foulkes estimate   =    -367.41799955 Ry
     estimated scf accuracy    <       0.00000028 Ry

     iteration #  6     ecut=    70.00 Ry     beta= 0.70
     CG style diagonalization
     ethr =  4.33E-10,  avg # of iterations =  3.7

     total cpu time spent up to now is      199.1 secs

     total energy              =    -367.41799947 Ry
     Harris-Foulkes estimate   =    -367.41799947 Ry
     estimated scf accuracy    <       0.00000002 Ry

     iteration #  7     ecut=    70.00 Ry     beta= 0.70
     CG style diagonalization
     ethr =  2.77E-11,  avg # of iterations =  3.9

     total cpu time spent up to now is      206.4 secs

     total energy              =    -367.41799947 Ry
     Harris-Foulkes estimate   =    -367.41799948 Ry
     estimated scf accuracy    <          4.7E-09 Ry

     iteration #  8     ecut=    70.00 Ry     beta= 0.70
     CG style diagonalization
     ethr =  7.31E-12,  avg # of iterations =  4.0

     total cpu time spent up to now is      213.9 secs

     End of self-consistent calculation

          k = 0.0000 0.0000 0.0000 (  7893 PWs)   bands (ev):

   -32.7314 -32.7110 -16.4905 -16.3909 -14.3669 -14.3669 -13.8179 -13.8179
   -13.7485 -13.6803 -13.3112 -13.3112 -12.5129 -12.5129  -2.6609  -2.3622
    -1.1660  -0.9421  -0.9421  -0.6478  -0.6478   0.4321   2.9988   2.9988
     3.2122   3.2122   3.5982   3.5982   4.4101   4.4101   4.4689   4.9702

          k =-0.2354-0.1359 0.0765 (  7874 PWs)   bands (ev):

   -32.7292 -32.7128 -16.5144 -16.3694 -14.3657 -14.2478 -14.0816 -13.8776
   -13.7574 -13.7541 -13.1750 -12.9571 -12.6867 -12.5520  -2.5196  -2.4117
    -1.0480  -0.8844  -0.8133  -0.6884  -0.6531   0.2506   3.0419   3.0894
     3.1733   3.2804   3.3533   3.4521   4.2022   4.2332   4.7355   4.9206

          k =-0.4708-0.2718 0.1530 (  7873 PWs)   bands (ev):

   -32.7239 -32.7176 -16.4949 -16.4001 -14.3046 -14.2258 -14.1988 -14.0626
   -13.7256 -13.6757 -12.9616 -12.8314 -12.7875 -12.6867  -2.3892  -2.3512
    -1.0073  -0.8772  -0.6730  -0.6442  -0.4102  -0.0258   2.8127   2.9077
     3.1026   3.1500   3.4799   3.5717   3.9405   3.9520   4.8958   4.9460

          k =-0.2354 0.1359 0.1530 (  7882 PWs)   bands (ev):

   -32.7288 -32.7132 -16.5210 -16.3645 -14.3282 -14.3028 -13.9808 -13.9458
   -13.8008 -13.7633 -13.0478 -13.0296 -12.6384 -12.6155  -2.5023  -2.4472
    -0.9784  -0.8879  -0.8619  -0.6758  -0.6183   0.2137   3.0354   3.0714
     3.1315   3.2751   3.4167   3.5032   4.0761   4.3107   4.7371   4.8901

          k =-0.4708-0.0000 0.2295 (  7894 PWs)   bands (ev):

   -32.7252 -32.7163 -16.5210 -16.3735 -14.3789 -14.2739 -14.0773 -13.9540
   -13.7557 -13.7068 -13.0602 -12.9146 -12.7009 -12.6344  -2.4436  -2.3525
    -0.9568  -0.8423  -0.8031  -0.5942  -0.4588   0.0206   2.8190   3.0189
     3.0842   3.1804   3.3711   3.5712   3.8559   4.1359   4.8650   4.9509

          k = 0.4708 0.5436-0.0765 (  7908 PWs)   bands (ev):

   -32.7213 -32.7200 -16.4749 -16.4292 -14.3345 -14.2553 -14.1571 -13.9944
   -13.7366 -13.7010 -13.0139 -12.8810 -12.7379 -12.6437  -2.3764  -2.3025
    -1.0168  -0.8659  -0.7138  -0.5907  -0.2182  -0.1200   2.7298   2.8056
     3.0440   3.1407   3.4135   3.4812   3.9585   3.9995   4.9337   4.9982

          k = 0.2354 0.4077 0.0000 (  7889 PWs)   bands (ev):

   -32.7262 -32.7153 -16.5346 -16.3518 -14.3873 -14.2790 -14.1182 -13.9092
   -13.7753 -13.6795 -13.0663 -12.9401 -12.6719 -12.6386  -2.4461  -2.3310
    -1.0333  -0.7837  -0.7199  -0.6282  -0.5915   0.0721   2.8078   3.0952
     3.1005   3.1412   3.2844   3.5733   3.9749   4.1196   4.8683   4.9675

          k =-0.4708 0.2718 0.3060 (  7892 PWs)   bands (ev):

   -32.7247 -32.7167 -16.5691 -16.3193 -14.4655 -14.4055 -13.8413 -13.7828
   -13.7722 -13.7352 -13.1884 -13.0967 -12.5989 -12.5787  -2.5512  -2.1884
    -1.0356  -0.8155  -0.7313  -0.5204  -0.3901  -0.0874   2.6416   2.9360
     3.1001   3.3403   3.3631   3.5015   3.8168   4.1618   4.7295   5.0680

          k = 0.4708 0.8154 0.0000 (  7887 PWs)   bands (ev):

   -32.7227 -32.7185 -16.5271 -16.3779 -14.3977 -14.3450 -13.9431 -13.9384
   -13.7660 -13.7046 -13.1514 -12.9504 -12.6639 -12.5931  -2.4560  -2.2208
    -0.9593  -0.9187  -0.7636  -0.5182  -0.2238  -0.1005   2.6099   2.8259
     3.1792   3.1925   3.3351   3.3493   3.9393   4.0874   4.8378   5.0724

          k =-0.0000-0.0000 0.2295 (  7865 PWs)   bands (ev):

   -32.7294 -32.7129 -16.4833 -16.4028 -14.3367 -14.3367 -13.9261 -13.9261
   -13.7385 -13.6835 -13.1794 -13.1794 -12.5672 -12.5672  -2.6634  -2.4405
    -0.9670  -0.9110  -0.9110  -0.6736  -0.6736   0.3128   3.0262   3.0262
     3.2092   3.2092   3.6438   3.6438   4.3083   4.3083   4.5049   4.9011

          k =-0.2354-0.1359 0.3060 (  7885 PWs)   bands (ev):

   -32.7265 -32.7155 -16.4856 -16.4077 -14.3688 -14.2071 -14.1591 -13.8409
   -13.7853 -13.7194 -13.1472 -12.8604 -12.7850 -12.5707  -2.5570  -2.4469
    -0.9150  -0.8717  -0.7347  -0.7185  -0.5939   0.1111   3.0222   3.1168
     3.1699   3.2547   3.3386   3.6637   4.0105   4.1535   4.7281   4.8732

          k = 0.7061 0.4077 0.0000 (  7899 PWs)   bands (ev):

   -32.7214 -32.7200 -16.4804 -16.4219 -14.3883 -14.2229 -14.1380 -13.9710
   -13.7288 -13.6927 -13.0290 -12.9078 -12.7567 -12.6169  -2.4701  -2.2848
    -1.0080  -0.8358  -0.7212  -0.6266  -0.2494  -0.1403   2.7773   2.9217
     3.0572   3.2190   3.4246   3.7369   3.7438   3.9578   4.8459   4.9735

          k = 0.4708 0.2718 0.0765 (  7904 PWs)   bands (ev):

   -32.7251 -32.7163 -16.5498 -16.3366 -14.3950 -14.3681 -14.0285 -13.9083
   -13.7612 -13.6516 -13.1306 -12.9229 -12.6926 -12.6096  -2.4900  -2.2408
    -1.0590  -0.7885  -0.6578  -0.6416  -0.4781  -0.0123   2.6956   2.9570
     3.0646   3.2698   3.3344   3.7347   3.7734   4.0986   4.8017   5.0271

          k =-0.2354 0.1359 0.3825 (  7903 PWs)   bands (ev):

   -32.7254 -32.7165 -16.5020 -16.3941 -14.3688 -14.1899 -14.1227 -13.9295
   -13.7748 -13.7397 -13.0451 -12.8775 -12.7462 -12.6465  -2.5241  -2.5060
    -0.9065  -0.8064  -0.7956  -0.6467  -0.5400   0.0144   3.0129   3.0533
     3.1673   3.2402   3.5056   3.7073   3.8227   4.2026   4.7572   4.8069

          k = 0.7061 0.6795 0.0765 (  7897 PWs)   bands (ev):

   -32.7224 -32.7191 -16.4819 -16.4258 -14.3443 -14.2936 -14.0031 -13.9802
   -13.7742 -13.7524 -13.0072 -12.9285 -12.7014 -12.6581  -2.4297  -2.3962
    -0.8991  -0.8890  -0.7624  -0.6158  -0.2777  -0.1110   2.8388   2.8956
     3.1743   3.2802   3.3719   3.4775   3.8576   4.0389   4.8745   4.9111

          k = 0.4708 0.5436 0.1530 (  7894 PWs)   bands (ev):

   -32.7223 -32.7189 -16.5125 -16.3922 -14.3794 -14.3089 -14.0895 -13.8609
   -13.7719 -13.7182 -13.1171 -12.8927 -12.7208 -12.5949  -2.4345  -2.2429
    -1.0275  -0.8578  -0.6548  -0.6330  -0.2429  -0.0845   2.6453   2.8280
     3.0625   3.2198   3.3662   3.4321   3.9522   4.0303   4.8696   5.0513

          k = 0.7061-0.4077-0.2295 (  7900 PWs)   bands (ev):

   -32.7228 -32.7186 -16.5441 -16.3543 -14.4716 -14.3390 -13.9359 -13.8119
   -13.7651 -13.6930 -13.1530 -13.0829 -12.6302 -12.5724  -2.5458  -2.2089
    -1.0456  -0.7969  -0.6639  -0.6040  -0.2809  -0.1539   2.6715   2.9099
     3.1662   3.3259   3.3330   3.4964   3.8299   4.0674   4.7525   5.0431

          k =-0.0000-0.0000 0.4590 (  7877 PWs)   bands (ev):

   -32.7243 -32.7180 -16.4622 -16.4314 -14.2467 -14.2467 -14.1024 -14.1024
   -13.7159 -13.6950 -12.9412 -12.9412 -12.7199 -12.7199  -2.6460  -2.5692
    -0.8331  -0.8331  -0.7428  -0.7428  -0.5152  -0.0311   3.0961   3.0961
     3.1715   3.1715   3.8055   3.8055   4.0632   4.0632   4.6045   4.7501

          k = 0.9415 0.5436 0.1530 (  7904 PWs)   bands (ev):

   -32.7216 -32.7203 -16.4598 -16.4412 -14.3620 -14.2296 -14.1063 -13.9362
   -13.7569 -13.7159 -13.0374 -12.8563 -12.7909 -12.6434  -2.5690  -2.4927
    -0.8770  -0.7684  -0.7589  -0.7329  -0.3010  -0.1916   3.0089   3.0697
     3.1947   3.2131   3.5230   3.7426   3.9053   3.9999   4.7420   4.8042

     highest occupied level (ev):     5.0724

!    total energy              =    -367.41799948 Ry
     Harris-Foulkes estimate   =    -367.41799948 Ry
     estimated scf accuracy    <          1.3E-10 Ry

     The total energy is the sum of the following terms:

     one-electron contribution =    -132.93041825 Ry
     hartree contribution      =      97.64534300 Ry
     xc contribution           =     -75.42388707 Ry
     ewald contribution        =    -256.70903715 Ry

     convergence has been achieved in   8 iterations

     Forces acting on atoms (cartesian axes, Ry/au):

     atom    1 type  1   force =    -0.00000000    0.00000000   -0.00000000
     atom    2 type  1   force =     0.00000000   -0.00000000    0.00000000
     atom    3 type  2   force =     0.00000000    0.00000000   -0.00000000
     atom    4 type  2   force =    -0.00000000   -0.00000000   -0.00000000
     atom    5 type  3   force =    -0.00050360    0.00087227    0.00000000
     atom    6 type  3   force =     0.00100721    0.00000000   -0.00000000
     atom    7 type  3   force =    -0.00050360   -0.00087227   -0.00000000
     atom    8 type  3   force =    -0.00100721    0.00000000   -0.00000000
     atom    9 type  3   force =     0.00050360    0.00087227    0.00000000
     atom   10 type  3   force =     0.00050360   -0.00087227   -0.00000000

     Total force =     0.002467     Total SCF correction =     0.000002


     Computing stress (Cartesian axis) and pressure

          total   stress  (Ry/bohr**3)                   (kbar)     P=   42.06
   0.00020114   0.00000000  -0.00000000         29.59      0.00     -0.00
   0.00000000   0.00020114   0.00000000          0.00     29.59      0.00
  -0.00000000   0.00000000   0.00045551         -0.00      0.00     67.01


     number of scf cycles    =   3
     number of bfgs steps    =   2

     energy   old            =    -367.4174156660 Ry
     energy   new            =    -367.4179994755 Ry

     CASE: energy  _new < energy  _old

     new trust radius        =       0.0007033930 bohr
     new conv_thr            =       0.0000000001 Ry


ATOMIC_POSITIONS (crystal)
Ca       0.500000000   0.500000000   0.500000000
Ca       0.000000000  -0.000000000  -0.000000000
C        0.250000000   0.250000000   0.250000000
C        0.750000000   0.750000000   0.750000000
O        0.503274374   0.996725626   0.250000000
O        0.996725626   0.250000000   0.503274374
O        0.250000000   0.503274374   0.996725626
O        0.003274374   0.750000000   0.496725626
O        0.750000000   0.496725626   0.003274374
O        0.496725626   0.003274374   0.750000000



     Writing output data file CCOrand2.save/
     NEW-OLD atomic charge density approx. for the potential

     Check: negative core charge=   -0.000003

     total cpu time spent up to now is      214.7 secs

     Self-consistent Calculation

     iteration #  1     ecut=    70.00 Ry     beta= 0.70
     CG style diagonalization
     ethr =  1.00E-06,  avg # of iterations =  2.4

     Threshold (ethr) on eigenvalues was too large:
     Diagonalizing with lowered threshold

     CG style diagonalization
     c_bands:  1 eigenvalues not converged
     c_bands:  1 eigenvalues not converged
     c_bands:  1 eigenvalues not converged
     ethr =  2.15E-09,  avg # of iterations =  5.3

     total cpu time spent up to now is      229.2 secs

     total energy              =    -367.41800095 Ry
     Harris-Foulkes estimate   =    -367.41800229 Ry
     estimated scf accuracy    <       0.00000181 Ry

     iteration #  2     ecut=    70.00 Ry     beta= 0.70
     CG style diagonalization
     ethr =  2.83E-09,  avg # of iterations =  4.0

     total cpu time spent up to now is      236.7 secs

     total energy              =    -367.41800147 Ry
     Harris-Foulkes estimate   =    -367.41800191 Ry
     estimated scf accuracy    <       0.00000078 Ry

     iteration #  3     ecut=    70.00 Ry     beta= 0.70
     CG style diagonalization
     ethr =  1.22E-09,  avg # of iterations =  3.6

     total cpu time spent up to now is      243.4 secs

     total energy              =    -367.41800166 Ry
     Harris-Foulkes estimate   =    -367.41800167 Ry
     estimated scf accuracy    <       0.00000001 Ry

     iteration #  4     ecut=    70.00 Ry     beta= 0.70
     CG style diagonalization
     ethr =  2.15E-11,  avg # of iterations =  4.4

     total cpu time spent up to now is      251.6 secs

     total energy              =    -367.41800167 Ry
     Harris-Foulkes estimate   =    -367.41800168 Ry
     estimated scf accuracy    <       0.00000001 Ry

     iteration #  5     ecut=    70.00 Ry     beta= 0.70
     CG style diagonalization
     ethr =  1.89E-11,  avg # of iterations =  3.5

     total cpu time spent up to now is      258.1 secs

     total energy              =    -367.41800168 Ry
     Harris-Foulkes estimate   =    -367.41800168 Ry
     estimated scf accuracy    <          7.1E-10 Ry

     iteration #  6     ecut=    70.00 Ry     beta= 0.70
     CG style diagonalization
     ethr =  1.11E-12,  avg # of iterations =  4.0

     total cpu time spent up to now is      265.5 secs

     End of self-consistent calculation

          k = 0.0000 0.0000 0.0000 (  7893 PWs)   bands (ev):

   -32.7326 -32.7123 -16.4952 -16.3953 -14.3678 -14.3678 -13.8190 -13.8190
   -13.7497 -13.6821 -13.3134 -13.3134 -12.5156 -12.5156  -2.6599  -2.3606
    -1.1684  -0.9429  -0.9429  -0.6487  -0.6487   0.4286   2.9991   2.9991
     3.2120   3.2120   3.5981   3.5981   4.4102   4.4102   4.4709   4.9719

          k =-0.2354-0.1359 0.0765 (  7874 PWs)   bands (ev):

   -32.7305 -32.7141 -16.5189 -16.3740 -14.3667 -14.2488 -14.0828 -13.8788
   -13.7586 -13.7555 -13.1773 -12.9595 -12.6893 -12.5546  -2.5186  -2.4101
    -1.0502  -0.8852  -0.8144  -0.6894  -0.6540   0.2473   3.0420   3.0894
     3.1734   3.2804   3.3532   3.4521   4.2025   4.2334   4.7370   4.9223

          k =-0.4708-0.2718 0.1530 (  7873 PWs)   bands (ev):

   -32.7251 -32.7189 -16.4994 -16.4047 -14.3056 -14.2268 -14.1998 -14.0637
   -13.7270 -13.6771 -12.9639 -12.8338 -12.7899 -12.6891  -2.3877  -2.3500
    -1.0087  -0.8783  -0.6740  -0.6453  -0.4124  -0.0285   2.8127   2.9076
     3.1026   3.1499   3.4802   3.5718   3.9407   3.9523   4.8974   4.9475

          k =-0.2354 0.1359 0.1530 (  7882 PWs)   bands (ev):

   -32.7301 -32.7144 -16.5255 -16.3691 -14.3292 -14.3038 -13.9822 -13.9473
   -13.8019 -13.7644 -13.0500 -13.0319 -12.6410 -12.6181  -2.5013  -2.4456
    -0.9806  -0.8888  -0.8628  -0.6769  -0.6193   0.2105   3.0354   3.0716
     3.1316   3.2751   3.4167   3.5032   4.0763   4.3108   4.7388   4.8917

          k =-0.4708-0.0000 0.2295 (  7894 PWs)   bands (ev):

   -32.7265 -32.7176 -16.5255 -16.3782 -14.3799 -14.2749 -14.0785 -13.9551
   -13.7569 -13.7082 -13.0625 -12.9170 -12.7034 -12.6370  -2.4420  -2.3513
    -0.9581  -0.8434  -0.8045  -0.5952  -0.4607   0.0178   2.8191   3.0190
     3.0841   3.1804   3.3712   3.5714   3.8561   4.1362   4.8666   4.9524

          k = 0.4708 0.5436-0.0765 (  7908 PWs)   bands (ev):

   -32.7225 -32.7213 -16.4794 -16.4338 -14.3355 -14.2563 -14.1582 -13.9956
   -13.7379 -13.7024 -13.0161 -12.8834 -12.7403 -12.6462  -2.3750  -2.3012
    -1.0180  -0.8672  -0.7149  -0.5918  -0.2207  -0.1224   2.7298   2.8057
     3.0440   3.1407   3.4138   3.4814   3.9588   3.9998   4.9352   4.9997

          k = 0.2354 0.4077 0.0000 (  7889 PWs)   bands (ev):

   -32.7275 -32.7166 -16.5391 -16.3565 -14.3882 -14.2799 -14.1193 -13.9105
   -13.7764 -13.6810 -13.0687 -12.9424 -12.6744 -12.6411  -2.4446  -2.3299
    -1.0347  -0.7848  -0.7209  -0.6291  -0.5935   0.0692   2.8079   3.0952
     3.1005   3.1411   3.2847   3.5734   3.9751   4.1198   4.8699   4.9691

          k =-0.4708 0.2718 0.3060 (  7892 PWs)   bands (ev):

   -32.7260 -32.7180 -16.5734 -16.3242 -14.4665 -14.4064 -13.8425 -13.7839
   -13.7734 -13.7368 -13.1906 -13.0990 -12.6014 -12.5813  -2.5496  -2.1872
    -1.0365  -0.8167  -0.7332  -0.5214  -0.3919  -0.0901   2.6417   2.9363
     3.1002   3.3400   3.3632   3.5017   3.8169   4.1621   4.7312   5.0695

          k = 0.4708 0.8154 0.0000 (  7887 PWs)   bands (ev):

   -32.7240 -32.7198 -16.5315 -16.3826 -14.3986 -14.3461 -13.9445 -13.9395
   -13.7671 -13.7060 -13.1536 -12.9527 -12.6664 -12.5957  -2.4545  -2.2195
    -0.9601  -0.9201  -0.7654  -0.5192  -0.2261  -0.1032   2.6100   2.8262
     3.1792   3.1925   3.3353   3.3495   3.9395   4.0877   4.8394   5.0740

          k =-0.0000-0.0000 0.2295 (  7865 PWs)   bands (ev):

   -32.7307 -32.7142 -16.4880 -16.4072 -14.3376 -14.3376 -13.9272 -13.9272
   -13.7397 -13.6852 -13.1816 -13.1816 -12.5698 -12.5698  -2.6624  -2.4391
    -0.9693  -0.9118  -0.9118  -0.6744  -0.6744   0.3094   3.0265   3.0265
     3.2090   3.2090   3.6437   3.6437   4.3083   4.3083   4.5068   4.9028

          k =-0.2354-0.1359 0.3060 (  7885 PWs)   bands (ev):

   -32.7277 -32.7168 -16.4902 -16.4122 -14.3698 -14.2082 -14.1601 -13.8422
   -13.7864 -13.7209 -13.1495 -12.8627 -12.7875 -12.5732  -2.5559  -2.4455
    -0.9167  -0.8725  -0.7357  -0.7195  -0.5955   0.1080   3.0224   3.1167
     3.1699   3.2547   3.3386   3.6638   4.0107   4.1537   4.7297   4.8749

          k = 0.7061 0.4077 0.0000 (  7899 PWs)   bands (ev):

   -32.7226 -32.7213 -16.4848 -16.4266 -14.3892 -14.2239 -14.1391 -13.9722
   -13.7300 -13.6943 -13.0313 -12.9101 -12.7592 -12.6194  -2.4687  -2.2834
    -1.0090  -0.8373  -0.7223  -0.6278  -0.2516  -0.1430   2.7774   2.9218
     3.0572   3.2189   3.4247   3.7371   3.7440   3.9582   4.8475   4.9751

          k = 0.4708 0.2718 0.0765 (  7904 PWs)   bands (ev):

   -32.7264 -32.7176 -16.5541 -16.3414 -14.3959 -14.3690 -14.0296 -13.9095
   -13.7624 -13.6532 -13.1328 -12.9252 -12.6951 -12.6122  -2.4884  -2.2396
    -1.0601  -0.7897  -0.6594  -0.6426  -0.4800  -0.0151   2.6957   2.9571
     3.0648   3.2696   3.3346   3.7348   3.7736   4.0989   4.8033   5.0286

          k =-0.2354 0.1359 0.3825 (  7903 PWs)   bands (ev):

   -32.7267 -32.7178 -16.5065 -16.3987 -14.3697 -14.1909 -14.1240 -13.9307
   -13.7761 -13.7410 -13.0474 -12.8798 -12.7487 -12.6490  -2.5228  -2.5050
    -0.9075  -0.8073  -0.7970  -0.6476  -0.5419   0.0115   3.0130   3.0535
     3.1672   3.2402   3.5057   3.7074   3.8228   4.2027   4.7589   4.8086

          k = 0.7061 0.6795 0.0765 (  7897 PWs)   bands (ev):

   -32.7237 -32.7203 -16.4864 -16.4303 -14.3453 -14.2946 -14.0045 -13.9814
   -13.7753 -13.7536 -13.0095 -12.9309 -12.7039 -12.6606  -2.4284  -2.3950
    -0.9002  -0.8900  -0.7638  -0.6169  -0.2799  -0.1136   2.8389   2.8958
     3.1743   3.2801   3.3721   3.4777   3.8579   4.0392   4.8761   4.9127

          k = 0.4708 0.5436 0.1530 (  7894 PWs)   bands (ev):

   -32.7236 -32.7202 -16.5169 -16.3969 -14.3804 -14.3099 -14.0906 -13.8623
   -13.7730 -13.7196 -13.1193 -12.8950 -12.7233 -12.5975  -2.4330  -2.2416
    -1.0286  -0.8591  -0.6561  -0.6342  -0.2453  -0.0870   2.6454   2.8281
     3.0626   3.2197   3.3664   3.4324   3.9524   4.0307   4.8712   5.0529

          k = 0.7061-0.4077-0.2295 (  7900 PWs)   bands (ev):

   -32.7240 -32.7199 -16.5484 -16.3591 -14.4725 -14.3399 -13.9371 -13.8131
   -13.7662 -13.6946 -13.1553 -13.0851 -12.6328 -12.5750  -2.5443  -2.2076
    -1.0465  -0.7982  -0.6654  -0.6052  -0.2832  -0.1564   2.6716   2.9103
     3.1663   3.3259   3.3328   3.4966   3.8302   4.0676   4.7541   5.0447

          k =-0.0000-0.0000 0.4590 (  7877 PWs)   bands (ev):

   -32.7256 -32.7193 -16.4668 -16.4359 -14.2477 -14.2477 -14.1034 -14.1034
   -13.7173 -13.6965 -12.9436 -12.9436 -12.7223 -12.7223  -2.6450  -2.5681
    -0.8339  -0.8339  -0.7436  -0.7436  -0.5176  -0.0340   3.0962   3.0962
     3.1714   3.1714   3.8055   3.8055   4.0633   4.0633   4.6064   4.7519

          k = 0.9415 0.5436 0.1530 (  7904 PWs)   bands (ev):

   -32.7229 -32.7216 -16.4643 -16.4458 -14.3630 -14.2307 -14.1074 -13.9374
   -13.7581 -13.7174 -13.0398 -12.8588 -12.7933 -12.6459  -2.5678  -2.4915
    -0.8779  -0.7694  -0.7600  -0.7339  -0.3034  -0.1943   3.0090   3.0698
     3.1947   3.2131   3.5231   3.7428   3.9055   4.0001   4.7436   4.8059

     highest occupied level (ev):     5.0740

!    total energy              =    -367.41800168 Ry
     Harris-Foulkes estimate   =    -367.41800168 Ry
     estimated scf accuracy    <          3.1E-11 Ry

     The total energy is the sum of the following terms:

     one-electron contribution =    -132.98109442 Ry
     hartree contribution      =      97.67013224 Ry
     xc contribution           =     -75.42653877 Ry
     ewald contribution        =    -256.68050072 Ry

     convergence has been achieved in   6 iterations

     Forces acting on atoms (cartesian axes, Ry/au):

     atom    1 type  1   force =    -0.00000000   -0.00000000    0.00000000
     atom    2 type  1   force =    -0.00000000   -0.00000000    0.00000000
     atom    3 type  2   force =     0.00000000    0.00000000    0.00000000
     atom    4 type  2   force =     0.00000000    0.00000000    0.00000000
     atom    5 type  3   force =    -0.00001324    0.00002293    0.00000000
     atom    6 type  3   force =     0.00002647   -0.00000000    0.00000000
     atom    7 type  3   force =    -0.00001324   -0.00002293   -0.00000000
     atom    8 type  3   force =    -0.00002647    0.00000000    0.00000000
     atom    9 type  3   force =     0.00001324    0.00002293    0.00000000
     atom   10 type  3   force =     0.00001324   -0.00002293   -0.00000000

     Total force =     0.000065     Total SCF correction =     0.000020
     SCF correction compared to forces is large: reduce conv_thr to get better values


     Computing stress (Cartesian axis) and pressure

          total   stress  (Ry/bohr**3)                   (kbar)     P=   42.76
   0.00020869  -0.00000000   0.00000000         30.70     -0.00      0.00
   0.00000000   0.00020869   0.00000000          0.00     30.70      0.00
  -0.00000000   0.00000000   0.00045460         -0.00      0.00     66.87


     bfgs converged in   4 scf cycles and   3 bfgs steps
     (criteria: energy <  1.0E-04 Ry, force <  1.0E-03 Ry/Bohr)

     End of BFGS Geometry Optimization

     Final energy   =    -367.4180016754 Ry
Begin final coordinates

ATOMIC_POSITIONS (crystal)
Ca       0.500000000   0.500000000   0.500000000
Ca       0.000000000  -0.000000000  -0.000000000
C        0.250000000   0.250000000   0.250000000
C        0.750000000   0.750000000   0.750000000
O        0.503274374   0.996725626   0.250000000
O        0.996725626   0.250000000   0.503274374
O        0.250000000   0.503274374   0.996725626
O        0.003274374   0.750000000   0.496725626
O        0.750000000   0.496725626   0.003274374
O        0.496725626   0.003274374   0.750000000
End final coordinates



     Writing output data file CCOrand2.save/
 
     init_run     :      2.67s CPU      4.01s WALL (       1 calls)
     electrons    :    231.41s CPU    257.38s WALL (       4 calls)
     update_pot   :      0.21s CPU      0.24s WALL (       3 calls)
     forces       :      0.91s CPU      1.02s WALL (       4 calls)
     stress       :      1.54s CPU      1.67s WALL (       4 calls)

     Called by init_run:
     wfcinit      :      2.37s CPU      3.18s WALL (       1 calls)
     potinit      :      0.05s CPU      0.12s WALL (       1 calls)
     hinit0       :      0.16s CPU      0.40s WALL (       1 calls)

     Called by electrons:
     c_bands      :    215.70s CPU    240.42s WALL (      33 calls)
     sum_band     :     14.68s CPU     15.50s WALL (      33 calls)
     v_of_rho     :      0.65s CPU      0.72s WALL (      36 calls)
     newd         :      0.28s CPU      0.38s WALL (      36 calls)
     mix_rho      :      0.08s CPU      0.13s WALL (      33 calls)

     Called by c_bands:
     init_us_2    :      0.34s CPU      0.40s WALL (    1425 calls)
     ccgdiagg     :    173.71s CPU    188.62s WALL (     629 calls)
     wfcrot       :     43.92s CPU     53.84s WALL (     553 calls)

     Called by sum_band:
     sum_band:bec :      0.17s CPU      0.19s WALL (     627 calls)
     addusdens    :      0.21s CPU      0.26s WALL (      33 calls)

     Called by *cgdiagg:
     h_psi        :    147.21s CPU    157.27s WALL (   66856 calls)
     s_psi        :      7.59s CPU      8.59s WALL (  133159 calls)
     cdiaghg      :     15.30s CPU     23.18s WALL (     553 calls)

     Called by h_psi:
     h_psi:pot    :    145.43s CPU    155.23s WALL (   66856 calls)
     h_psi:calbec :     16.60s CPU     17.97s WALL (   66856 calls)
     vloc_psi     :    120.91s CPU    128.75s WALL (   66856 calls)
     add_vuspsi   :      5.67s CPU      6.23s WALL (   66856 calls)
     hs_1psi      :    131.10s CPU    140.26s WALL (   66303 calls)
     s_1psi       :     15.26s CPU     17.28s WALL (   66303 calls)

     General routines
     calbec       :     24.83s CPU     27.71s WALL (  134166 calls)
     fft          :      0.75s CPU      0.85s WALL (     500 calls)
     ffts         :      0.05s CPU      0.05s WALL (      33 calls)
     fftw         :    127.61s CPU    135.48s WALL (  188822 calls)
 
     Parallel routines
     fft_scatt_xy :      6.36s CPU      6.77s WALL (  189355 calls)
     fft_scatt_yz :    100.86s CPU    107.38s WALL (  189355 calls)
 
     PWSCF        :   4m 0.15s CPU   4m30.99s WALL

 
   This run was terminated on:  14: 0:15   4May2022            

=------------------------------------------------------------------------------=
   JOB DONE.
=------------------------------------------------------------------------------=
TACC:  Shutdown complete. Exiting. 
