ANIMSTEPS   30
CRYSTAL
PRIMVEC
    2.553263952   -1.474127630    5.236888691
    0.000000000    2.948255260    5.236888691
   -2.553263952   -1.474127630    5.236888691
PRIMCOORD    1
     10   1
   Ca     0.00000   0.00000   7.85533  -0.00000  -0.00000   0.03173
   Ca     0.00000   0.00000   0.00000   0.00000  -0.00000   0.03173
   C      0.00000   0.00000   3.92767  -0.00000  -0.00000   0.03161
   C      0.00000   0.00000  11.78300  -0.00000  -0.00000   0.03161
   O      0.64668   1.82818   9.16456   0.00010   0.00006   0.03159
   O      1.25991  -1.47413   9.16456  -0.00000  -0.00012   0.03159
   O     -1.90659  -0.35405   9.16456  -0.00010   0.00006   0.03159
   O     -1.25991   1.47413   6.54611  -0.00000  -0.00012   0.03159
   O      1.90659   0.35405   6.54611  -0.00010   0.00006   0.03159
   O     -0.64668  -1.82818   6.54611   0.00010   0.00006   0.03159
PRIMCOORD    2
     10   1
   Ca     0.00000   0.00000   7.85533  -0.00001   0.03170   0.00000
   Ca     0.00000   0.00000   0.00000   0.00001   0.03170   0.00000
   C      0.00000   0.00000   3.92767   0.00000   0.03161   0.00000
   C      0.00000   0.00000  11.78300   0.00000   0.03161   0.00000
   O      0.64668   1.82818   9.16456  -0.00001   0.03161   0.00009
   O      1.25991  -1.47413   9.16456   0.00000   0.03158  -0.00017
   O     -1.90659  -0.35405   9.16456   0.00001   0.03161   0.00009
   O     -1.25991   1.47413   6.54611   0.00000   0.03158  -0.00017
   O      1.90659   0.35405   6.54611   0.00001   0.03161   0.00009
   O     -0.64668  -1.82818   6.54611  -0.00001   0.03161   0.00009
PRIMCOORD    3
     10   1
   Ca     0.00000   0.00000   7.85533   0.03166   0.00001   0.00000
   Ca     0.00000   0.00000   0.00000   0.03166  -0.00001  -0.00000
   C      0.00000   0.00000   3.92767   0.03162  -0.00000   0.00000
   C      0.00000   0.00000  11.78300   0.03162  -0.00000   0.00000
   O      0.64668   1.82818   9.16456   0.03160  -0.00001   0.00012
   O      1.25991  -1.47413   9.16456   0.03162  -0.00000   0.00000
   O     -1.90659  -0.35405   9.16456   0.03160   0.00001  -0.00012
   O     -1.25991   1.47413   6.54611   0.03162  -0.00000   0.00000
   O      1.90659   0.35405   6.54611   0.03160   0.00001  -0.00012
   O     -0.64668  -1.82818   6.54611   0.03160  -0.00001   0.00012
PRIMCOORD    4
     10   1
   Ca     0.00000   0.00000   7.85533  -0.00000  -0.00000   0.02180
   Ca     0.00000   0.00000   0.00000   0.00000  -0.00000   0.02180
   C      0.00000   0.00000   3.92767  -0.00000  -0.00000  -0.01213
   C      0.00000   0.00000  11.78300  -0.00000  -0.00000  -0.01213
   O      0.64668   1.82818   9.16456   0.03029   0.01749  -0.01537
   O      1.25991  -1.47413   9.16456  -0.00000  -0.03497  -0.01537
   O     -1.90659  -0.35405   9.16456  -0.03029   0.01749  -0.01537
   O     -1.25991   1.47413   6.54611  -0.00000  -0.03497  -0.01537
   O      1.90659   0.35405   6.54611  -0.03029   0.01749  -0.01537
   O     -0.64668  -1.82818   6.54611   0.03029   0.01749  -0.01537
PRIMCOORD    5
     10   1
   Ca     0.00000   0.00000   7.85533   0.01791  -0.01649   0.00000
   Ca     0.00000   0.00000   0.00000  -0.01791  -0.01649   0.00000
   C      0.00000   0.00000   3.92767  -0.00000   0.00903  -0.00000
   C      0.00000   0.00000  11.78300  -0.00000   0.00903  -0.00000
   O      0.64668   1.82818   9.16456   0.00206   0.01052  -0.02549
   O      1.25991  -1.47413   9.16456  -0.00000   0.01408   0.05098
   O     -1.90659  -0.35405   9.16456  -0.00206   0.01052  -0.02549
   O     -1.25991   1.47413   6.54611  -0.00000   0.01408   0.05098
   O      1.90659   0.35405   6.54611  -0.00206   0.01052  -0.02549
   O     -0.64668  -1.82818   6.54611   0.00206   0.01052  -0.02549
PRIMCOORD    6
     10   1
   Ca     0.00000   0.00000   7.85533   0.01075   0.02211   0.00000
   Ca     0.00000   0.00000   0.00000   0.01075  -0.02211  -0.00000
   C      0.00000   0.00000   3.92767  -0.00680   0.00000  -0.00000
   C      0.00000   0.00000  11.78300  -0.00680  -0.00000  -0.00000
   O      0.64668   1.82818   9.16456  -0.00852  -0.00194   0.04566
   O      1.25991  -1.47413   9.16456  -0.00516  -0.00000  -0.00000
   O     -1.90659  -0.35405   9.16456  -0.00852   0.00194  -0.04566
   O     -1.25991   1.47413   6.54611  -0.00516  -0.00000  -0.00000
   O      1.90659   0.35405   6.54611  -0.00852   0.00194  -0.04566
   O     -0.64668  -1.82818   6.54611  -0.00852  -0.00194   0.04566
PRIMCOORD    7
     10   1
   Ca     0.00000   0.00000   7.85533   0.00000   0.00000   0.00000
   Ca     0.00000   0.00000   0.00000  -0.00000   0.00000   0.00000
   C      0.00000   0.00000   3.92767  -0.00000  -0.03211  -0.00000
   C      0.00000   0.00000  11.78300   0.00000   0.03211   0.00000
   O      0.64668   1.82818   9.16456  -0.00041  -0.03379   0.00908
   O      1.25991  -1.47413   9.16456  -0.00000  -0.03450  -0.01817
   O     -1.90659  -0.35405   9.16456   0.00041  -0.03379   0.00908
   O     -1.25991   1.47413   6.54611   0.00000   0.03450   0.01817
   O      1.90659   0.35405   6.54611  -0.00041   0.03379  -0.00908
   O     -0.64668  -1.82818   6.54611   0.00041   0.03379  -0.00908
PRIMCOORD    8
     10   1
   Ca     0.00000   0.00000   7.85533  -0.00000  -0.00000   0.00000
   Ca     0.00000   0.00000   0.00000   0.00000   0.00000   0.00000
   C      0.00000   0.00000   3.92767  -0.03211   0.00000  -0.00000
   C      0.00000   0.00000  11.78300   0.03211  -0.00000   0.00000
   O      0.64668   1.82818   9.16456  -0.03426  -0.00041   0.01573
   O      1.25991  -1.47413   9.16456  -0.03355   0.00000   0.00000
   O     -1.90659  -0.35405   9.16456  -0.03426   0.00041  -0.01573
   O     -1.25991   1.47413   6.54611   0.03355  -0.00000  -0.00000
   O      1.90659   0.35405   6.54611   0.03426  -0.00041   0.01573
   O     -0.64668  -1.82818   6.54611   0.03426   0.00041  -0.01573
PRIMCOORD    9
     10   1
   Ca     0.00000   0.00000   7.85533   0.00000  -0.00000  -0.00000
   Ca     0.00000   0.00000   0.00000  -0.00000   0.00000  -0.00000
   C      0.00000   0.00000   3.92767   0.00000  -0.00000  -0.02040
   C      0.00000   0.00000  11.78300  -0.00000   0.00000   0.02040
   O      0.64668   1.82818   9.16456   0.02837   0.01638  -0.02133
   O      1.25991  -1.47413   9.16456   0.00000  -0.03276  -0.02133
   O     -1.90659  -0.35405   9.16456  -0.02837   0.01638  -0.02133
   O     -1.25991   1.47413   6.54611  -0.00000   0.03276   0.02133
   O      1.90659   0.35405   6.54611   0.02837  -0.01638   0.02133
   O     -0.64668  -1.82818   6.54611  -0.02837  -0.01638   0.02133
PRIMCOORD   10
     10   1
   Ca     0.00000   0.00000   7.85533  -0.05952  -0.01795  -0.00000
   Ca     0.00000   0.00000   0.00000   0.05952  -0.01795  -0.00000
   C      0.00000   0.00000   3.92767   0.00000   0.00624  -0.00000
   C      0.00000   0.00000  11.78300  -0.00000   0.00624  -0.00000
   O      0.64668   1.82818   9.16456   0.00388   0.01127  -0.00903
   O      1.25991  -1.47413   9.16456   0.00000   0.01798   0.01806
   O     -1.90659  -0.35405   9.16456  -0.00388   0.01127  -0.00903
   O     -1.25991   1.47413   6.54611  -0.00000   0.01798   0.01806
   O      1.90659   0.35405   6.54611  -0.00388   0.01127  -0.00903
   O     -0.64668  -1.82818   6.54611   0.00388   0.01127  -0.00903
PRIMCOORD   11
     10   1
   Ca     0.00000   0.00000   7.85533   0.00512  -0.05478   0.00000
   Ca     0.00000   0.00000   0.00000   0.00512   0.05478  -0.00000
   C      0.00000   0.00000   3.92767   0.00027  -0.00000   0.00000
   C      0.00000   0.00000  11.78300   0.00027  -0.00000   0.00000
   O      0.64668   1.82818   9.16456  -0.00704  -0.00455   0.03027
   O      1.25991  -1.47413   9.16456   0.00084  -0.00000  -0.00000
   O     -1.90659  -0.35405   9.16456  -0.00704   0.00455  -0.03027
   O     -1.25991   1.47413   6.54611   0.00084  -0.00000  -0.00000
   O      1.90659   0.35405   6.54611  -0.00704   0.00455  -0.03027
   O     -0.64668  -1.82818   6.54611  -0.00704  -0.00455   0.03027
PRIMCOORD   12
     10   1
   Ca     0.00000   0.00000   7.85533  -0.00000   0.00000   0.07049
   Ca     0.00000   0.00000   0.00000  -0.00000  -0.00000  -0.07049
   C      0.00000   0.00000   3.92767   0.00000   0.00000  -0.00000
   C      0.00000   0.00000  11.78300   0.00000  -0.00000  -0.00000
   O      0.64668   1.82818   9.16456  -0.00160   0.00277  -0.00000
   O      1.25991  -1.47413   9.16456   0.00320   0.00000  -0.00000
   O     -1.90659  -0.35405   9.16456  -0.00160  -0.00277   0.00000
   O     -1.25991   1.47413   6.54611   0.00320   0.00000   0.00000
   O      1.90659   0.35405   6.54611  -0.00160  -0.00277   0.00000
   O     -0.64668  -1.82818   6.54611  -0.00160   0.00277  -0.00000
PRIMCOORD   13
     10   1
   Ca     0.00000   0.00000   7.85533   0.00000  -0.00000  -0.00000
   Ca     0.00000   0.00000   0.00000  -0.00000  -0.00000  -0.00000
   C      0.00000   0.00000   3.92767  -0.01259  -0.00000  -0.00000
   C      0.00000   0.00000  11.78300   0.01259   0.00000   0.00000
   O      0.64668   1.82818   9.16456  -0.01069   0.00150  -0.04707
   O      1.25991  -1.47413   9.16456  -0.01329  -0.00000   0.00000
   O     -1.90659  -0.35405   9.16456  -0.01069  -0.00150   0.04707
   O     -1.25991   1.47413   6.54611   0.01329   0.00000  -0.00000
   O      1.90659   0.35405   6.54611   0.01069   0.00150  -0.04707
   O     -0.64668  -1.82818   6.54611   0.01069  -0.00150   0.04707
PRIMCOORD   14
     10   1
   Ca     0.00000   0.00000   7.85533   0.00000   0.00000  -0.00000
   Ca     0.00000   0.00000   0.00000   0.00000   0.00000   0.00000
   C      0.00000   0.00000   3.92767  -0.00000   0.01259   0.00000
   C      0.00000   0.00000  11.78300   0.00000  -0.01259  -0.00000
   O      0.64668   1.82818   9.16456  -0.00150   0.01242   0.02718
   O      1.25991  -1.47413   9.16456  -0.00000   0.00983  -0.05435
   O     -1.90659  -0.35405   9.16456   0.00150   0.01242   0.02718
   O     -1.25991   1.47413   6.54611   0.00000  -0.00983   0.05435
   O      1.90659   0.35405   6.54611  -0.00150  -0.01242  -0.02718
   O     -0.64668  -1.82818   6.54611   0.00150  -0.01242  -0.02718
PRIMCOORD   15
     10   1
   Ca     0.00000   0.00000   7.85533  -0.00991   0.03287  -0.00000
   Ca     0.00000   0.00000   0.00000   0.00991   0.03287  -0.00000
   C      0.00000   0.00000   3.92767  -0.00000  -0.02157   0.00000
   C      0.00000   0.00000  11.78300   0.00000  -0.02157   0.00000
   O      0.64668   1.82818   9.16456   0.00235  -0.02340  -0.01768
   O      1.25991  -1.47413   9.16456  -0.00000  -0.01934   0.03536
   O     -1.90659  -0.35405   9.16456  -0.00235  -0.02340  -0.01768
   O     -1.25991   1.47413   6.54611   0.00000  -0.01934   0.03536
   O      1.90659   0.35405   6.54611  -0.00235  -0.02340  -0.01768
   O     -0.64668  -1.82818   6.54611   0.00235  -0.02340  -0.01768
PRIMCOORD   16
     10   1
   Ca     0.00000   0.00000   7.85533   0.00000  -0.00000  -0.03132
   Ca     0.00000   0.00000   0.00000  -0.00000  -0.00000  -0.03132
   C      0.00000   0.00000   3.92767   0.00000   0.00000   0.02392
   C      0.00000   0.00000  11.78300  -0.00000   0.00000   0.02392
   O      0.64668   1.82818   9.16456   0.02359   0.01362   0.02018
   O      1.25991  -1.47413   9.16456   0.00000  -0.02724   0.02018
   O     -1.90659  -0.35405   9.16456  -0.02359   0.01362   0.02018
   O     -1.25991   1.47413   6.54611  -0.00000  -0.02724   0.02018
   O      1.90659   0.35405   6.54611  -0.02359   0.01362   0.02018
   O     -0.64668  -1.82818   6.54611   0.02359   0.01362   0.02018
PRIMCOORD   17
     10   1
   Ca     0.00000   0.00000   7.85533   0.00000  -0.00000  -0.00000
   Ca     0.00000   0.00000   0.00000   0.00000  -0.00000  -0.00000
   C      0.00000   0.00000   3.92767  -0.00000  -0.00000   0.03284
   C      0.00000   0.00000  11.78300   0.00000   0.00000  -0.03284
   O      0.64668   1.82818   9.16456   0.02008   0.01159   0.02774
   O      1.25991  -1.47413   9.16456  -0.00000  -0.02318   0.02774
   O     -1.90659  -0.35405   9.16456  -0.02008   0.01159   0.02774
   O     -1.25991   1.47413   6.54611   0.00000   0.02318  -0.02774
   O      1.90659   0.35405   6.54611   0.02008  -0.01159  -0.02774
   O     -0.64668  -1.82818   6.54611  -0.02008  -0.01159  -0.02774
PRIMCOORD   18
     10   1
   Ca     0.00000   0.00000   7.85533  -0.03898   0.00209  -0.00000
   Ca     0.00000   0.00000   0.00000  -0.03898  -0.00209   0.00000
   C      0.00000   0.00000   3.92767   0.03199   0.00000   0.00000
   C      0.00000   0.00000  11.78300   0.03199  -0.00000  -0.00000
   O      0.64668   1.82818   9.16456   0.02381  -0.00128   0.01787
   O      1.25991  -1.47413   9.16456   0.02602  -0.00000   0.00000
   O     -1.90659  -0.35405   9.16456   0.02381   0.00128  -0.01787
   O     -1.25991   1.47413   6.54611   0.02602  -0.00000  -0.00000
   O      1.90659   0.35405   6.54611   0.02381   0.00128  -0.01787
   O     -0.64668  -1.82818   6.54611   0.02381  -0.00128   0.01787
PRIMCOORD   19
     10   1
   Ca     0.00000   0.00000   7.85533   0.00000   0.00000  -0.00000
   Ca     0.00000   0.00000   0.00000  -0.00000  -0.00000   0.00000
   C      0.00000   0.00000   3.92767   0.00000  -0.02249   0.00000
   C      0.00000   0.00000  11.78300  -0.00000   0.02249  -0.00000
   O      0.64668   1.82818   9.16456   0.03314  -0.01364   0.00135
   O      1.25991  -1.47413   9.16456   0.00000   0.04376  -0.00271
   O     -1.90659  -0.35405   9.16456  -0.03314  -0.01364   0.00135
   O     -1.25991   1.47413   6.54611  -0.00000  -0.04376   0.00271
   O      1.90659   0.35405   6.54611   0.03314   0.01364  -0.00135
   O     -0.64668  -1.82818   6.54611  -0.03314   0.01364  -0.00135
PRIMCOORD   20
     10   1
   Ca     0.00000   0.00000   7.85533  -0.00000   0.00000  -0.00000
   Ca     0.00000   0.00000   0.00000   0.00000  -0.00000   0.00000
   C      0.00000   0.00000   3.92767   0.02249   0.00000  -0.00000
   C      0.00000   0.00000  11.78300  -0.02249  -0.00000   0.00000
   O      0.64668   1.82818   9.16456  -0.02463  -0.03314  -0.00234
   O      1.25991  -1.47413   9.16456   0.03277  -0.00000   0.00000
   O     -1.90659  -0.35405   9.16456  -0.02463   0.03314   0.00234
   O     -1.25991   1.47413   6.54611  -0.03277   0.00000  -0.00000
   O      1.90659   0.35405   6.54611   0.02463  -0.03314  -0.00234
   O     -0.64668  -1.82818   6.54611   0.02463   0.03314   0.00234
PRIMCOORD   21
     10   1
   Ca     0.00000   0.00000   7.85533  -0.00302  -0.00048  -0.00000
   Ca     0.00000   0.00000   0.00000   0.00302  -0.00048  -0.00000
   C      0.00000   0.00000   3.92767  -0.00000   0.02322   0.00000
   C      0.00000   0.00000  11.78300   0.00000   0.02322   0.00000
   O      0.64668   1.82818   9.16456  -0.03286   0.01355  -0.00274
   O      1.25991  -1.47413   9.16456  -0.00000  -0.04336   0.00548
   O     -1.90659  -0.35405   9.16456   0.03286   0.01355  -0.00274
   O     -1.25991   1.47413   6.54611   0.00000  -0.04336   0.00548
   O      1.90659   0.35405   6.54611   0.03286   0.01355  -0.00274
   O     -0.64668  -1.82818   6.54611  -0.03286   0.01355  -0.00274
PRIMCOORD   22
     10   1
   Ca     0.00000   0.00000   7.85533  -0.00076  -0.00285   0.00000
   Ca     0.00000   0.00000   0.00000  -0.00076   0.00285  -0.00000
   C      0.00000   0.00000   3.92767  -0.02104  -0.00000  -0.00000
   C      0.00000   0.00000  11.78300  -0.02104  -0.00000   0.00000
   O      0.64668   1.82818   9.16456   0.02504   0.03314   0.00503
   O      1.25991  -1.47413   9.16456  -0.03236   0.00000  -0.00000
   O     -1.90659  -0.35405   9.16456   0.02504  -0.03314  -0.00503
   O     -1.25991   1.47413   6.54611  -0.03236   0.00000  -0.00000
   O      1.90659   0.35405   6.54611   0.02504  -0.03314  -0.00503
   O     -0.64668  -1.82818   6.54611   0.02504   0.03314   0.00503
PRIMCOORD   23
     10   1
   Ca     0.00000   0.00000   7.85533  -0.00000   0.00000   0.00029
   Ca     0.00000   0.00000   0.00000   0.00000   0.00000   0.00029
   C      0.00000   0.00000   3.92767  -0.00000  -0.00000   0.06466
   C      0.00000   0.00000  11.78300   0.00000  -0.00000   0.06466
   O      0.64668   1.82818   9.16456  -0.00152  -0.00088  -0.01643
   O      1.25991  -1.47413   9.16456  -0.00000   0.00176  -0.01643
   O     -1.90659  -0.35405   9.16456   0.00152  -0.00088  -0.01643
   O     -1.25991   1.47413   6.54611  -0.00000   0.00176  -0.01643
   O      1.90659   0.35405   6.54611   0.00152  -0.00088  -0.01643
   O     -0.64668  -1.82818   6.54611  -0.00152  -0.00088  -0.01643
PRIMCOORD   24
     10   1
   Ca     0.00000   0.00000   7.85533  -0.00000  -0.00000  -0.00000
   Ca     0.00000   0.00000   0.00000  -0.00000   0.00000  -0.00000
   C      0.00000   0.00000   3.92767   0.00000   0.00000   0.06375
   C      0.00000   0.00000  11.78300  -0.00000  -0.00000  -0.06375
   O      0.64668   1.82818   9.16456  -0.00133  -0.00077  -0.01760
   O      1.25991  -1.47413   9.16456   0.00000   0.00153  -0.01760
   O     -1.90659  -0.35405   9.16456   0.00133  -0.00077  -0.01760
   O     -1.25991   1.47413   6.54611  -0.00000  -0.00153   0.01760
   O      1.90659   0.35405   6.54611  -0.00133   0.00077   0.01760
   O     -0.64668  -1.82818   6.54611   0.00133   0.00077   0.01760
PRIMCOORD   25
     10   1
   Ca     0.00000   0.00000   7.85533  -0.00000  -0.00000  -0.00222
   Ca     0.00000   0.00000   0.00000  -0.00000   0.00000   0.00222
   C      0.00000   0.00000   3.92767  -0.00000   0.00000   0.00000
   C      0.00000   0.00000  11.78300  -0.00000  -0.00000   0.00000
   O      0.64668   1.82818   9.16456  -0.02040   0.03534  -0.00000
   O      1.25991  -1.47413   9.16456   0.04080   0.00000  -0.00000
   O     -1.90659  -0.35405   9.16456  -0.02040  -0.03534   0.00000
   O     -1.25991   1.47413   6.54611   0.04080   0.00000  -0.00000
   O      1.90659   0.35405   6.54611  -0.02040  -0.03534   0.00000
   O     -0.64668  -1.82818   6.54611  -0.02040   0.03534  -0.00000
PRIMCOORD   26
     10   1
   Ca     0.00000   0.00000   7.85533  -0.00000  -0.00000   0.00000
   Ca     0.00000   0.00000   0.00000   0.00000  -0.00000  -0.00000
   C      0.00000   0.00000   3.92767  -0.00000  -0.00000  -0.00000
   C      0.00000   0.00000  11.78300   0.00000   0.00000   0.00000
   O      0.64668   1.82818   9.16456  -0.02041   0.03536  -0.00000
   O      1.25991  -1.47413   9.16456   0.04082  -0.00000   0.00000
   O     -1.90659  -0.35405   9.16456  -0.02041  -0.03536   0.00000
   O     -1.25991   1.47413   6.54611  -0.04082  -0.00000   0.00000
   O      1.90659   0.35405   6.54611   0.02041   0.03536  -0.00000
   O     -0.64668  -1.82818   6.54611   0.02041  -0.03536   0.00000
PRIMCOORD   27
     10   1
   Ca     0.00000   0.00000   7.85533  -0.00070  -0.00100   0.00000
   Ca     0.00000   0.00000   0.00000   0.00070  -0.00100   0.00000
   C      0.00000   0.00000   3.92767  -0.00000   0.06263  -0.00000
   C      0.00000   0.00000  11.78300   0.00000   0.06263  -0.00000
   O      0.64668   1.82818   9.16456   0.01019  -0.02072  -0.00002
   O      1.25991  -1.47413   9.16456   0.00000  -0.00307   0.00004
   O     -1.90659  -0.35405   9.16456  -0.01019  -0.02072  -0.00002
   O     -1.25991   1.47413   6.54611  -0.00000  -0.00307   0.00004
   O      1.90659   0.35405   6.54611  -0.01019  -0.02072  -0.00002
   O     -0.64668  -1.82818   6.54611   0.01019  -0.02072  -0.00002
PRIMCOORD   28
     10   1
   Ca     0.00000   0.00000   7.85533  -0.00000  -0.00000   0.00000
   Ca     0.00000   0.00000   0.00000  -0.00000   0.00000  -0.00000
   C      0.00000   0.00000   3.92767   0.06272   0.00000   0.00000
   C      0.00000   0.00000  11.78300  -0.06272  -0.00000   0.00000
   O      0.64668   1.82818   9.16456  -0.00932   0.00986  -0.00014
   O      1.25991  -1.47413   9.16456  -0.02641  -0.00000   0.00000
   O     -1.90659  -0.35405   9.16456  -0.00932  -0.00986   0.00014
   O     -1.25991   1.47413   6.54611   0.02641   0.00000  -0.00000
   O      1.90659   0.35405   6.54611   0.00932   0.00986  -0.00014
   O     -0.64668  -1.82818   6.54611   0.00932  -0.00986   0.00014
PRIMCOORD   29
     10   1
   Ca     0.00000   0.00000   7.85533   0.00000   0.00000   0.00000
   Ca     0.00000   0.00000   0.00000   0.00000   0.00000  -0.00000
   C      0.00000   0.00000   3.92767   0.00000  -0.06272  -0.00000
   C      0.00000   0.00000  11.78300  -0.00000   0.06272   0.00000
   O      0.64668   1.82818   9.16456  -0.00986   0.02071   0.00008
   O      1.25991  -1.47413   9.16456  -0.00000   0.00363  -0.00016
   O     -1.90659  -0.35405   9.16456   0.00986   0.02071   0.00008
   O     -1.25991   1.47413   6.54611   0.00000  -0.00363   0.00016
   O      1.90659   0.35405   6.54611  -0.00986  -0.02071  -0.00008
   O     -0.64668  -1.82818   6.54611   0.00986  -0.02071  -0.00008
PRIMCOORD   30
     10   1
   Ca     0.00000   0.00000   7.85533  -0.00173  -0.00035  -0.00000
   Ca     0.00000   0.00000   0.00000  -0.00173   0.00035   0.00000
   C      0.00000   0.00000   3.92767  -0.06144  -0.00000   0.00000
   C      0.00000   0.00000  11.78300  -0.06144   0.00000   0.00000
   O      0.64668   1.82818   9.16456   0.01125  -0.00966   0.00056
   O      1.25991  -1.47413   9.16456   0.02797   0.00000   0.00000
   O     -1.90659  -0.35405   9.16456   0.01125   0.00966  -0.00056
   O     -1.25991   1.47413   6.54611   0.02797   0.00000  -0.00000
   O      1.90659   0.35405   6.54611   0.01125   0.00966  -0.00056
   O     -0.64668  -1.82818   6.54611   0.01125  -0.00966   0.00056
