[Molden Format]
[FREQ]
    8.74
    9.94
    9.94
   79.52
  120.41
  134.42
  185.58
  185.58
  208.75
  235.96
  247.54
  272.77
  298.58
  298.58
  305.97
  308.82
  326.92
  397.61
  690.57
  690.57
  691.75
  693.51
  824.08
  827.41
 1077.41
 1078.07
 1389.95
 1428.02
 1428.02
 1540.07
[FR-COORD]
   Ca          0.00000        0.00000       14.84443
   Ca          0.00000        0.00000        0.00000
   C           0.00000        0.00000        7.42221
   C           0.00000        0.00000       22.26664
   O           1.22204        3.45476       17.31850
   O           2.38089       -2.78570       17.31850
   O          -3.60293       -0.66906       17.31850
   O          -2.38089        2.78570       12.37036
   O           3.60293        0.66906       12.37036
   O          -1.22204       -3.45476       12.37036
[FR-NORM-COORD]
 vibration     1
  -0.00000  -0.00002   0.31727
   0.00000  -0.00002   0.31727
  -0.00000  -0.00002   0.31606
  -0.00000  -0.00002   0.31606
   0.00099   0.00056   0.31594
  -0.00000  -0.00117   0.31594
  -0.00099   0.00056   0.31594
  -0.00000  -0.00117   0.31594
  -0.00099   0.00056   0.31594
   0.00099   0.00056   0.31594
 vibration     2
  -0.00012   0.31705   0.00002
   0.00012   0.31705   0.00002
   0.00000   0.31614   0.00002
   0.00000   0.31614   0.00002
  -0.00014   0.31606   0.00088
   0.00000   0.31582  -0.00170
   0.00014   0.31606   0.00088
   0.00000   0.31582  -0.00170
   0.00014   0.31606   0.00088
  -0.00014   0.31606   0.00088
 vibration     3
   0.31664   0.00007   0.00000
   0.31664  -0.00007  -0.00000
   0.31617  -0.00000   0.00000
   0.31617  -0.00000   0.00000
   0.31604  -0.00012   0.00116
   0.31624  -0.00000   0.00000
   0.31604   0.00012  -0.00116
   0.31624  -0.00000   0.00000
   0.31604   0.00012  -0.00116
   0.31604  -0.00012   0.00116
 vibration     4
  -0.00000  -0.00000   0.21796
   0.00000  -0.00000   0.21796
  -0.00000  -0.00000  -0.12130
  -0.00000  -0.00000  -0.12130
   0.30288   0.17487  -0.15367
  -0.00000  -0.34973  -0.15367
  -0.30288   0.17487  -0.15367
  -0.00000  -0.34973  -0.15367
  -0.30288   0.17487  -0.15367
   0.30288   0.17487  -0.15367
 vibration     5
   0.17910  -0.16494   0.00000
  -0.17910  -0.16494   0.00000
  -0.00000   0.09025  -0.00000
  -0.00000   0.09025  -0.00000
   0.02057   0.10517  -0.25488
  -0.00000   0.14080   0.50976
  -0.02057   0.10517  -0.25488
  -0.00000   0.14080   0.50976
  -0.02057   0.10517  -0.25488
   0.02057   0.10517  -0.25488
 vibration     6
   0.10747   0.22108   0.00000
   0.10747  -0.22108  -0.00000
  -0.06804   0.00000  -0.00000
  -0.06804  -0.00000  -0.00000
  -0.08525  -0.01944   0.45662
  -0.05158  -0.00000  -0.00000
  -0.08525   0.01944  -0.45662
  -0.05158  -0.00000  -0.00000
  -0.08525   0.01944  -0.45662
  -0.08525  -0.01944   0.45662
 vibration     7
   0.00000   0.00000   0.00000
  -0.00000   0.00000   0.00000
  -0.00000  -0.32112  -0.00000
   0.00000   0.32112   0.00000
  -0.00414  -0.33786   0.09083
  -0.00000  -0.34503  -0.18166
   0.00414  -0.33786   0.09083
   0.00000   0.34503   0.18166
  -0.00414   0.33786  -0.09083
   0.00414   0.33786  -0.09083
 vibration     8
  -0.00000  -0.00000   0.00000
   0.00000   0.00000   0.00000
  -0.32112   0.00000  -0.00000
   0.32112  -0.00000   0.00000
  -0.34264  -0.00414   0.15732
  -0.33547   0.00000   0.00000
  -0.34264   0.00414  -0.15732
   0.33547  -0.00000  -0.00000
   0.34264  -0.00414   0.15732
   0.34264   0.00414  -0.15732
 vibration     9
   0.00000  -0.00000  -0.00000
  -0.00000   0.00000  -0.00000
   0.00000  -0.00000  -0.20396
  -0.00000   0.00000   0.20396
   0.28368   0.16378  -0.21331
   0.00000  -0.32756  -0.21331
  -0.28368   0.16378  -0.21331
  -0.00000   0.32756   0.21331
   0.28368  -0.16378   0.21331
  -0.28368  -0.16378   0.21331
 vibration    10
  -0.59521  -0.17945  -0.00000
   0.59521  -0.17945  -0.00000
   0.00000   0.06235  -0.00000
  -0.00000   0.06235  -0.00000
   0.03875   0.11268  -0.09028
   0.00000   0.17980   0.18056
  -0.03875   0.11268  -0.09028
  -0.00000   0.17980   0.18056
  -0.03875   0.11268  -0.09028
   0.03875   0.11268  -0.09028
 vibration    11
   0.05116  -0.54778   0.00000
   0.05116   0.54778  -0.00000
   0.00269  -0.00000   0.00000
   0.00269  -0.00000   0.00000
  -0.07038  -0.04547   0.30265
   0.00838  -0.00000  -0.00000
  -0.07038   0.04547  -0.30265
   0.00838  -0.00000  -0.00000
  -0.07038   0.04547  -0.30265
  -0.07038  -0.04547   0.30265
 vibration    12
  -0.00000   0.00000   0.70493
  -0.00000  -0.00000  -0.70493
   0.00000   0.00000  -0.00000
   0.00000  -0.00000  -0.00000
  -0.01600   0.02771  -0.00000
   0.03200   0.00000  -0.00000
  -0.01600  -0.02771   0.00000
   0.03200   0.00000   0.00000
  -0.01600  -0.02771   0.00000
  -0.01600   0.02771  -0.00000
 vibration    13
   0.00000  -0.00000  -0.00000
  -0.00000  -0.00000  -0.00000
  -0.12594  -0.00000  -0.00000
   0.12594   0.00000   0.00000
  -0.10694   0.01499  -0.47072
  -0.13290  -0.00000   0.00000
  -0.10694  -0.01499   0.47072
   0.13290   0.00000  -0.00000
   0.10694   0.01499  -0.47072
   0.10694  -0.01499   0.47072
 vibration    14
   0.00000   0.00000  -0.00000
   0.00000   0.00000   0.00000
  -0.00000   0.12594   0.00000
   0.00000  -0.12594  -0.00000
  -0.01499   0.12425   0.27177
  -0.00000   0.09829  -0.54354
   0.01499   0.12425   0.27177
   0.00000  -0.09829   0.54354
  -0.01499  -0.12425  -0.27177
   0.01499  -0.12425  -0.27177
 vibration    15
  -0.09911   0.32872  -0.00000
   0.09911   0.32872  -0.00000
  -0.00000  -0.21569   0.00000
   0.00000  -0.21569   0.00000
   0.02347  -0.23402  -0.17681
  -0.00000  -0.19337   0.35362
  -0.02347  -0.23402  -0.17681
   0.00000  -0.19337   0.35362
  -0.02347  -0.23402  -0.17681
   0.02347  -0.23402  -0.17681
 vibration    16
   0.00000  -0.00000  -0.31319
  -0.00000  -0.00000  -0.31319
   0.00000   0.00000   0.23918
  -0.00000   0.00000   0.23918
   0.23590   0.13620   0.20176
   0.00000  -0.27239   0.20176
  -0.23590   0.13620   0.20176
  -0.00000  -0.27239   0.20176
  -0.23590   0.13620   0.20176
   0.23590   0.13620   0.20176
 vibration    17
   0.00000  -0.00000  -0.00000
   0.00000  -0.00000  -0.00000
  -0.00000  -0.00000   0.32838
   0.00000   0.00000  -0.32838
   0.20078   0.11592   0.27744
  -0.00000  -0.23184   0.27744
  -0.20078   0.11592   0.27744
   0.00000   0.23184  -0.27744
   0.20078  -0.11592  -0.27744
  -0.20078  -0.11592  -0.27744
 vibration    18
  -0.38975   0.02091  -0.00000
  -0.38975  -0.02091   0.00000
   0.31991   0.00000   0.00000
   0.31991  -0.00000  -0.00000
   0.23812  -0.01275   0.17872
   0.26021  -0.00000   0.00000
   0.23812   0.01275  -0.17872
   0.26021  -0.00000  -0.00000
   0.23812   0.01275  -0.17872
   0.23812  -0.01275   0.17872
 vibration    19
   0.00000   0.00000  -0.00000
  -0.00000  -0.00000   0.00000
   0.00000  -0.22493   0.00000
  -0.00000   0.22493  -0.00000
   0.33138  -0.13635   0.01353
   0.00000   0.43761  -0.02707
  -0.33138  -0.13635   0.01353
  -0.00000  -0.43761   0.02707
   0.33138   0.13635  -0.01353
  -0.33138   0.13635  -0.01353
 vibration    20
  -0.00000   0.00000  -0.00000
   0.00000  -0.00000   0.00000
   0.22493   0.00000  -0.00000
  -0.22493  -0.00000   0.00000
  -0.24629  -0.33138  -0.02344
   0.32767  -0.00000   0.00000
  -0.24629   0.33138   0.02344
  -0.32767   0.00000  -0.00000
   0.24629  -0.33138  -0.02344
   0.24629   0.33138   0.02344
 vibration    21
  -0.03019  -0.00479  -0.00000
   0.03019  -0.00479  -0.00000
  -0.00000   0.23215   0.00000
   0.00000   0.23215   0.00000
  -0.32858   0.13555  -0.02739
  -0.00000  -0.43358   0.05479
   0.32858   0.13555  -0.02739
   0.00000  -0.43358   0.05479
   0.32858   0.13555  -0.02739
  -0.32858   0.13555  -0.02739
 vibration    22
  -0.00761  -0.02846   0.00000
  -0.00761   0.02846  -0.00000
  -0.21043  -0.00000  -0.00000
  -0.21043  -0.00000   0.00000
   0.25042   0.33140   0.05031
  -0.32359   0.00000  -0.00000
   0.25042  -0.33140  -0.05031
  -0.32359   0.00000  -0.00000
   0.25042  -0.33140  -0.05031
   0.25042   0.33140   0.05031
 vibration    23
  -0.00000   0.00000   0.00294
   0.00000   0.00000   0.00294
  -0.00000  -0.00000   0.64662
   0.00000  -0.00000   0.64662
  -0.01523  -0.00879  -0.16427
  -0.00000   0.01759  -0.16427
   0.01523  -0.00879  -0.16427
  -0.00000   0.01759  -0.16427
   0.01523  -0.00879  -0.16427
  -0.01523  -0.00879  -0.16427
 vibration    24
  -0.00000  -0.00000  -0.00000
  -0.00000   0.00000  -0.00000
   0.00000   0.00000   0.63746
  -0.00000  -0.00000  -0.63746
  -0.01325  -0.00765  -0.17602
   0.00000   0.01530  -0.17602
   0.01325  -0.00765  -0.17602
  -0.00000  -0.01530   0.17602
  -0.01325   0.00765   0.17602
   0.01325   0.00765   0.17602
 vibration    25
  -0.00000  -0.00000  -0.02218
  -0.00000   0.00000   0.02218
  -0.00000   0.00000   0.00000
  -0.00000  -0.00000   0.00000
  -0.20402   0.35338  -0.00000
   0.40805   0.00000  -0.00000
  -0.20402  -0.35338   0.00000
   0.40805   0.00000  -0.00000
  -0.20402  -0.35338   0.00000
  -0.20402   0.35338  -0.00000
 vibration    26
  -0.00000  -0.00000   0.00000
   0.00000  -0.00000  -0.00000
  -0.00000  -0.00000  -0.00000
   0.00000   0.00000   0.00000
  -0.20412   0.35355  -0.00000
   0.40825  -0.00000   0.00000
  -0.20412  -0.35355   0.00000
  -0.40825  -0.00000   0.00000
   0.20412   0.35355  -0.00000
   0.20412  -0.35355   0.00000
 vibration    27
  -0.00698  -0.00999   0.00000
   0.00698  -0.00999   0.00000
  -0.00000   0.62631  -0.00000
   0.00000   0.62631  -0.00000
   0.10191  -0.20721  -0.00019
   0.00000  -0.03070   0.00038
  -0.10191  -0.20721  -0.00019
  -0.00000  -0.03070   0.00038
  -0.10191  -0.20721  -0.00019
   0.10191  -0.20721  -0.00019
 vibration    28
  -0.00000  -0.00000   0.00000
  -0.00000   0.00000  -0.00000
   0.62724   0.00000   0.00000
  -0.62724  -0.00000   0.00000
  -0.09322   0.09864  -0.00140
  -0.26406  -0.00000   0.00000
  -0.09322  -0.09864   0.00140
   0.26406   0.00000  -0.00000
   0.09322   0.09864  -0.00140
   0.09322  -0.09864   0.00140
 vibration    29
   0.00000   0.00000   0.00000
   0.00000   0.00000  -0.00000
   0.00000  -0.62724  -0.00000
  -0.00000   0.62724   0.00000
  -0.09864   0.20711   0.00081
  -0.00000   0.03627  -0.00161
   0.09864   0.20711   0.00081
   0.00000  -0.03627   0.00161
  -0.09864  -0.20711  -0.00081
   0.09864  -0.20711  -0.00081
 vibration    30
  -0.01735  -0.00350  -0.00000
  -0.01735   0.00350   0.00000
  -0.61436  -0.00000   0.00000
  -0.61436   0.00000   0.00000
   0.11246  -0.09657   0.00556
   0.27972   0.00000   0.00000
   0.11246   0.09657  -0.00556
   0.27972   0.00000  -0.00000
   0.11246   0.09657  -0.00556
   0.11246  -0.09657   0.00556
