TACC:  Starting up job 9581705 
TACC:  Starting parallel tasks... 

     Program PWSCF v.6.4.1 starts on  4May2022 at 13:55:14 

     This program is part of the open-source Quantum ESPRESSO suite
     for quantum simulation of materials; please cite
         "P. Giannozzi et al., J. Phys.:Condens. Matter 21 395502 (2009);
         "P. Giannozzi et al., J. Phys.:Condens. Matter 29 465901 (2017);
          URL http://www.quantum-espresso.org", 
     in publications or presentations arising from this work. More details at
     http://www.quantum-espresso.org/quote

     Parallel version (MPI & OpenMP), running on     120 processor cores
     Number of MPI processes:               120
     Threads/MPI process:                     1

     MPI processes distributed on     2 nodes
     R & G space division:  proc/nbgrp/npool/nimage =     120
     Waiting for input...
     Reading input from standard input
Warning: card &CELL ignored
Warning: card  CELL_DYNAMICS = 'BFGS', ignored
Warning: card  PRESS=0.1D0, ignored
Warning: card / ignored

     Current dimensions of program PWSCF are:
     Max number of different atomic species (ntypx) = 10
     Max number of k-points (npk) =  40000
     Max angular momentum in pseudopotentials (lmaxx) =  3

     Subspace diagonalization in iterative solution of the eigenvalue problem:
     one sub-group per band group will be used
     scalapack distributed-memory algorithm (size of sub-group:  7*  7 procs)

 
     Parallelization info
     --------------------
     sticks:   dense  smooth     PW     G-vecs:    dense   smooth      PW
     Min          19      19      5                  560      560      84
     Max          20      20      6                  565      565      89
     Sum        2289    2289    651                67553    67553   10323
 


     bravais-lattice index     =            5
     lattice parameter (alat)  =      11.3568  a.u.
     unit-cell volume          =     852.5943 (a.u.)^3
     number of atoms/cell      =           10
     number of atomic types    =            3
     number of electrons       =        64.00
     number of Kohn-Sham states=           32
     kinetic-energy cutoff     =      70.0000  Ry
     charge density cutoff     =     280.0000  Ry
     convergence threshold     =      1.0E-08
     mixing beta               =       0.7000
     number of iterations used =            8  plain     mixing
     Exchange-correlation      = SLA  PW   PBE  PBE ( 1  4  3  4 0 0)
     nstep                     =           50


     celldm(1)=  11.356800  celldm(2)=   0.000000  celldm(3)=   0.000000
     celldm(4)=   0.609200  celldm(5)=   0.000000  celldm(6)=   0.000000

     crystal axes: (cart. coord. in units of alat)
               a(1) = (   0.442041  -0.255212   0.859922 )  
               a(2) = (   0.000000   0.510425   0.859922 )  
               a(3) = (  -0.442041  -0.255212   0.859922 )  

     reciprocal axes: (cart. coord. in units 2 pi/alat)
               b(1) = (  1.131118 -0.653051  0.387632 )  
               b(2) = (  0.000000  1.306102  0.387632 )  
               b(3) = ( -1.131118 -0.653051  0.387632 )  


     PseudoPot. # 1 for Ca read from file:
     ./Ca_PBE.UPF
     MD5 check sum: 403a4c14b9e4d4dfdc3024c9a3812218
     Pseudo is Ultrasoft + core correction, Zval = 10.0
     Generated by new atomic code, or converted to UPF format
     Using radial grid of  845 points,  6 beta functions with: 
                l(1) =   0
                l(2) =   0
                l(3) =   1
                l(4) =   1
                l(5) =   2
                l(6) =   2
     Q(r) pseudized with  8 coefficients,  rinner =    1.500   1.500   1.500
                                                       1.500   1.500

     PseudoPot. # 2 for C  read from file:
     ./C_PBE.UPF
     MD5 check sum: d1aef80898a10debaa0f26306b886e00
     Pseudo is Ultrasoft + core correction, Zval =  4.0
     Generated by new atomic code, or converted to UPF format
     Using radial grid of  721 points,  4 beta functions with: 
                l(1) =   0
                l(2) =   0
                l(3) =   1
                l(4) =   1
     Q(r) pseudized with  8 coefficients,  rinner =    1.100   1.100   1.100


     PseudoPot. # 3 for O  read from file:
     ./O_PBE.UPF
     MD5 check sum: 734c27235a0248c51dbae37a1fbe46ec
     Pseudo is Ultrasoft + core correction, Zval =  6.0
     Generated by new atomic code, or converted to UPF format
     Using radial grid of  737 points,  5 beta functions with: 
                l(1) =   0
                l(2) =   0
                l(3) =   1
                l(4) =   1
                l(5) =   2
     Q(r) pseudized with  8 coefficients,  rinner =    0.900   0.900   0.900
                                                       0.900   0.900

     atomic species   valence    mass     pseudopotential
        Ca            10.00    40.07800     Ca( 1.00)
        C              4.00    12.01070     C ( 1.00)
        O              6.00    16.00000     O ( 1.00)

     12 Sym. Ops., with inversion, found ( 6 have fractional translation)



   Cartesian axes

     site n.     atom                  positions (alat units)
         1           Ca  tau(   1) = (   0.0000000  -0.0000000   1.2898837  )
         2           Ca  tau(   2) = (   0.0000000   0.0000000   0.0000000  )
         3           C   tau(   3) = (   0.0000000  -0.0000000   0.6449419  )
         4           C   tau(   4) = (   0.0000000  -0.0000000   1.9348256  )
         5           O   tau(   5) = (   0.1136120   0.3136430   1.5048643  )
         6           O   tau(   6) = (   0.2148168  -0.2552123   1.5048643  )
         7           O   tau(   7) = (  -0.3284288  -0.0584306   1.5048643  )
         8           O   tau(   8) = (  -0.2148168   0.2552123   1.0749031  )
         9           O   tau(   9) = (   0.3284288   0.0584306   1.0749031  )
        10           O   tau(  10) = (  -0.1136120  -0.3136430   1.0749031  )

     number of k points=    19
                       cart. coord. in units 2pi/alat
        k(    1) = (   0.0000000   0.0000000   0.0000000), wk =   0.0160000
        k(    2) = (  -0.2262235  -0.1306102   0.0775264), wk =   0.0960000
        k(    3) = (  -0.4524470  -0.2612204   0.1550527), wk =   0.0960000
        k(    4) = (  -0.2262235   0.1306102   0.1550527), wk =   0.0960000
        k(    5) = (  -0.4524470   0.0000000   0.2325791), wk =   0.1920000
        k(    6) = (   0.4524470   0.5224408  -0.0775264), wk =   0.1920000
        k(    7) = (   0.2262235   0.3918306   0.0000000), wk =   0.0960000
        k(    8) = (  -0.4524470   0.2612204   0.3101055), wk =   0.0960000
        k(    9) = (   0.4524470   0.7836612   0.0000000), wk =   0.0960000
        k(   10) = (   0.0000000   0.0000000   0.2325791), wk =   0.0320000
        k(   11) = (  -0.2262235  -0.1306102   0.3101055), wk =   0.0960000
        k(   12) = (   0.6786705   0.3918306   0.0000000), wk =   0.0960000
        k(   13) = (   0.4524470   0.2612204   0.0775264), wk =   0.0960000
        k(   14) = (  -0.2262235   0.1306102   0.3876318), wk =   0.0960000
        k(   15) = (   0.6786705   0.6530510   0.0775264), wk =   0.1920000
        k(   16) = (   0.4524470   0.5224408   0.1550527), wk =   0.1920000
        k(   17) = (   0.6786705  -0.3918306  -0.2325791), wk =   0.0960000
        k(   18) = (   0.0000000   0.0000000   0.4651582), wk =   0.0320000
        k(   19) = (   0.9048940   0.5224408   0.1550527), wk =   0.0960000

     Dense  grid:    67553 G-vectors     FFT dimensions: (  64,  64,  64)

     Estimated max dynamical RAM per process >      10.53 MB

     Estimated total dynamical RAM >       1.23 GB
     Message from routine sym_rho_init:
     some processors have no G-vectors for symmetrization

     Check: negative core charge=   -0.000003

     Initial potential from superposition of free atoms

     starting charge   63.98899, renormalised to   64.00000
     Starting wfcs are   52 randomized atomic wfcs

     total cpu time spent up to now is        8.2 secs

     Self-consistent Calculation

     iteration #  1     ecut=    70.00 Ry     beta= 0.70
     CG style diagonalization
     ethr =  1.00E-02,  avg # of iterations =  2.5

     total cpu time spent up to now is       13.5 secs

     total energy              =    -366.51823186 Ry
     Harris-Foulkes estimate   =    -367.78048622 Ry
     estimated scf accuracy    <       1.79219200 Ry

     iteration #  2     ecut=    70.00 Ry     beta= 0.70
     CG style diagonalization
     ethr =  2.80E-03,  avg # of iterations =  4.4

     total cpu time spent up to now is       22.1 secs

     total energy              =    -366.91697359 Ry
     Harris-Foulkes estimate   =    -367.99212908 Ry
     estimated scf accuracy    <       2.35135854 Ry

     iteration #  3     ecut=    70.00 Ry     beta= 0.70
     CG style diagonalization
     ethr =  2.80E-03,  avg # of iterations =  3.8

     total cpu time spent up to now is       29.4 secs

     total energy              =    -367.34289686 Ry
     Harris-Foulkes estimate   =    -367.34713048 Ry
     estimated scf accuracy    <       0.01351833 Ry

     iteration #  4     ecut=    70.00 Ry     beta= 0.70
     CG style diagonalization
     ethr =  2.11E-05,  avg # of iterations =  4.5

     total cpu time spent up to now is       38.1 secs

     total energy              =    -367.35610119 Ry
     Harris-Foulkes estimate   =    -367.35810257 Ry
     estimated scf accuracy    <       0.00489834 Ry

     iteration #  5     ecut=    70.00 Ry     beta= 0.70
     CG style diagonalization
     ethr =  7.65E-06,  avg # of iterations =  3.6

     total cpu time spent up to now is       45.0 secs

     total energy              =    -367.35687542 Ry
     Harris-Foulkes estimate   =    -367.35689338 Ry
     estimated scf accuracy    <       0.00017250 Ry

     iteration #  6     ecut=    70.00 Ry     beta= 0.70
     CG style diagonalization
     ethr =  2.70E-07,  avg # of iterations =  4.3

     total cpu time spent up to now is       53.1 secs

     total energy              =    -367.35694126 Ry
     Harris-Foulkes estimate   =    -367.35694985 Ry
     estimated scf accuracy    <       0.00001738 Ry

     iteration #  7     ecut=    70.00 Ry     beta= 0.70
     CG style diagonalization
     ethr =  2.72E-08,  avg # of iterations =  4.2

     total cpu time spent up to now is       61.1 secs

     total energy              =    -367.35695109 Ry
     Harris-Foulkes estimate   =    -367.35695212 Ry
     estimated scf accuracy    <       0.00000217 Ry

     iteration #  8     ecut=    70.00 Ry     beta= 0.70
     CG style diagonalization
     ethr =  3.38E-09,  avg # of iterations =  4.1

     total cpu time spent up to now is       68.9 secs

     total energy              =    -367.35695183 Ry
     Harris-Foulkes estimate   =    -367.35695188 Ry
     estimated scf accuracy    <       0.00000009 Ry

     iteration #  9     ecut=    70.00 Ry     beta= 0.70
     CG style diagonalization
     ethr =  1.37E-10,  avg # of iterations =  4.5

     total cpu time spent up to now is       77.5 secs

     End of self-consistent calculation

          k = 0.0000 0.0000 0.0000 (  8415 PWs)   bands (ev):

   -33.6678 -33.6528 -16.0993 -16.0579 -15.0329 -15.0329 -14.7077 -14.7077
   -14.6839 -14.4881 -13.3916 -13.3916 -12.8274 -12.8274  -3.3189  -3.1803
    -1.2005  -1.2005  -1.1170  -1.0147  -1.0147   0.5066   2.5166   2.5166
     2.6828   2.6828   2.9980   2.9980   3.7036   3.9050   3.9050   4.2230

          k =-0.2262-0.1306 0.0775 (  8427 PWs)   bands (ev):

   -33.6663 -33.6542 -16.1576 -16.0188 -15.0253 -14.9321 -14.8018 -14.7276
   -14.6326 -14.5833 -13.3284 -13.2173 -12.9632 -12.8699  -3.2174  -3.2123
    -1.1878  -1.1601  -1.0611  -1.0098  -0.8864   0.3113   2.5223   2.5656
     2.6631   2.7193   2.8636   2.8893   3.6744   3.7346   4.0017   4.1651

          k =-0.4524-0.2612 0.1551 (  8422 PWs)   bands (ev):

   -33.6624 -33.6578 -16.1618 -16.0474 -14.9679 -14.9146 -14.9040 -14.8266
   -14.5621 -14.5037 -13.1996 -13.0974 -13.0940 -12.9939  -3.1806  -3.1170
    -1.2493  -1.1560  -0.9969  -0.9548  -0.4524  -0.0196   2.3209   2.4084
     2.5450   2.6046   2.9949   3.0850   3.4684   3.4688   4.1277   4.1656

          k =-0.2262 0.1306 0.1551 (  8435 PWs)   bands (ev):

   -33.6660 -33.6545 -16.1719 -16.0094 -14.9899 -14.9767 -14.7050 -14.7023
   -14.6893 -14.6460 -13.2709 -13.2438 -12.9434 -12.9091  -3.2352  -3.2052
    -1.1937  -1.1355  -1.0934  -0.9659  -0.8569   0.2730   2.5106   2.5534
     2.6415   2.7389   2.8328   2.9899   3.5753   3.8126   3.9729   4.1331

          k =-0.4524 0.0000 0.2326 (  8431 PWs)   bands (ev):

   -33.6634 -33.6568 -16.1962 -16.0124 -15.0246 -14.9299 -14.8004 -14.7564
   -14.6305 -14.5324 -13.2501 -13.1634 -13.0185 -12.9548  -3.2246  -3.1078
    -1.2300  -1.1329  -1.0512  -0.9197  -0.5390   0.0452   2.3150   2.4830
     2.5702   2.6554   2.8649   3.0911   3.3790   3.6404   4.0941   4.1627

          k = 0.4524 0.5224-0.0775 (  8420 PWs)   bands (ev):

   -33.6605 -33.6596 -16.1496 -16.0858 -14.9839 -14.9322 -14.8662 -14.7540
   -14.5800 -14.5208 -13.2413 -13.1551 -13.0365 -12.9715  -3.1588  -3.0957
    -1.2754  -1.1349  -1.0043  -0.9155  -0.2412  -0.1564   2.2242   2.2840
     2.5457   2.6363   2.9321   3.0122   3.4710   3.5051   4.1536   4.2023

          k = 0.2262 0.3918 0.0000 (  8441 PWs)   bands (ev):

   -33.6641 -33.6561 -16.2096 -15.9791 -15.0271 -14.9572 -14.8500 -14.6901
   -14.6676 -14.5032 -13.2434 -13.2016 -12.9741 -12.9665  -3.2327  -3.0871
    -1.2805  -1.0593  -1.0310  -0.9679  -0.6388   0.1061   2.3024   2.5602
     2.5695   2.5920   2.8062   3.0974   3.4999   3.6289   4.1038   4.1776

          k =-0.4524 0.2612 0.3101 (  8435 PWs)   bands (ev):

   -33.6630 -33.6571 -16.2710 -15.9136 -15.0880 -15.0352 -14.7029 -14.6916
   -14.6819 -14.4502 -13.3441 -13.2123 -12.9625 -12.9185  -3.3067  -2.9867
    -1.3379  -1.0836  -0.9773  -0.8445  -0.4803  -0.0604   2.1892   2.4310
     2.6120   2.7822   2.8292   3.0346   3.3136   3.6838   3.9643   4.2504

          k = 0.4524 0.7837 0.0000 (  8422 PWs)   bands (ev):

   -33.6616 -33.6585 -16.2232 -16.0140 -15.0402 -14.9478 -14.7431 -14.7043
   -14.6780 -14.4980 -13.3245 -13.1678 -13.0038 -12.9320  -3.2272  -3.0242
    -1.2678  -1.1748  -0.9983  -0.8416  -0.3002  -0.1099   2.1355   2.3060
     2.6949   2.7190   2.8391   2.8466   3.4250   3.6057   4.0588   4.2612

          k = 0.0000 0.0000 0.2326 (  8456 PWs)   bands (ev):

   -33.6663 -33.6542 -16.1002 -16.0662 -15.0097 -15.0097 -14.7505 -14.7505
   -14.6593 -14.5017 -13.3262 -13.3262 -12.8737 -12.8737  -3.3280  -3.2212
    -1.1769  -1.1769  -1.0276  -1.0276  -0.9386   0.3744   2.5343   2.5343
     2.6710   2.6710   3.0610   3.0610   3.7406   3.7976   3.7976   4.1503

          k =-0.2262-0.1306 0.3101 (  8446 PWs)   bands (ev):

   -33.6642 -33.6562 -16.1274 -16.0660 -15.0173 -14.8995 -14.8870 -14.6951
   -14.6422 -14.5462 -13.2898 -13.1550 -13.0302 -12.9013  -3.2566  -3.2207
    -1.1658  -1.1136  -1.0574  -1.0423  -0.6695   0.1499   2.5117   2.5749
     2.6220   2.7571   2.8065   3.1352   3.5076   3.6355   3.9787   4.1073

          k = 0.6787 0.3918 0.0000 (  8435 PWs)   bands (ev):

   -33.6605 -33.6596 -16.1621 -16.0613 -15.0278 -14.9151 -14.8534 -14.7659
   -14.5912 -14.4927 -13.2056 -13.1913 -13.0443 -12.9620  -3.2204  -3.0871
    -1.2873  -1.0754  -1.0074  -0.9611  -0.2971  -0.1497   2.2891   2.4043
     2.5460   2.6772   2.9305   3.2453   3.2659   3.4703   4.0817   4.1765

          k = 0.4524 0.2612 0.0775 (  8432 PWs)   bands (ev):

   -33.6633 -33.6568 -16.2389 -15.9460 -15.0359 -15.0180 -14.7931 -14.7429
   -14.6368 -14.4553 -13.2984 -13.1406 -13.0216 -12.9449  -3.2631  -3.0257
    -1.3286  -1.0621  -0.9619  -0.9493  -0.5378   0.0072   2.2281   2.4596
     2.5183   2.7131   2.8329   3.2392   3.3200   3.6143   4.0434   4.2198

          k =-0.2262 0.1306 0.3876 (  8437 PWs)   bands (ev):

   -33.6634 -33.6569 -16.1622 -16.0388 -15.0225 -14.8849 -14.8081 -14.7413
   -14.6203 -14.6195 -13.2220 -13.1567 -13.0091 -12.9715  -3.2735  -3.2204
    -1.2012  -1.0917  -1.0778  -0.9621  -0.5805   0.0485   2.4841   2.5516
     2.6375   2.7148   2.9561   3.1898   3.3231   3.6984   3.9782   4.0419

          k = 0.6787 0.6531 0.0775 (  8435 PWs)   bands (ev):

   -33.6613 -33.6588 -16.1539 -16.0851 -14.9940 -14.9359 -14.7535 -14.6949
   -14.6650 -14.5988 -13.2193 -13.1600 -13.0284 -12.9807  -3.1983  -3.1542
    -1.1926  -1.1862  -1.0084  -0.9170  -0.3341  -0.1184   2.3290   2.3755
     2.6789   2.7718   2.8594   2.9890   3.3609   3.5406   4.0907   4.1246

          k = 0.4524 0.5224 0.1551 (  8416 PWs)   bands (ev):

   -33.6613 -33.6588 -16.2025 -16.0342 -15.0090 -14.9596 -14.8111 -14.6854
   -14.6531 -14.5027 -13.3042 -13.1392 -13.0400 -12.9357  -3.2085  -3.0439
    -1.3006  -1.1258  -0.9398  -0.9338  -0.2935  -0.1127   2.1600   2.3040
     2.5817   2.7130   2.8674   2.9677   3.4482   3.5411   4.0934   4.2430

          k = 0.6787-0.3918-0.2326 (  8441 PWs)   bands (ev):

   -33.6616 -33.6585 -16.2445 -15.9651 -15.0908 -14.9798 -14.7407 -14.6902
   -14.6676 -14.4571 -13.3001 -13.2397 -12.9550 -12.9414  -3.2923  -3.0128
    -1.3360  -1.0622  -0.9652  -0.8925  -0.3288  -0.1650   2.2082   2.3988
     2.6804   2.7866   2.8400   2.9878   3.3192   3.5895   3.9858   4.2293

          k = 0.0000 0.0000 0.4652 (  8474 PWs)   bands (ev):

   -33.6626 -33.6580 -16.0972 -16.0839 -14.9434 -14.9434 -14.8465 -14.8465
   -14.6016 -14.5418 -13.1708 -13.1708 -13.0002 -13.0002  -3.3319  -3.2939
    -1.1219  -1.1219  -1.0654  -1.0654  -0.4982   0.0036   2.5789   2.5789
     2.6324   2.6324   3.2539   3.2539   3.5367   3.5367   3.8431   3.9932

          k = 0.9049 0.5224 0.1551 (  8433 PWs)   bands (ev):

   -33.6607 -33.6597 -16.1233 -16.0851 -15.0115 -14.9059 -14.8453 -14.7396
   -14.6216 -14.5597 -13.1990 -13.0951 -13.0936 -12.9768  -3.2852  -3.2311
    -1.1848  -1.0725  -1.0556  -1.0154  -0.3071  -0.1837   2.4847   2.5380
     2.6584   2.7033   3.0080   3.2216   3.3975   3.4869   3.9716   4.0278

     highest occupied level (ev):     4.2612

!    total energy              =    -367.35695190 Ry
     Harris-Foulkes estimate   =    -367.35695191 Ry
     estimated scf accuracy    <          6.8E-09 Ry

     The total energy is the sum of the following terms:

     one-electron contribution =    -134.79288030 Ry
     hartree contribution      =      97.01653711 Ry
     xc contribution           =     -74.74425543 Ry
     ewald contribution        =    -254.83635329 Ry

     convergence has been achieved in   9 iterations

     Forces acting on atoms (cartesian axes, Ry/au):

     atom    1 type  1   force =     0.00000000    0.00000000    0.00000000
     atom    2 type  1   force =     0.00000000    0.00000000    0.00000000
     atom    3 type  2   force =    -0.00000000   -0.00000000    0.00000000
     atom    4 type  2   force =     0.00000000   -0.00000000    0.00000000
     atom    5 type  3   force =    -0.06627336    0.11478882    0.00000000
     atom    6 type  3   force =     0.13254672   -0.00000000   -0.00000000
     atom    7 type  3   force =    -0.06627336   -0.11478882   -0.00000000
     atom    8 type  3   force =    -0.13254672    0.00000000   -0.00000000
     atom    9 type  3   force =     0.06627336    0.11478882    0.00000000
     atom   10 type  3   force =     0.06627336   -0.11478882   -0.00000000

     Total force =     0.324672     Total SCF correction =     0.000236


     Computing stress (Cartesian axis) and pressure

          total   stress  (Ry/bohr**3)                   (kbar)     P= -115.77
  -0.00133442  -0.00000000   0.00000000       -196.30     -0.00      0.00
   0.00000000  -0.00133442  -0.00000000          0.00   -196.30     -0.00
  -0.00000000  -0.00000000   0.00030789         -0.00     -0.00     45.29


     BFGS Geometry Optimization

     number of scf cycles    =   1
     number of bfgs steps    =   0

     energy   new            =    -367.3569519026 Ry

     new trust radius        =       0.1325467158 bohr
     new conv_thr            =       0.0000000100 Ry


ATOMIC_POSITIONS (crystal)
Ca       0.500000000   0.500000000   0.500000000
Ca       0.000000000   0.000000000   0.000000000
C        0.250000000   0.250000000   0.250000000
C        0.750000000   0.750000000   0.750000000
O        0.493815533   1.006184467   0.250000000
O        1.006184467   0.250000000   0.493815533
O        0.250000000   0.493815533   1.006184467
O       -0.006184467   0.750000000   0.506184467
O        0.750000000   0.506184467  -0.006184467
O        0.506184467  -0.006184467   0.750000000



     Writing output data file CCOrand1.save/
     NEW-OLD atomic charge density approx. for the potential

     Check: negative core charge=   -0.000003

     total cpu time spent up to now is       79.0 secs

     Self-consistent Calculation

     iteration #  1     ecut=    70.00 Ry     beta= 0.70
     CG style diagonalization
     c_bands:  2 eigenvalues not converged
     c_bands:  5 eigenvalues not converged
     c_bands:  4 eigenvalues not converged
     c_bands:  4 eigenvalues not converged
     c_bands:  4 eigenvalues not converged
     c_bands:  4 eigenvalues not converged
     c_bands:  2 eigenvalues not converged
     ethr =  1.00E-06,  avg # of iterations = 15.9

     total cpu time spent up to now is      108.0 secs

     total energy              =    -367.38497051 Ry
     Harris-Foulkes estimate   =    -367.42902330 Ry
     estimated scf accuracy    <       0.06038966 Ry

     iteration #  2     ecut=    70.00 Ry     beta= 0.70
     CG style diagonalization
     ethr =  9.44E-05,  avg # of iterations =  4.0

     total cpu time spent up to now is      115.7 secs

     total energy              =    -367.40088268 Ry
     Harris-Foulkes estimate   =    -367.41763416 Ry
     estimated scf accuracy    <       0.03057441 Ry

     iteration #  3     ecut=    70.00 Ry     beta= 0.70
     CG style diagonalization
     ethr =  4.78E-05,  avg # of iterations =  3.6

     total cpu time spent up to now is      122.5 secs

     total energy              =    -367.40833040 Ry
     Harris-Foulkes estimate   =    -367.40866945 Ry
     estimated scf accuracy    <       0.00073120 Ry

     iteration #  4     ecut=    70.00 Ry     beta= 0.70
     CG style diagonalization
     ethr =  1.14E-06,  avg # of iterations =  4.1

     total cpu time spent up to now is      130.4 secs

     total energy              =    -367.40880541 Ry
     Harris-Foulkes estimate   =    -367.40887695 Ry
     estimated scf accuracy    <       0.00019585 Ry

     iteration #  5     ecut=    70.00 Ry     beta= 0.70
     CG style diagonalization
     ethr =  3.06E-07,  avg # of iterations =  3.5

     total cpu time spent up to now is      137.2 secs

     total energy              =    -367.40883324 Ry
     Harris-Foulkes estimate   =    -367.40883707 Ry
     estimated scf accuracy    <       0.00000732 Ry

     iteration #  6     ecut=    70.00 Ry     beta= 0.70
     CG style diagonalization
     ethr =  1.14E-08,  avg # of iterations =  4.2

     total cpu time spent up to now is      145.1 secs

     total energy              =    -367.40883604 Ry
     Harris-Foulkes estimate   =    -367.40883686 Ry
     estimated scf accuracy    <       0.00000138 Ry

     iteration #  7     ecut=    70.00 Ry     beta= 0.70
     CG style diagonalization
     ethr =  2.16E-09,  avg # of iterations =  4.1

     total cpu time spent up to now is      152.8 secs

     total energy              =    -367.40883650 Ry
     Harris-Foulkes estimate   =    -367.40883654 Ry
     estimated scf accuracy    <       0.00000009 Ry

     iteration #  8     ecut=    70.00 Ry     beta= 0.70
     CG style diagonalization
     ethr =  1.39E-10,  avg # of iterations =  4.0

     total cpu time spent up to now is      160.5 secs

     End of self-consistent calculation

          k = 0.0000 0.0000 0.0000 (  8415 PWs)   bands (ev):

   -33.8962 -33.8826 -16.9173 -16.7958 -15.1874 -15.1874 -14.9111 -14.9111
   -14.8983 -14.8426 -13.7593 -13.7593 -13.2772 -13.2772  -3.1287  -2.8635
    -1.5122  -1.3395  -1.3395  -1.1735  -1.1735  -0.0944   2.5484   2.5484
     2.7106   2.7106   2.9936   2.9936   3.9296   3.9296   4.0469   4.5165

          k =-0.2262-0.1306 0.0775 (  8427 PWs)   bands (ev):

   -33.8948 -33.8838 -16.9373 -16.7845 -15.1838 -15.1089 -15.0130 -14.9342
   -14.8749 -14.8691 -13.7051 -13.6127 -13.3969 -13.3113  -3.0125  -2.8990
    -1.4494  -1.3130  -1.2426  -1.1765  -1.1645  -0.2399   2.5299   2.5697
     2.7007   2.7231   2.8915   2.9261   3.7598   3.7764   4.2563   4.4545

          k =-0.4524-0.2612 0.1551 (  8422 PWs)   bands (ev):

   -33.8913 -33.8871 -16.9175 -16.8266 -15.1403 -15.0943 -15.0803 -15.0176
   -14.8469 -14.7978 -13.5972 -13.5098 -13.5030 -13.4129  -2.8848  -2.8666
    -1.4548  -1.3407  -1.1831  -1.1421  -0.8514  -0.4939   2.3418   2.4187
     2.5594   2.5981   3.0574   3.1178   3.5284   3.5337   4.4095   4.4363

          k =-0.2262 0.1306 0.1551 (  8435 PWs)   bands (ev):

   -33.8945 -33.8841 -16.9424 -16.7811 -15.1591 -15.1433 -14.9449 -14.9431
   -14.9017 -14.8993 -13.6541 -13.6353 -13.3805 -13.3467  -3.0006  -2.9275
    -1.3922  -1.3262  -1.2962  -1.1445  -1.1300  -0.2715   2.5256   2.5532
     2.7073   2.7363   2.8509   3.0198   3.6311   3.8494   4.2585   4.4253

          k =-0.4524 0.0000 0.2326 (  8431 PWs)   bands (ev):

   -33.8921 -33.8862 -16.9410 -16.8005 -15.1893 -15.1160 -15.0121 -14.9548
   -14.8845 -14.8159 -13.6353 -13.5664 -13.4391 -13.3864  -2.9247  -2.8722
    -1.4135  -1.3187  -1.2706  -1.0950  -0.9129  -0.4475   2.3391   2.5106
     2.5771   2.6686   2.9060   3.1340   3.4264   3.6984   4.3824   4.4349

          k = 0.4524 0.5224-0.0775 (  8420 PWs)   bands (ev):

   -33.8895 -33.8887 -16.8982 -16.8576 -15.1598 -15.1153 -15.0492 -14.9581
   -14.8504 -14.8226 -13.6283 -13.5565 -13.4521 -13.3991  -2.8756  -2.8230
    -1.4732  -1.3310  -1.2090  -1.1043  -0.6837  -0.5951   2.2439   2.3103
     2.5649   2.6416   2.9851   3.0638   3.5235   3.5645   4.4268   4.4783

          k = 0.2262 0.3918 0.0000 (  8441 PWs)   bands (ev):

   -33.8928 -33.8855 -16.9538 -16.7798 -15.1955 -15.1253 -15.0377 -14.9249
   -14.8986 -14.7972 -13.6348 -13.5981 -13.4064 -13.3895  -2.9228  -2.8565
    -1.4853  -1.2479  -1.2110  -1.1415  -1.0183  -0.3944   2.3205   2.5659
     2.5668   2.6201   2.8707   3.1230   3.5494   3.6848   4.3897   4.4493

          k =-0.4524 0.2612 0.3101 (  8435 PWs)   bands (ev):

   -33.8918 -33.8865 -16.9819 -16.7563 -15.2455 -15.2053 -14.9099 -14.9066
   -14.8863 -14.7852 -13.7140 -13.5947 -13.3960 -13.3612  -3.0029  -2.7487
    -1.4839  -1.2938  -1.2335  -1.0191  -0.8719  -0.5330   2.2172   2.5019
     2.6386   2.7604   2.8614   3.0769   3.3549   3.7285   4.2625   4.5318

          k = 0.4524 0.7837 0.0000 (  8422 PWs)   bands (ev):

   -33.8905 -33.8877 -16.9449 -16.8117 -15.2015 -15.1541 -14.9447 -14.9394
   -14.8849 -14.8110 -13.6941 -13.5570 -13.4331 -13.3704  -2.9322  -2.7640
    -1.4217  -1.3884  -1.2545  -1.0230  -0.7161  -0.5723   2.1688   2.3554
     2.7047   2.7247   2.8889   2.8981   3.4781   3.6564   4.3439   4.5340

          k = 0.0000 0.0000 0.2326 (  8456 PWs)   bands (ev):

   -33.8949 -33.8839 -16.9085 -16.8101 -15.1679 -15.1679 -14.9476 -14.9476
   -14.8893 -14.8445 -13.7032 -13.7032 -13.3165 -13.3165  -3.1327  -2.9327
    -1.3315  -1.3191  -1.3191  -1.1854  -1.1854  -0.1955   2.5654   2.5654
     2.6881   2.6881   3.0707   3.0707   3.8245   3.8245   4.0783   4.4521

          k =-0.2262-0.1306 0.3101 (  8446 PWs)   bands (ev):

   -33.8929 -33.8856 -16.9091 -16.8233 -15.1834 -15.0834 -15.0605 -14.9120
   -14.8816 -14.8579 -13.6737 -13.5565 -13.4519 -13.3374  -3.0407  -2.9384
    -1.3356  -1.3166  -1.2261  -1.2016  -1.0267  -0.3691   2.5452   2.5752
     2.6315   2.7690   2.8456   3.1744   3.5508   3.7042   4.2515   4.4070

          k = 0.6787 0.3918 0.0000 (  8435 PWs)   bands (ev):

   -33.8896 -33.8887 -16.8992 -16.8520 -15.1934 -15.0959 -15.0427 -14.9638
   -14.8436 -14.8181 -13.5956 -13.5847 -13.4645 -13.3899  -2.9518  -2.8142
    -1.4645  -1.2869  -1.2036  -1.1502  -0.7051  -0.6123   2.3117   2.4421
     2.5591   2.6699   2.9661   3.2960   3.3152   3.5470   4.3509   4.4667

          k = 0.4524 0.2612 0.0775 (  8432 PWs)   bands (ev):

   -33.8921 -33.8862 -16.9659 -16.7701 -15.1989 -15.1826 -14.9882 -14.9499
   -14.8734 -14.7729 -13.6783 -13.5382 -13.4455 -13.3798  -2.9559  -2.7866
    -1.5106  -1.2649  -1.1569  -1.1393  -0.9317  -0.4704   2.2527   2.4771
     2.5574   2.6952   2.8864   3.2657   3.3644   3.6765   4.3294   4.4998

          k =-0.2262 0.1306 0.3876 (  8437 PWs)   bands (ev):

   -33.8922 -33.8863 -16.9215 -16.8136 -15.1853 -15.0716 -15.0192 -14.9465
   -14.8853 -14.8820 -13.6128 -13.5548 -13.4348 -13.4027  -3.0040  -2.9994
    -1.3560  -1.2695  -1.2583  -1.1288  -0.9724  -0.4518   2.5046   2.6025
     2.6367   2.7201   2.9946   3.2280   3.3609   3.7342   4.2810   4.3422

          k = 0.6787 0.6531 0.0775 (  8435 PWs)   bands (ev):

   -33.8903 -33.8880 -16.9037 -16.8503 -15.1635 -15.1254 -14.9709 -14.9480
   -14.8942 -14.8601 -13.6044 -13.5551 -13.4533 -13.4119  -2.9222  -2.9028
    -1.3730  -1.3604  -1.2294  -1.1015  -0.7470  -0.5823   2.3627   2.4149
     2.6891   2.7660   2.9032   3.0362   3.4214   3.5999   4.3784   4.4022

          k = 0.4524 0.5224 0.1551 (  8416 PWs)   bands (ev):

   -33.8902 -33.8880 -16.9318 -16.8246 -15.1856 -15.1394 -15.0185 -14.8941
   -14.8872 -14.8183 -13.6786 -13.5338 -13.4632 -13.3719  -2.9168  -2.7801
    -1.4851  -1.3347  -1.1500  -1.1290  -0.7236  -0.5617   2.1882   2.3472
     2.6044   2.7102   2.9134   3.0165   3.4980   3.6044   4.3712   4.5179

          k = 0.6787-0.3918-0.2326 (  8441 PWs)   bands (ev):

   -33.8905 -33.8878 -16.9578 -16.7899 -15.2488 -15.1623 -14.9455 -14.8976
   -14.8788 -14.8007 -13.6745 -13.6188 -13.3918 -13.3764  -3.0036  -2.7628
    -1.4948  -1.2746  -1.1867  -1.0787  -0.7605  -0.6081   2.2360   2.4644
     2.7134   2.7631   2.8574   3.0388   3.3877   3.6350   4.2726   4.5151

          k = 0.0000 0.0000 0.4652 (  8474 PWs)   bands (ev):

   -33.8914 -33.8872 -16.8825 -16.8449 -15.1118 -15.1118 -15.0295 -15.0295
   -14.8696 -14.8526 -13.5701 -13.5701 -13.4243 -13.4243  -3.1196  -3.0501
    -1.2706  -1.2706  -1.2199  -1.2199  -0.9208  -0.4914   2.6030   2.6030
     2.6461   2.6461   3.2795   3.2795   3.5664   3.5664   4.1693   4.3083

          k = 0.9049 0.5224 0.1551 (  8433 PWs)   bands (ev):

   -33.8897 -33.8888 -16.8770 -16.8634 -15.1790 -15.0913 -15.0300 -14.9386
   -14.8836 -14.8597 -13.5927 -13.5088 -13.5013 -13.4038  -3.0456  -2.9876
    -1.3406  -1.2420  -1.2284  -1.1901  -0.7404  -0.6443   2.5151   2.5631
     2.6683   2.7183   3.0408   3.2648   3.4358   3.5290   4.2716   4.3331

     highest occupied level (ev):     4.5340

!    total energy              =    -367.40883653 Ry
     Harris-Foulkes estimate   =    -367.40883653 Ry
     estimated scf accuracy    <          3.9E-09 Ry

     The total energy is the sum of the following terms:

     one-electron contribution =    -143.86616731 Ry
     hartree contribution      =     101.47529564 Ry
     xc contribution           =     -75.21058218 Ry
     ewald contribution        =    -249.80738268 Ry

     convergence has been achieved in   8 iterations

     Forces acting on atoms (cartesian axes, Ry/au):

     atom    1 type  1   force =    -0.00000000   -0.00000000    0.00000000
     atom    2 type  1   force =    -0.00000000   -0.00000000    0.00000000
     atom    3 type  2   force =     0.00000000   -0.00000000    0.00000000
     atom    4 type  2   force =     0.00000000   -0.00000000    0.00000000
     atom    5 type  3   force =     0.00670278   -0.01160956   -0.00000000
     atom    6 type  3   force =    -0.01340557    0.00000000   -0.00000000
     atom    7 type  3   force =     0.00670278    0.01160956    0.00000000
     atom    8 type  3   force =     0.01340557    0.00000000   -0.00000000
     atom    9 type  3   force =    -0.00670278   -0.01160956   -0.00000000
     atom   10 type  3   force =    -0.00670278    0.01160956    0.00000000

     Total force =     0.032837     Total SCF correction =     0.000131


     Computing stress (Cartesian axis) and pressure

          total   stress  (Ry/bohr**3)                   (kbar)     P=  -15.04
  -0.00024334  -0.00000000  -0.00000000        -35.80     -0.00     -0.00
   0.00000000  -0.00024334  -0.00000000          0.00    -35.80     -0.00
  -0.00000000  -0.00000000   0.00017994         -0.00     -0.00     26.47


     number of scf cycles    =   2
     number of bfgs steps    =   1

     energy   old            =    -367.3569519026 Ry
     energy   new            =    -367.4088365263 Ry

     CASE: energy  _new < energy  _old

     new trust radius        =       0.0121742790 bohr
     new conv_thr            =       0.0000000013 Ry


ATOMIC_POSITIONS (crystal)
Ca       0.500000000   0.500000000   0.500000000
Ca       0.000000000   0.000000000   0.000000000
C        0.250000000   0.250000000   0.250000000
C        0.750000000   0.750000000   0.750000000
O        0.495028070   1.004971930   0.250000000
O        1.004971930   0.250000000   0.495028070
O        0.250000000   0.495028070   1.004971930
O       -0.004971930   0.750000000   0.504971930
O        0.750000000   0.504971930  -0.004971930
O        0.504971930  -0.004971930   0.750000000



     Writing output data file CCOrand1.save/
     NEW-OLD atomic charge density approx. for the potential

     Check: negative core charge=   -0.000003

     total cpu time spent up to now is      161.4 secs

     Self-consistent Calculation

     iteration #  1     ecut=    70.00 Ry     beta= 0.70
     CG style diagonalization
     c_bands:  1 eigenvalues not converged
     ethr =  1.00E-06,  avg # of iterations =  5.4

     total cpu time spent up to now is      171.7 secs

     total energy              =    -367.40898901 Ry
     Harris-Foulkes estimate   =    -367.40938865 Ry
     estimated scf accuracy    <       0.00054117 Ry

     iteration #  2     ecut=    70.00 Ry     beta= 0.70
     CG style diagonalization
     ethr =  8.46E-07,  avg # of iterations =  4.0

     total cpu time spent up to now is      179.3 secs

     total energy              =    -367.40915318 Ry
     Harris-Foulkes estimate   =    -367.40928897 Ry
     estimated scf accuracy    <       0.00024290 Ry

     iteration #  3     ecut=    70.00 Ry     beta= 0.70
     CG style diagonalization
     ethr =  3.80E-07,  avg # of iterations =  3.6

     total cpu time spent up to now is      186.1 secs

     total energy              =    -367.40921101 Ry
     Harris-Foulkes estimate   =    -367.40921250 Ry
     estimated scf accuracy    <       0.00000356 Ry

     iteration #  4     ecut=    70.00 Ry     beta= 0.70
     CG style diagonalization
     ethr =  5.57E-09,  avg # of iterations =  4.4

     total cpu time spent up to now is      194.4 secs

     total energy              =    -367.40921424 Ry
     Harris-Foulkes estimate   =    -367.40921565 Ry
     estimated scf accuracy    <       0.00000368 Ry

     iteration #  5     ecut=    70.00 Ry     beta= 0.70
     CG style diagonalization
     ethr =  5.57E-09,  avg # of iterations =  3.5

     total cpu time spent up to now is      201.1 secs

     total energy              =    -367.40921456 Ry
     Harris-Foulkes estimate   =    -367.40921468 Ry
     estimated scf accuracy    <       0.00000024 Ry

     iteration #  6     ecut=    70.00 Ry     beta= 0.70
     CG style diagonalization
     ethr =  3.71E-10,  avg # of iterations =  3.9

     total cpu time spent up to now is      208.5 secs

     total energy              =    -367.40921462 Ry
     Harris-Foulkes estimate   =    -367.40921462 Ry
     estimated scf accuracy    <       0.00000001 Ry

     iteration #  7     ecut=    70.00 Ry     beta= 0.70
     CG style diagonalization
     ethr =  2.07E-11,  avg # of iterations =  4.0

     total cpu time spent up to now is      216.0 secs

     total energy              =    -367.40921462 Ry
     Harris-Foulkes estimate   =    -367.40921463 Ry
     estimated scf accuracy    <          6.7E-09 Ry

     iteration #  8     ecut=    70.00 Ry     beta= 0.70
     CG style diagonalization
     ethr =  1.05E-11,  avg # of iterations =  3.9

     total cpu time spent up to now is      223.3 secs

     End of self-consistent calculation

          k = 0.0000 0.0000 0.0000 (  8415 PWs)   bands (ev):

   -33.8752 -33.8615 -16.8374 -16.7198 -15.1724 -15.1724 -14.8923 -14.8923
   -14.8784 -14.8138 -13.7222 -13.7222 -13.2333 -13.2333  -3.1464  -2.8931
    -1.4723  -1.3267  -1.3267  -1.1594  -1.1594  -0.0354   2.5467   2.5467
     2.7062   2.7062   2.9935   2.9935   3.9276   3.9276   4.0131   4.4870

          k =-0.2262-0.1306 0.0775 (  8427 PWs)   bands (ev):

   -33.8738 -33.8627 -16.8598 -16.7065 -15.1685 -15.0923 -14.9932 -14.9150
   -14.8509 -14.8481 -13.6673 -13.5736 -13.3544 -13.2681  -3.0314  -2.9281
    -1.4179  -1.2987  -1.2250  -1.1617  -1.1442  -0.1855   2.5293   2.5694
     2.6970   2.7223   2.8879   2.9220   3.7545   3.7728   4.2280   4.4253

          k =-0.4524-0.2612 0.1551 (  8422 PWs)   bands (ev):

   -33.8703 -33.8660 -16.8414 -16.7482 -15.1237 -15.0772 -15.0635 -14.9995
   -14.8228 -14.7728 -13.5577 -13.4693 -13.4626 -13.3716  -2.9121  -2.8895
    -1.4337  -1.3227  -1.1665  -1.1251  -0.8136  -0.4477   2.3395   2.4175
     2.5578   2.5984   3.0514   3.1143   3.5234   3.5281   4.3808   4.4084

          k =-0.2262 0.1306 0.1551 (  8435 PWs)   bands (ev):

   -33.8736 -33.8630 -16.8654 -16.7027 -15.1430 -15.1273 -14.9218 -14.9214
   -14.8821 -14.8798 -13.6159 -13.5964 -13.3378 -13.3038  -3.0194  -2.9559
    -1.3631  -1.3077  -1.2813  -1.1231  -1.1153  -0.2177   2.5243   2.5531
     2.7008   2.7362   2.8489   3.0161   3.6269   3.8463   4.2287   4.3959

          k =-0.4524 0.0000 0.2326 (  8431 PWs)   bands (ev):

   -33.8712 -33.8652 -16.8656 -16.7213 -15.1733 -15.0986 -14.9924 -14.9363
   -14.8626 -14.7919 -13.5968 -13.5265 -13.3978 -13.3441  -2.9524  -2.8937
    -1.3944  -1.3012  -1.2494  -1.0792  -0.8789  -0.3992   2.3367   2.5082
     2.5760   2.6671   2.9018   3.1294   3.4220   3.6936   4.3532   4.4068

          k = 0.4524 0.5224-0.0775 (  8420 PWs)   bands (ev):

   -33.8685 -33.8677 -16.8223 -16.7799 -15.1430 -15.0980 -15.0319 -14.9391
   -14.8274 -14.7973 -13.5897 -13.5167 -13.4111 -13.3572  -2.9017  -2.8480
    -1.4538  -1.3113  -1.1903  -1.0873  -0.6410  -0.5532   2.2418   2.3077
     2.5628   2.6409   2.9799   3.0588   3.5188   3.5592   4.3988   4.4502

          k = 0.2262 0.3918 0.0000 (  8441 PWs)   bands (ev):

   -33.8719 -33.8645 -16.8786 -16.6998 -15.1793 -15.1092 -15.0199 -14.9029
   -14.8793 -14.7721 -13.5958 -13.5589 -13.3642 -13.3478  -2.9515  -2.8776
    -1.4638  -1.2292  -1.1949  -1.1259  -0.9832  -0.3453   2.3184   2.5658
     2.5667   2.6167   2.8644   3.1199   3.5453   3.6798   4.3607   4.4212

          k =-0.4524 0.2612 0.3101 (  8435 PWs)   bands (ev):

   -33.8708 -33.8654 -16.9091 -16.6737 -15.2302 -15.1892 -14.8909 -14.8866
   -14.8675 -14.7572 -13.6768 -13.5561 -13.3538 -13.3180  -3.0311  -2.7704
    -1.4709  -1.2739  -1.2058  -1.0032  -0.8369  -0.4867   2.2146   2.4953
     2.6360   2.7622   2.8580   3.0726   3.3507   3.7246   4.2324   4.5032

          k = 0.4524 0.7837 0.0000 (  8422 PWs)   bands (ev):

   -33.8695 -33.8667 -16.8710 -16.7320 -15.1859 -15.1357 -14.9228 -14.9211
   -14.8657 -14.7852 -13.6569 -13.5181 -13.3911 -13.3276  -2.9595  -2.7879
    -1.4081  -1.3678  -1.2279  -1.0065  -0.6777  -0.5275   2.1657   2.3509
     2.7036   2.7239   2.8841   2.8927   3.4731   3.6519   4.3150   4.5061

          k = 0.0000 0.0000 0.2326 (  8456 PWs)   bands (ev):

   -33.8739 -33.8628 -16.8291 -16.7338 -15.1526 -15.1526 -14.9293 -14.9293
   -14.8684 -14.8164 -13.6654 -13.6654 -13.2732 -13.2732  -3.1507  -2.9590
    -1.3060  -1.3060  -1.2924  -1.1712  -1.1712  -0.1395   2.5635   2.5635
     2.6851   2.6851   3.0692   3.0692   3.8221   3.8221   4.0450   4.4219

          k =-0.2262-0.1306 0.3101 (  8446 PWs)   bands (ev):

   -33.8720 -33.8646 -16.8312 -16.7462 -15.1674 -15.0659 -15.0440 -14.8916
   -14.8611 -14.8320 -13.6352 -13.5169 -13.4104 -13.2948  -3.0604  -2.9642
    -1.3112  -1.3026  -1.2110  -1.1872  -0.9949  -0.3180   2.5426   2.5750
     2.6301   2.7677   2.8411   3.1703   3.5468   3.6995   4.2224   4.3769

          k = 0.6787 0.3918 0.0000 (  8435 PWs)   bands (ev):

   -33.8686 -33.8677 -16.8241 -16.7732 -15.1774 -15.0788 -15.0248 -14.9455
   -14.8217 -14.7910 -13.5566 -13.5457 -13.4231 -13.3481  -2.9765  -2.8392
    -1.4475  -1.2643  -1.1867  -1.1332  -0.6666  -0.5675   2.3095   2.4384
     2.5575   2.6704   2.9624   3.2912   3.3105   3.5406   4.3230   4.4375

          k = 0.4524 0.2612 0.0775 (  8432 PWs)   bands (ev):

   -33.8711 -33.8652 -16.8919 -16.6887 -15.1831 -15.1667 -14.9700 -14.9305
   -14.8526 -14.7462 -13.6403 -13.4986 -13.4040 -13.3373  -2.9844  -2.8085
    -1.4923  -1.2456  -1.1364  -1.1230  -0.8956  -0.4238   2.2503   2.4751
     2.5536   2.6966   2.8811   3.2627   3.3604   3.6712   4.3002   4.4713

          k =-0.2262 0.1306 0.3876 (  8437 PWs)   bands (ev):

   -33.8713 -33.8653 -16.8450 -16.7353 -15.1696 -15.0541 -14.9996 -14.9271
   -14.8634 -14.8593 -13.5738 -13.5155 -13.3929 -13.3606  -3.0243  -3.0236
    -1.3415  -1.2500  -1.2430  -1.1137  -0.9361  -0.4026   2.5027   2.5977
     2.6364   2.7195   2.9907   3.2239   3.3573   3.7310   4.2505   4.3120

          k = 0.6787 0.6531 0.0775 (  8435 PWs)   bands (ev):

   -33.8693 -33.8670 -16.8277 -16.7728 -15.1471 -15.1076 -14.9501 -14.9255
   -14.8746 -14.8383 -13.5659 -13.5157 -13.4117 -13.3697  -2.9475  -2.9257
    -1.3556  -1.3442  -1.2076  -1.0845  -0.7083  -0.5374   2.3596   2.4113
     2.6881   2.7662   2.8986   3.0312   3.4159   3.5948   4.3492   4.3737

          k = 0.4524 0.5224 0.1551 (  8416 PWs)   bands (ev):

   -33.8692 -33.8670 -16.8574 -16.7454 -15.1688 -15.1225 -14.9994 -14.8747
   -14.8665 -14.7921 -13.6410 -13.4945 -13.4217 -13.3293  -2.9438  -2.8044
    -1.4672  -1.3144  -1.1298  -1.1109  -0.6830  -0.5188   2.1855   2.3432
     2.6020   2.7102   2.9089   3.0117   3.4934   3.5988   4.3428   4.4898

          k = 0.6787-0.3918-0.2326 (  8441 PWs)   bands (ev):

   -33.8695 -33.8667 -16.8847 -16.7085 -15.2334 -15.1453 -14.9264 -14.8787
   -14.8595 -14.7721 -13.6369 -13.5805 -13.3491 -13.3341  -3.0302  -2.7856
    -1.4799  -1.2542  -1.1649  -1.0612  -0.7200  -0.5654   2.2334   2.4583
     2.7104   2.7650   2.8548   3.0338   3.3817   3.6309   4.2433   4.4861

          k = 0.0000 0.0000 0.4652 (  8474 PWs)   bands (ev):

   -33.8705 -33.8662 -16.8043 -16.7679 -15.0956 -15.0956 -15.0122 -15.0122
   -14.8463 -14.8266 -13.5305 -13.5305 -13.3826 -13.3826  -3.1388  -3.0719
    -1.2571  -1.2571  -1.2059  -1.2059  -0.8791  -0.4428   2.6011   2.6011
     2.6442   2.6442   3.2767   3.2767   3.5635   3.5635   4.1370   4.2770

          k = 0.9049 0.5224 0.1551 (  8433 PWs)   bands (ev):

   -33.8687 -33.8678 -16.8006 -16.7854 -15.1629 -15.0738 -15.0125 -14.9201
   -14.8613 -14.8345 -13.5534 -13.4679 -13.4612 -13.3621  -3.0673  -3.0095
    -1.3262  -1.2264  -1.2118  -1.1740  -0.6985  -0.5994   2.5123   2.5606
     2.6674   2.7169   3.0370   3.2605   3.4321   3.5251   4.2412   4.3026

     highest occupied level (ev):     4.5061

!    total energy              =    -367.40921462 Ry
     Harris-Foulkes estimate   =    -367.40921462 Ry
     estimated scf accuracy    <          3.7E-10 Ry

     The total energy is the sum of the following terms:

     one-electron contribution =    -142.93402091 Ry
     hartree contribution      =     101.01572739 Ry
     xc contribution           =     -75.16411902 Ry
     ewald contribution        =    -250.32680209 Ry

     convergence has been achieved in   8 iterations

     Forces acting on atoms (cartesian axes, Ry/au):

     atom    1 type  1   force =     0.00000000   -0.00000000    0.00000000
     atom    2 type  1   force =    -0.00000000   -0.00000000    0.00000000
     atom    3 type  2   force =    -0.00000000    0.00000000    0.00000000
     atom    4 type  2   force =     0.00000000   -0.00000000   -0.00000000
     atom    5 type  3   force =    -0.00148122    0.00256554    0.00000000
     atom    6 type  3   force =     0.00296243   -0.00000000    0.00000000
     atom    7 type  3   force =    -0.00148122   -0.00256554   -0.00000000
     atom    8 type  3   force =    -0.00296243    0.00000000   -0.00000000
     atom    9 type  3   force =     0.00148122    0.00256554    0.00000000
     atom   10 type  3   force =     0.00148122   -0.00256554   -0.00000000

     Total force =     0.007256     Total SCF correction =     0.000022


     Computing stress (Cartesian axis) and pressure

          total   stress  (Ry/bohr**3)                   (kbar)     P=  -26.39
  -0.00036463  -0.00000000   0.00000000        -53.64     -0.00      0.00
  -0.00000000  -0.00036463  -0.00000000         -0.00    -53.64     -0.00
   0.00000000  -0.00000000   0.00019097          0.00     -0.00     28.09


     number of scf cycles    =   3
     number of bfgs steps    =   2

     energy   old            =    -367.4088365263 Ry
     energy   new            =    -367.4092146231 Ry

     CASE: energy  _new < energy  _old

     new trust radius        =       0.0022034137 bohr
     new conv_thr            =       0.0000000003 Ry


ATOMIC_POSITIONS (crystal)
Ca       0.500000000   0.500000000   0.500000000
Ca      -0.000000000  -0.000000000   0.000000000
C        0.250000000   0.250000000   0.250000000
C        0.750000000   0.750000000   0.750000000
O        0.494808614   1.005191386   0.250000000
O        1.005191386   0.250000000   0.494808614
O        0.250000000   0.494808614   1.005191386
O       -0.005191386   0.750000000   0.505191386
O        0.750000000   0.505191386  -0.005191386
O        0.505191386  -0.005191386   0.750000000



     Writing output data file CCOrand1.save/
     NEW-OLD atomic charge density approx. for the potential

     Check: negative core charge=   -0.000003

     total cpu time spent up to now is      224.1 secs

     Self-consistent Calculation

     iteration #  1     ecut=    70.00 Ry     beta= 0.70
     CG style diagonalization
     ethr =  1.00E-06,  avg # of iterations =  3.0

     Threshold (ethr) on eigenvalues was too large:
     Diagonalizing with lowered threshold

     CG style diagonalization
     c_bands:  1 eigenvalues not converged
     ethr =  2.08E-08,  avg # of iterations =  4.3

     total cpu time spent up to now is      237.9 secs

     total energy              =    -367.40922734 Ry
     Harris-Foulkes estimate   =    -367.40924046 Ry
     estimated scf accuracy    <       0.00001778 Ry

     iteration #  2     ecut=    70.00 Ry     beta= 0.70
     CG style diagonalization
     ethr =  2.78E-08,  avg # of iterations =  4.1

     total cpu time spent up to now is      245.6 secs

     total energy              =    -367.40923261 Ry
     Harris-Foulkes estimate   =    -367.40923724 Ry
     estimated scf accuracy    <       0.00000834 Ry

     iteration #  3     ecut=    70.00 Ry     beta= 0.70
     CG style diagonalization
     ethr =  1.30E-08,  avg # of iterations =  3.6

     total cpu time spent up to now is      252.3 secs

     total energy              =    -367.40923452 Ry
     Harris-Foulkes estimate   =    -367.40923459 Ry
     estimated scf accuracy    <       0.00000016 Ry

     iteration #  4     ecut=    70.00 Ry     beta= 0.70
     CG style diagonalization
     ethr =  2.44E-10,  avg # of iterations =  4.3

     total cpu time spent up to now is      260.4 secs

     total energy              =    -367.40923464 Ry
     Harris-Foulkes estimate   =    -367.40923469 Ry
     estimated scf accuracy    <       0.00000011 Ry

     iteration #  5     ecut=    70.00 Ry     beta= 0.70
     CG style diagonalization
     ethr =  1.68E-10,  avg # of iterations =  3.5

     total cpu time spent up to now is      267.1 secs

     total energy              =    -367.40923466 Ry
     Harris-Foulkes estimate   =    -367.40923466 Ry
     estimated scf accuracy    <          4.9E-09 Ry

     iteration #  6     ecut=    70.00 Ry     beta= 0.70
     CG style diagonalization
     ethr =  7.60E-12,  avg # of iterations =  4.1

     total cpu time spent up to now is      274.7 secs

     total energy              =    -367.40923466 Ry
     Harris-Foulkes estimate   =    -367.40923466 Ry
     estimated scf accuracy    <          5.1E-10 Ry

     iteration #  7     ecut=    70.00 Ry     beta= 0.70
     CG style diagonalization
     ethr =  7.94E-13,  avg # of iterations =  4.0

     total cpu time spent up to now is      282.2 secs

     End of self-consistent calculation

          k = 0.0000 0.0000 0.0000 (  8415 PWs)   bands (ev):

   -33.8790 -33.8653 -16.8518 -16.7334 -15.1752 -15.1752 -14.8957 -14.8957
   -14.8820 -14.8190 -13.7288 -13.7288 -13.2412 -13.2412  -3.1432  -2.8878
    -1.4794  -1.3290  -1.3290  -1.1619  -1.1619  -0.0460   2.5470   2.5470
     2.7070   2.7070   2.9935   2.9935   3.9280   3.9280   4.0192   4.4923

          k =-0.2262-0.1306 0.0775 (  8427 PWs)   bands (ev):

   -33.8776 -33.8666 -16.8737 -16.7205 -15.1712 -15.0953 -14.9968 -14.9185
   -14.8553 -14.8519 -13.6741 -13.5806 -13.3621 -13.2759  -3.0280  -2.9229
    -1.4234  -1.3013  -1.2281  -1.1643  -1.1479  -0.1952   2.5294   2.5695
     2.6977   2.7225   2.8886   2.9228   3.7555   3.7735   4.2331   4.4306

          k =-0.4524-0.2612 0.1551 (  8422 PWs)   bands (ev):

   -33.8741 -33.8699 -16.8550 -16.7623 -15.1267 -15.0803 -15.0666 -15.0028
   -14.8272 -14.7774 -13.5648 -13.4766 -13.4698 -13.3790  -2.9072  -2.8853
    -1.4374  -1.3260  -1.1695  -1.1282  -0.8204  -0.4560   2.3400   2.4178
     2.5581   2.5984   3.0525   3.1149   3.5244   3.5291   4.3860   4.4134

          k =-0.2262 0.1306 0.1551 (  8435 PWs)   bands (ev):

   -33.8774 -33.8668 -16.8792 -16.7168 -15.1459 -15.1302 -14.9257 -14.9257
   -14.8856 -14.8834 -13.6227 -13.6034 -13.3454 -13.3115  -3.0160  -2.9508
    -1.3681  -1.3112  -1.2840  -1.1270  -1.1180  -0.2274   2.5246   2.5531
     2.7020   2.7362   2.8492   3.0168   3.6277   3.8469   4.2341   4.4012

          k =-0.4524 0.0000 0.2326 (  8431 PWs)   bands (ev):

   -33.8750 -33.8690 -16.8791 -16.7355 -15.1762 -15.1018 -14.9960 -14.9397
   -14.8666 -14.7963 -13.6037 -13.5337 -13.4053 -13.3517  -2.9474  -2.8898
    -1.3977  -1.3043  -1.2532  -1.0820  -0.8851  -0.4079   2.3372   2.5087
     2.5762   2.6674   2.9026   3.1303   3.4228   3.6945   4.3584   4.4119

          k = 0.4524 0.5224-0.0775 (  8420 PWs)   bands (ev):

   -33.8724 -33.8715 -16.8360 -16.7938 -15.1461 -15.1012 -15.0350 -14.9425
   -14.8316 -14.8019 -13.5966 -13.5238 -13.4185 -13.3647  -2.8969  -2.8435
    -1.4573  -1.3148  -1.1937  -1.0903  -0.6487  -0.5608   2.2422   2.3082
     2.5632   2.6410   2.9808   3.0597   3.5197   3.5602   4.4038   4.4552

          k = 0.2262 0.3918 0.0000 (  8441 PWs)   bands (ev):

   -33.8757 -33.8683 -16.8921 -16.7142 -15.1822 -15.1121 -15.0231 -14.9069
   -14.8829 -14.7767 -13.6028 -13.5659 -13.3717 -13.3553  -2.9463  -2.8738
    -1.4676  -1.2326  -1.1978  -1.1287  -0.9895  -0.3541   2.3188   2.5660
     2.5666   2.6173   2.8656   3.1205   3.5460   3.6808   4.3659   4.4263

          k =-0.4524 0.2612 0.3101 (  8435 PWs)   bands (ev):

   -33.8747 -33.8693 -16.9221 -16.6886 -15.2330 -15.1922 -14.8944 -14.8903
   -14.8709 -14.7623 -13.6835 -13.5630 -13.3614 -13.3257  -3.0259  -2.7665
    -1.4732  -1.2775  -1.2107  -1.0060  -0.8433  -0.4950   2.2151   2.4965
     2.6365   2.7619   2.8587   3.0734   3.3515   3.7254   4.2379   4.5083

          k = 0.4524 0.7837 0.0000 (  8422 PWs)   bands (ev):

   -33.8733 -33.8705 -16.8843 -16.7463 -15.1887 -15.1390 -14.9268 -14.9244
   -14.8692 -14.7899 -13.6636 -13.5251 -13.3987 -13.3353  -2.9545  -2.7836
    -1.4106  -1.3715  -1.2326  -1.0095  -0.6846  -0.5356   2.1663   2.3518
     2.7038   2.7241   2.8850   2.8937   3.4740   3.6528   4.3202   4.5111

          k = 0.0000 0.0000 0.2326 (  8456 PWs)   bands (ev):

   -33.8777 -33.8666 -16.8433 -16.7475 -15.1554 -15.1554 -14.9326 -14.9326
   -14.8722 -14.8215 -13.6721 -13.6721 -13.2810 -13.2810  -3.1475  -2.9542
    -1.3084  -1.3084  -1.2994  -1.1738  -1.1738  -0.1496   2.5639   2.5639
     2.6857   2.6857   3.0695   3.0695   3.8226   3.8226   4.0510   4.4273

          k =-0.2262-0.1306 0.3101 (  8446 PWs)   bands (ev):

   -33.8758 -33.8684 -16.8452 -16.7600 -15.1703 -15.0691 -15.0470 -14.8953
   -14.8648 -14.8367 -13.6421 -13.5240 -13.4178 -13.3024  -3.0569  -2.9595
    -1.3155  -1.3051  -1.2137  -1.1898  -1.0007  -0.3272   2.5431   2.5751
     2.6303   2.7679   2.8419   3.1711   3.5475   3.7004   4.2277   4.3823

          k = 0.6787 0.3918 0.0000 (  8435 PWs)   bands (ev):

   -33.8724 -33.8715 -16.8375 -16.7873 -15.1803 -15.0819 -15.0280 -14.9488
   -14.8257 -14.7959 -13.5636 -13.5527 -13.4306 -13.3556  -2.9720  -2.8347
    -1.4505  -1.2683  -1.1898  -1.1362  -0.6736  -0.5755   2.3099   2.4391
     2.5578   2.6703   2.9630   3.2921   3.3114   3.5418   4.3280   4.4427

          k = 0.4524 0.2612 0.0775 (  8432 PWs)   bands (ev):

   -33.8749 -33.8690 -16.9052 -16.7034 -15.1860 -15.1696 -14.9733 -14.9341
   -14.8564 -14.7511 -13.6471 -13.5057 -13.4114 -13.3450  -2.9792  -2.8045
    -1.4956  -1.2490  -1.1400  -1.1259  -0.9022  -0.4321   2.2507   2.4755
     2.5543   2.6964   2.8821   3.2633   3.3612   3.6722   4.3055   4.4764

          k =-0.2262 0.1306 0.3876 (  8437 PWs)   bands (ev):

   -33.8751 -33.8691 -16.8587 -16.7493 -15.1724 -15.0572 -15.0032 -14.9306
   -14.8674 -14.8635 -13.5808 -13.5226 -13.4004 -13.3681  -3.0200  -3.0198
    -1.3441  -1.2535  -1.2457  -1.1164  -0.9426  -0.4114   2.5031   2.5986
     2.6365   2.7196   2.9914   3.2247   3.3580   3.7316   4.2560   4.3174

          k = 0.6787 0.6531 0.0775 (  8435 PWs)   bands (ev):

   -33.8731 -33.8708 -16.8413 -16.7867 -15.1501 -15.1108 -14.9539 -14.9296
   -14.8782 -14.8423 -13.5728 -13.5228 -13.4192 -13.3773  -2.9429  -2.9216
    -1.3587  -1.3471  -1.2115  -1.0876  -0.7153  -0.5454   2.3602   2.4120
     2.6883   2.7662   2.8995   3.0321   3.4170   3.5957   4.3545   4.3788

          k = 0.4524 0.5224 0.1551 (  8416 PWs)   bands (ev):

   -33.8731 -33.8708 -16.8707 -16.7596 -15.1718 -15.1256 -15.0028 -14.8782
   -14.8703 -14.7969 -13.6477 -13.5016 -13.4292 -13.3370  -2.9389  -2.8000
    -1.4704  -1.3180  -1.1334  -1.1142  -0.6903  -0.5265   2.1860   2.3439
     2.6024   2.7102   2.9097   3.0126   3.4943   3.5998   4.3479   4.4948

          k = 0.6787-0.3918-0.2326 (  8441 PWs)   bands (ev):

   -33.8734 -33.8706 -16.8978 -16.7231 -15.2362 -15.1484 -14.9298 -14.8821
   -14.8630 -14.7773 -13.6437 -13.5873 -13.3567 -13.3417  -3.0254  -2.7815
    -1.4826  -1.2578  -1.1688  -1.0644  -0.7273  -0.5731   2.2339   2.4594
     2.7109   2.7647   2.8553   3.0347   3.3828   3.6317   4.2486   4.4913

          k = 0.0000 0.0000 0.4652 (  8474 PWs)   bands (ev):

   -33.8743 -33.8700 -16.8183 -16.7817 -15.0986 -15.0986 -15.0153 -15.0153
   -14.8505 -14.8313 -13.5376 -13.5376 -13.3901 -13.3901  -3.1353  -3.0679
    -1.2595  -1.2595  -1.2084  -1.2084  -0.8866  -0.4515   2.6015   2.6015
     2.6445   2.6445   3.2772   3.2772   3.5640   3.5640   4.1428   4.2826

          k = 0.9049 0.5224 0.1551 (  8433 PWs)   bands (ev):

   -33.8725 -33.8716 -16.8143 -16.7994 -15.1658 -15.0769 -15.0156 -14.9235
   -14.8653 -14.8391 -13.5604 -13.4752 -13.4684 -13.3695  -3.0634  -3.0056
    -1.3288  -1.2292  -1.2148  -1.1769  -0.7061  -0.6075   2.5129   2.5611
     2.6676   2.7171   3.0377   3.2613   3.4328   3.5258   4.2467   4.3081

     highest occupied level (ev):     4.5111

!    total energy              =    -367.40923466 Ry
     Harris-Foulkes estimate   =    -367.40923466 Ry
     estimated scf accuracy    <          9.8E-11 Ry

     The total energy is the sum of the following terms:

     one-electron contribution =    -143.10110790 Ry
     hartree contribution      =     101.09801916 Ry
     xc contribution           =     -75.17244810 Ry
     ewald contribution        =    -250.23369783 Ry

     convergence has been achieved in   7 iterations

     Forces acting on atoms (cartesian axes, Ry/au):

     atom    1 type  1   force =     0.00000000    0.00000000   -0.00000000
     atom    2 type  1   force =     0.00000000   -0.00000000    0.00000000
     atom    3 type  2   force =    -0.00000000    0.00000000   -0.00000000
     atom    4 type  2   force =     0.00000000    0.00000000    0.00000000
     atom    5 type  3   force =    -0.00002587    0.00004480    0.00000000
     atom    6 type  3   force =     0.00005173   -0.00000000    0.00000000
     atom    7 type  3   force =    -0.00002587   -0.00004480   -0.00000000
     atom    8 type  3   force =    -0.00005173    0.00000000   -0.00000000
     atom    9 type  3   force =     0.00002587    0.00004480    0.00000000
     atom   10 type  3   force =     0.00002587   -0.00004480   -0.00000000

     Total force =     0.000127     Total SCF correction =     0.000028
     SCF correction compared to forces is large: reduce conv_thr to get better values


     Computing stress (Cartesian axis) and pressure

          total   stress  (Ry/bohr**3)                   (kbar)     P=  -24.39
  -0.00034311   0.00000000   0.00000000        -50.47      0.00      0.00
  -0.00000000  -0.00034311  -0.00000000         -0.00    -50.47     -0.00
  -0.00000000  -0.00000000   0.00018885         -0.00     -0.00     27.78


     bfgs converged in   4 scf cycles and   3 bfgs steps
     (criteria: energy <  1.0E-04 Ry, force <  1.0E-03 Ry/Bohr)

     End of BFGS Geometry Optimization

     Final energy   =    -367.4092346584 Ry
Begin final coordinates

ATOMIC_POSITIONS (crystal)
Ca       0.500000000   0.500000000   0.500000000
Ca      -0.000000000  -0.000000000   0.000000000
C        0.250000000   0.250000000   0.250000000
C        0.750000000   0.750000000   0.750000000
O        0.494808614   1.005191386   0.250000000
O        1.005191386   0.250000000   0.494808614
O        0.250000000   0.494808614   1.005191386
O       -0.005191386   0.750000000   0.505191386
O        0.750000000   0.505191386  -0.005191386
O        0.505191386  -0.005191386   0.750000000
End final coordinates



     Writing output data file CCOrand1.save/
 
     init_run     :      2.95s CPU      5.49s WALL (       1 calls)
     electrons    :    245.71s CPU    270.87s WALL (       4 calls)
     update_pot   :      0.22s CPU      0.25s WALL (       3 calls)
     forces       :      0.93s CPU      1.12s WALL (       4 calls)
     stress       :      1.61s CPU      1.84s WALL (       4 calls)

     Called by init_run:
     wfcinit      :      2.63s CPU      3.74s WALL (       1 calls)
     potinit      :      0.06s CPU      0.20s WALL (       1 calls)
     hinit0       :      0.16s CPU      0.88s WALL (       1 calls)

     Called by electrons:
     c_bands      :    229.80s CPU    253.46s WALL (      33 calls)
     sum_band     :     14.82s CPU     15.78s WALL (      33 calls)
     v_of_rho     :      0.67s CPU      0.79s WALL (      36 calls)
     newd         :      0.30s CPU      0.54s WALL (      36 calls)
     mix_rho      :      0.09s CPU      0.16s WALL (      33 calls)

     Called by c_bands:
     init_us_2    :      0.35s CPU      0.41s WALL (    1425 calls)
     ccgdiagg     :    185.75s CPU    200.18s WALL (     639 calls)
     wfcrot       :     46.25s CPU     55.80s WALL (     563 calls)

     Called by sum_band:
     sum_band:bec :      0.17s CPU      0.20s WALL (     627 calls)
     addusdens    :      0.22s CPU      0.32s WALL (      33 calls)

     Called by *cgdiagg:
     h_psi        :    155.29s CPU    165.16s WALL (   69802 calls)
     s_psi        :      8.49s CPU      9.53s WALL (  139041 calls)
     cdiaghg      :     16.54s CPU     24.07s WALL (     563 calls)

     Called by h_psi:
     h_psi:pot    :    153.32s CPU    162.94s WALL (   69802 calls)
     h_psi:calbec :     17.71s CPU     19.42s WALL (   69802 calls)
     vloc_psi     :    127.06s CPU    134.30s WALL (   69802 calls)
     add_vuspsi   :      6.19s CPU      6.84s WALL (   69802 calls)
     hs_1psi      :    138.80s CPU    147.79s WALL (   69239 calls)
     s_1psi       :     17.19s CPU     19.06s WALL (   69239 calls)

     General routines
     calbec       :     26.95s CPU     30.09s WALL (  140048 calls)
     fft          :      0.76s CPU      1.18s WALL (     500 calls)
     ffts         :      0.05s CPU      0.05s WALL (      33 calls)
     fftw         :    133.59s CPU    140.99s WALL (  195334 calls)
 
     Parallel routines
     fft_scatt_xy :      6.66s CPU      7.03s WALL (  195867 calls)
     fft_scatt_yz :    105.62s CPU    111.93s WALL (  195867 calls)
 
     PWSCF        :   4m14.78s CPU   4m47.93s WALL

 
   This run was terminated on:  14: 0: 2   4May2022            

=------------------------------------------------------------------------------=
   JOB DONE.
=------------------------------------------------------------------------------=
TACC:  Shutdown complete. Exiting. 
