TACC:  Starting up job 9581705 
TACC:  Starting parallel tasks... 

     Program PHONON v.6.4.1 starts on  4May2022 at 14: 0: 9 

     This program is part of the open-source Quantum ESPRESSO suite
     for quantum simulation of materials; please cite
         "P. Giannozzi et al., J. Phys.:Condens. Matter 21 395502 (2009);
         "P. Giannozzi et al., J. Phys.:Condens. Matter 29 465901 (2017);
          URL http://www.quantum-espresso.org", 
     in publications or presentations arising from this work. More details at
     http://www.quantum-espresso.org/quote

     Parallel version (MPI & OpenMP), running on     120 processor cores
     Number of MPI processes:               120
     Threads/MPI process:                     1

     MPI processes distributed on     2 nodes
     R & G space division:  proc/nbgrp/npool/nimage =     120

     Reading data from directory:
     ./CCOrand1.save/

     IMPORTANT: XC functional enforced from input :
     Exchange-correlation      = PBE ( 1  4  3  4 0 0)
     Any further DFT definition will be discarded
     Please, verify this is what you really want

 
     Parallelization info
     --------------------
     sticks:   dense  smooth     PW     G-vecs:    dense   smooth      PW
     Min          19      19      5                  560      560      84
     Max          20      20      6                  565      565      89
     Sum        2289    2289    651                67553    67553   10323
 

     Check: negative core charge=   -0.000003

     Calculation of q =    0.0000000   0.0000000   0.0000000

     Phonons of CaCO3                                                           

     bravais-lattice index     =            5
     lattice parameter (alat)  =      11.3568  a.u.
     unit-cell volume          =     852.5943 (a.u.)^3
     number of atoms/cell      =           10
     number of atomic types    =            3
     kinetic-energy cut-off    =      70.0000  Ry
     charge density cut-off    =     280.0000  Ry
     convergence threshold     =      1.0E-16
     beta                      =       0.7000
     number of iterations used =            4
     Exchange-correlation      = PBE ( 1  4  3  4 0 0)


     celldm(1)=   11.35680  celldm(2)=    0.00000  celldm(3)=    0.00000
     celldm(4)=    0.60920  celldm(5)=    0.00000  celldm(6)=    0.00000

     crystal axes: (cart. coord. in units of alat)
               a(1) = (  0.4420 -0.2552  0.8599 )  
               a(2) = (  0.0000  0.5104  0.8599 )  
               a(3) = ( -0.4420 -0.2552  0.8599 )  

     reciprocal axes: (cart. coord. in units 2 pi/alat)
               b(1) = (  1.1311 -0.6531  0.3876 )  
               b(2) = (  0.0000  1.3061  0.3876 )  
               b(3) = ( -1.1311 -0.6531  0.3876 )  


     Atoms inside the unit cell: 

     Cartesian axes

     site n.  atom      mass           positions (alat units)
        1     Ca  40.0780   tau(    1) = (    0.00000   -0.00000    1.28988  )
        2     Ca  40.0780   tau(    2) = (   -0.00000   -0.00000    0.00000  )
        3     C   12.0107   tau(    3) = (    0.00000   -0.00000    0.64494  )
        4     C   12.0107   tau(    4) = (    0.00000   -0.00000    1.93483  )
        5     O   15.9990   tau(    5) = (    0.10822    0.32299    1.50486  )
        6     O   15.9990   tau(    6) = (    0.22561   -0.25521    1.50486  )
        7     O   15.9990   tau(    7) = (   -0.33383   -0.06778    1.50486  )
        8     O   15.9990   tau(    8) = (   -0.22561    0.25521    1.07490  )
        9     O   15.9990   tau(    9) = (    0.33383    0.06778    1.07490  )
       10     O   15.9990   tau(   10) = (   -0.10822   -0.32299    1.07490  )

     Computing dynamical matrix for 
                    q = (   0.0000000   0.0000000   0.0000000 )
 
     13 Sym.Ops. (with q -> -q+G )


     G cutoff =  914.7665  (    563 G-vectors)     FFT grid: ( 64, 64, 64)
     number of k points=    19
                       cart. coord. in units 2pi/alat
        k(    1) = (   0.0000000   0.0000000   0.0000000), wk =   0.0160000
        k(    2) = (  -0.2262235  -0.1306102   0.0775264), wk =   0.0960000
        k(    3) = (  -0.4524470  -0.2612204   0.1550527), wk =   0.0960000
        k(    4) = (  -0.2262235   0.1306102   0.1550527), wk =   0.0960000
        k(    5) = (  -0.4524470   0.0000000   0.2325791), wk =   0.1920000
        k(    6) = (   0.4524470   0.5224408  -0.0775264), wk =   0.1920000
        k(    7) = (   0.2262235   0.3918306   0.0000000), wk =   0.0960000
        k(    8) = (  -0.4524470   0.2612204   0.3101055), wk =   0.0960000
        k(    9) = (   0.4524470   0.7836612   0.0000000), wk =   0.0960000
        k(   10) = (   0.0000000   0.0000000   0.2325791), wk =   0.0320000
        k(   11) = (  -0.2262235  -0.1306102   0.3101055), wk =   0.0960000
        k(   12) = (   0.6786705   0.3918306   0.0000000), wk =   0.0960000
        k(   13) = (   0.4524470   0.2612204   0.0775264), wk =   0.0960000
        k(   14) = (  -0.2262235   0.1306102   0.3876318), wk =   0.0960000
        k(   15) = (   0.6786705   0.6530510   0.0775264), wk =   0.1920000
        k(   16) = (   0.4524470   0.5224408   0.1550527), wk =   0.1920000
        k(   17) = (   0.6786705  -0.3918306  -0.2325791), wk =   0.0960000
        k(   18) = (   0.0000000   0.0000000   0.4651582), wk =   0.0320000
        k(   19) = (   0.9048940   0.5224408   0.1550527), wk =   0.0960000

     PseudoPot. # 1 for Ca read from file:
     ./Ca_PBE.UPF
     MD5 check sum: 403a4c14b9e4d4dfdc3024c9a3812218
     Pseudo is Ultrasoft + core correction, Zval = 10.0
     Generated by new atomic code, or converted to UPF format
     Using radial grid of  845 points,  6 beta functions with: 
                l(1) =   0
                l(2) =   0
                l(3) =   1
                l(4) =   1
                l(5) =   2
                l(6) =   2
     Q(r) pseudized with  8 coefficients,  rinner =    1.500   1.500   1.500
                                                       1.500   1.500

     PseudoPot. # 2 for C  read from file:
     ./C_PBE.UPF
     MD5 check sum: d1aef80898a10debaa0f26306b886e00
     Pseudo is Ultrasoft + core correction, Zval =  4.0
     Generated by new atomic code, or converted to UPF format
     Using radial grid of  721 points,  4 beta functions with: 
                l(1) =   0
                l(2) =   0
                l(3) =   1
                l(4) =   1
     Q(r) pseudized with  8 coefficients,  rinner =    1.100   1.100   1.100


     PseudoPot. # 3 for O  read from file:
     ./O_PBE.UPF
     MD5 check sum: 734c27235a0248c51dbae37a1fbe46ec
     Pseudo is Ultrasoft + core correction, Zval =  6.0
     Generated by new atomic code, or converted to UPF format
     Using radial grid of  737 points,  5 beta functions with: 
                l(1) =   0
                l(2) =   0
                l(3) =   1
                l(4) =   1
                l(5) =   2
     Q(r) pseudized with  8 coefficients,  rinner =    0.900   0.900   0.900
                                                       0.900   0.900

     Mode symmetry, D_3d (-3m)  point group:


     Electric field:
     Dielectric constant
     Born effective charges as d Force / d E


     Atomic displacements:
     There are  20 irreducible representations

     Representation     1      1 modes -A_1g L_1  To be done

     Representation     2      1 modes -A_2g L_2  To be done

     Representation     3      1 modes -A_2g L_2  To be done

     Representation     4      1 modes -A_2g L_2  To be done

     Representation     5      2 modes -E_g  L_3  To be done

     Representation     6      2 modes -E_g  L_3  To be done

     Representation     7      2 modes -E_g  L_3  To be done

     Representation     8      2 modes -E_g  L_3  To be done

     Representation     9      1 modes -A_1u L_1'  To be done

     Representation    10      1 modes -A_1u L_1'  To be done

     Representation    11      1 modes -A_2u L_2'  To be done

     Representation    12      1 modes -A_2u L_2'  To be done

     Representation    13      1 modes -A_2u L_2'  To be done

     Representation    14      1 modes -A_2u L_2'  To be done

     Representation    15      2 modes -E_u  L_3'  To be done

     Representation    16      2 modes -E_u  L_3'  To be done

     Representation    17      2 modes -E_u  L_3'  To be done

     Representation    18      2 modes -E_u  L_3'  To be done

     Representation    19      2 modes -E_u  L_3'  To be done

     Representation    20      2 modes -E_u  L_3'  To be done



     Alpha used in Ewald sum =   2.5000
     PHONON       :     22.47s CPU     28.50s WALL


     Electric Fields Calculation

      iter #   1 total cpu time :   133.9 secs   av.it.:   6.5
      thresh= 1.000E-02 alpha_mix =  0.700 |ddv_scf|^2 =  8.783E-09

      iter #   2 total cpu time :   184.8 secs   av.it.:  14.9
      thresh= 9.372E-06 alpha_mix =  0.700 |ddv_scf|^2 =  1.010E-08

      iter #   3 total cpu time :   233.1 secs   av.it.:  13.9
      thresh= 1.005E-05 alpha_mix =  0.700 |ddv_scf|^2 =  8.386E-10

      iter #   4 total cpu time :   281.2 secs   av.it.:  13.9
      thresh= 2.896E-06 alpha_mix =  0.700 |ddv_scf|^2 =  1.359E-11

      iter #   5 total cpu time :   328.7 secs   av.it.:  13.7
      thresh= 3.687E-07 alpha_mix =  0.700 |ddv_scf|^2 =  1.698E-12

      iter #   6 total cpu time :   377.0 secs   av.it.:  13.9
      thresh= 1.303E-07 alpha_mix =  0.700 |ddv_scf|^2 =  7.071E-14

      iter #   7 total cpu time :   424.8 secs   av.it.:  13.7
      thresh= 2.659E-08 alpha_mix =  0.700 |ddv_scf|^2 =  9.960E-16

      iter #   8 total cpu time :   472.7 secs   av.it.:  13.8
      thresh= 3.156E-09 alpha_mix =  0.700 |ddv_scf|^2 =  6.879E-17

     End of electric fields calculation

          Dielectric constant in cartesian axis 

          (       3.027038786      -0.000000000      -0.000000000 )
          (      -0.000000000       3.027038786       0.000000000 )
          (      -0.000000000       0.000000000       2.282130838 )

          Effective charges (d Force / dE) in cartesian axis

           atom      1   Ca 
      Ex  (        2.63792       -0.23026       -0.00000 )
      Ey  (        0.23026        2.63792       -0.00000 )
      Ez  (        0.00000       -0.00000        2.28145 )
           atom      2   Ca 
      Ex  (        2.63792        0.23026        0.00000 )
      Ey  (       -0.23026        2.63792       -0.00000 )
      Ez  (       -0.00000       -0.00000        2.28145 )
           atom      3   C  
      Ex  (        3.27667        0.00000        0.00000 )
      Ey  (       -0.00000        3.27667       -0.00000 )
      Ez  (        0.00000       -0.00000        0.23306 )
           atom      4   C  
      Ex  (        3.27667        0.00000        0.00000 )
      Ey  (        0.00000        3.27667       -0.00000 )
      Ez  (        0.00000       -0.00000        0.23306 )
           atom      5   O  
      Ex  (       -1.60133        0.64129       -0.17534 )
      Ey  (        0.64129       -2.34183       -0.10123 )
      Ez  (       -0.16197       -0.09352       -0.83851 )
           atom      6   O  
      Ex  (       -2.71208       -0.00000        0.00000 )
      Ey  (        0.00000       -1.23108        0.20246 )
      Ez  (       -0.00000        0.18703       -0.83851 )
           atom      7   O  
      Ex  (       -1.60133       -0.64129        0.17534 )
      Ey  (       -0.64129       -2.34183       -0.10123 )
      Ez  (        0.16197       -0.09352       -0.83851 )
           atom      8   O  
      Ex  (       -2.71208       -0.00000        0.00000 )
      Ey  (       -0.00000       -1.23108        0.20246 )
      Ez  (       -0.00000        0.18703       -0.83851 )
           atom      9   O  
      Ex  (       -1.60133       -0.64129        0.17534 )
      Ey  (       -0.64129       -2.34183       -0.10123 )
      Ez  (        0.16197       -0.09352       -0.83851 )
           atom     10   O  
      Ex  (       -1.60133        0.64129       -0.17534 )
      Ey  (        0.64129       -2.34183       -0.10123 )
      Ez  (       -0.16197       -0.09352       -0.83851 )


     Representation #  1 mode #   1

     Self-consistent Calculation

      iter #   1 total cpu time :   595.6 secs   av.it.:   5.9
      thresh= 1.000E-02 alpha_mix =  0.700 |ddv_scf|^2 =  6.258E-07

      iter #   2 total cpu time :   611.1 secs   av.it.:  12.4
      thresh= 7.911E-05 alpha_mix =  0.700 |ddv_scf|^2 =  3.488E-07

      iter #   3 total cpu time :   626.1 secs   av.it.:  11.8
      thresh= 5.906E-05 alpha_mix =  0.700 |ddv_scf|^2 =  2.743E-09

      iter #   4 total cpu time :   642.0 secs   av.it.:  12.7
      thresh= 5.237E-06 alpha_mix =  0.700 |ddv_scf|^2 =  2.976E-10

      iter #   5 total cpu time :   657.9 secs   av.it.:  12.7
      thresh= 1.725E-06 alpha_mix =  0.700 |ddv_scf|^2 =  1.961E-12

      iter #   6 total cpu time :   673.0 secs   av.it.:  11.8
      thresh= 1.400E-07 alpha_mix =  0.700 |ddv_scf|^2 =  1.178E-13

      iter #   7 total cpu time :   688.4 secs   av.it.:  11.8
      thresh= 3.433E-08 alpha_mix =  0.700 |ddv_scf|^2 =  3.273E-15

      iter #   8 total cpu time :   703.7 secs   av.it.:  11.8
      thresh= 5.721E-09 alpha_mix =  0.700 |ddv_scf|^2 =  1.586E-16

      iter #   9 total cpu time :   719.2 secs   av.it.:  12.0
      thresh= 1.259E-09 alpha_mix =  0.700 |ddv_scf|^2 =  1.412E-18

     End of self-consistent calculation

     Convergence has been achieved 


     Representation #  2 mode #   2

     Self-consistent Calculation

      iter #   1 total cpu time :   730.3 secs   av.it.:   5.8
      thresh= 1.000E-02 alpha_mix =  0.700 |ddv_scf|^2 =  2.197E-07

      iter #   2 total cpu time :   745.6 secs   av.it.:  11.8
      thresh= 4.687E-05 alpha_mix =  0.700 |ddv_scf|^2 =  2.844E-08

      iter #   3 total cpu time :   760.3 secs   av.it.:  11.5
      thresh= 1.686E-05 alpha_mix =  0.700 |ddv_scf|^2 =  4.229E-10

      iter #   4 total cpu time :   775.0 secs   av.it.:  11.6
      thresh= 2.056E-06 alpha_mix =  0.700 |ddv_scf|^2 =  1.980E-12

      iter #   5 total cpu time :   789.8 secs   av.it.:  11.6
      thresh= 1.407E-07 alpha_mix =  0.700 |ddv_scf|^2 =  9.194E-14

      iter #   6 total cpu time :   805.0 secs   av.it.:  11.8
      thresh= 3.032E-08 alpha_mix =  0.700 |ddv_scf|^2 =  4.672E-15

      iter #   7 total cpu time :   819.7 secs   av.it.:  11.5
      thresh= 6.835E-09 alpha_mix =  0.700 |ddv_scf|^2 =  2.340E-16

      iter #   8 total cpu time :   834.6 secs   av.it.:  11.7
      thresh= 1.530E-09 alpha_mix =  0.700 |ddv_scf|^2 =  1.642E-18

     End of self-consistent calculation

     Convergence has been achieved 


     Representation #  3 mode #   3

     Self-consistent Calculation

      iter #   1 total cpu time :   844.6 secs   av.it.:   4.8
      thresh= 1.000E-02 alpha_mix =  0.700 |ddv_scf|^2 =  8.891E-08

      iter #   2 total cpu time :   859.4 secs   av.it.:  11.7
      thresh= 2.982E-05 alpha_mix =  0.700 |ddv_scf|^2 =  2.162E-08

      iter #   3 total cpu time :   873.8 secs   av.it.:  11.0
      thresh= 1.470E-05 alpha_mix =  0.700 |ddv_scf|^2 =  1.411E-11

      iter #   4 total cpu time :   889.2 secs   av.it.:  12.1
      thresh= 3.757E-07 alpha_mix =  0.700 |ddv_scf|^2 =  1.003E-12

      iter #   5 total cpu time :   904.2 secs   av.it.:  11.8
      thresh= 1.001E-07 alpha_mix =  0.700 |ddv_scf|^2 =  3.102E-14

      iter #   6 total cpu time :   918.9 secs   av.it.:  11.7
      thresh= 1.761E-08 alpha_mix =  0.700 |ddv_scf|^2 =  7.071E-16

      iter #   7 total cpu time :   933.5 secs   av.it.:  11.1
      thresh= 2.659E-09 alpha_mix =  0.700 |ddv_scf|^2 =  1.519E-17

     End of self-consistent calculation

     Convergence has been achieved 


     Representation #  4 mode #   4

     Self-consistent Calculation

      iter #   1 total cpu time :   944.6 secs   av.it.:   5.9
      thresh= 1.000E-02 alpha_mix =  0.700 |ddv_scf|^2 =  8.886E-07

      iter #   2 total cpu time :   959.3 secs   av.it.:  11.7
      thresh= 9.427E-05 alpha_mix =  0.700 |ddv_scf|^2 =  2.235E-07

      iter #   3 total cpu time :   973.7 secs   av.it.:  11.1
      thresh= 4.728E-05 alpha_mix =  0.700 |ddv_scf|^2 =  1.312E-10

      iter #   4 total cpu time :   989.0 secs   av.it.:  11.9
      thresh= 1.145E-06 alpha_mix =  0.700 |ddv_scf|^2 =  5.951E-12

      iter #   5 total cpu time :  1003.9 secs   av.it.:  11.7
      thresh= 2.439E-07 alpha_mix =  0.700 |ddv_scf|^2 =  2.373E-13

      iter #   6 total cpu time :  1018.2 secs   av.it.:  10.9
      thresh= 4.871E-08 alpha_mix =  0.700 |ddv_scf|^2 =  3.544E-15

      iter #   7 total cpu time :  1032.7 secs   av.it.:  11.5
      thresh= 5.953E-09 alpha_mix =  0.700 |ddv_scf|^2 =  1.010E-16

      iter #   8 total cpu time :  1047.4 secs   av.it.:  11.4
      thresh= 1.005E-09 alpha_mix =  0.700 |ddv_scf|^2 =  3.587E-18

     End of self-consistent calculation

     Convergence has been achieved 


     Representation #  5 modes #   5  6

     Self-consistent Calculation

      iter #   1 total cpu time :  1068.7 secs   av.it.:   6.0
      thresh= 1.000E-02 alpha_mix =  0.700 |ddv_scf|^2 =  2.886E-08

      iter #   2 total cpu time :  1101.1 secs   av.it.:  13.8
      thresh= 1.699E-05 alpha_mix =  0.700 |ddv_scf|^2 =  4.207E-10

      iter #   3 total cpu time :  1134.3 secs   av.it.:  13.9
      thresh= 2.051E-06 alpha_mix =  0.700 |ddv_scf|^2 =  3.025E-10

      iter #   4 total cpu time :  1164.8 secs   av.it.:  12.8
      thresh= 1.739E-06 alpha_mix =  0.700 |ddv_scf|^2 =  3.051E-12

      iter #   5 total cpu time :  1196.0 secs   av.it.:  12.9
      thresh= 1.747E-07 alpha_mix =  0.700 |ddv_scf|^2 =  1.582E-13

      iter #   6 total cpu time :  1227.9 secs   av.it.:  13.5
      thresh= 3.977E-08 alpha_mix =  0.700 |ddv_scf|^2 =  3.148E-14

      iter #   7 total cpu time :  1258.3 secs   av.it.:  12.8
      thresh= 1.774E-08 alpha_mix =  0.700 |ddv_scf|^2 =  6.629E-16

      iter #   8 total cpu time :  1289.7 secs   av.it.:  12.9
      thresh= 2.575E-09 alpha_mix =  0.700 |ddv_scf|^2 =  3.300E-18

     End of self-consistent calculation

     Convergence has been achieved 


     Representation #  6 modes #   7  8

     Self-consistent Calculation

      iter #   1 total cpu time :  1309.3 secs   av.it.:   5.0
      thresh= 1.000E-02 alpha_mix =  0.700 |ddv_scf|^2 =  2.139E-08

      iter #   2 total cpu time :  1342.3 secs   av.it.:  13.8
      thresh= 1.462E-05 alpha_mix =  0.700 |ddv_scf|^2 =  3.310E-08

      iter #   3 total cpu time :  1373.3 secs   av.it.:  12.9
      thresh= 1.819E-05 alpha_mix =  0.700 |ddv_scf|^2 =  9.191E-10

      iter #   4 total cpu time :  1405.4 secs   av.it.:  12.8
      thresh= 3.032E-06 alpha_mix =  0.700 |ddv_scf|^2 =  8.104E-12

      iter #   5 total cpu time :  1438.7 secs   av.it.:  12.8
      thresh= 2.847E-07 alpha_mix =  0.700 |ddv_scf|^2 =  4.185E-14

      iter #   6 total cpu time :  1470.2 secs   av.it.:  13.2
      thresh= 2.046E-08 alpha_mix =  0.700 |ddv_scf|^2 =  2.569E-15

      iter #   7 total cpu time :  1502.8 secs   av.it.:  12.9
      thresh= 5.068E-09 alpha_mix =  0.700 |ddv_scf|^2 =  1.507E-17

     End of self-consistent calculation

     Convergence has been achieved 


     Representation #  7 modes #   9 10

     Self-consistent Calculation

      iter #   1 total cpu time :  1524.3 secs   av.it.:   6.0
      thresh= 1.000E-02 alpha_mix =  0.700 |ddv_scf|^2 =  6.800E-08

      iter #   2 total cpu time :  1555.7 secs   av.it.:  13.0
      thresh= 2.608E-05 alpha_mix =  0.700 |ddv_scf|^2 =  2.761E-09

      iter #   3 total cpu time :  1587.0 secs   av.it.:  12.9
      thresh= 5.255E-06 alpha_mix =  0.700 |ddv_scf|^2 =  8.418E-11

      iter #   4 total cpu time :  1618.4 secs   av.it.:  12.9
      thresh= 9.175E-07 alpha_mix =  0.700 |ddv_scf|^2 =  8.098E-12

      iter #   5 total cpu time :  1649.7 secs   av.it.:  12.9
      thresh= 2.846E-07 alpha_mix =  0.700 |ddv_scf|^2 =  2.159E-13

      iter #   6 total cpu time :  1680.3 secs   av.it.:  12.8
      thresh= 4.647E-08 alpha_mix =  0.700 |ddv_scf|^2 =  1.325E-14

      iter #   7 total cpu time :  1710.8 secs   av.it.:  12.8
      thresh= 1.151E-08 alpha_mix =  0.700 |ddv_scf|^2 =  2.431E-16

      iter #   8 total cpu time :  1742.8 secs   av.it.:  13.2
      thresh= 1.559E-09 alpha_mix =  0.700 |ddv_scf|^2 =  1.013E-17

     End of self-consistent calculation

     Convergence has been achieved 


     Representation #  8 modes #  11 12

     Self-consistent Calculation

      iter #   1 total cpu time :  1764.2 secs   av.it.:   6.0
      thresh= 1.000E-02 alpha_mix =  0.700 |ddv_scf|^2 =  3.886E-08

      iter #   2 total cpu time :  1796.7 secs   av.it.:  13.8
      thresh= 1.971E-05 alpha_mix =  0.700 |ddv_scf|^2 =  1.663E-08

      iter #   3 total cpu time :  1828.7 secs   av.it.:  13.5
      thresh= 1.289E-05 alpha_mix =  0.700 |ddv_scf|^2 =  5.703E-09

      iter #   4 total cpu time :  1859.8 secs   av.it.:  12.8
      thresh= 7.552E-06 alpha_mix =  0.700 |ddv_scf|^2 =  9.454E-12

      iter #   5 total cpu time :  1890.9 secs   av.it.:  12.9
      thresh= 3.075E-07 alpha_mix =  0.700 |ddv_scf|^2 =  2.671E-13

      iter #   6 total cpu time :  1922.5 secs   av.it.:  12.9
      thresh= 5.169E-08 alpha_mix =  0.700 |ddv_scf|^2 =  9.724E-15

      iter #   7 total cpu time :  1953.5 secs   av.it.:  12.9
      thresh= 9.861E-09 alpha_mix =  0.700 |ddv_scf|^2 =  1.412E-16

      iter #   8 total cpu time :  1985.4 secs   av.it.:  13.2
      thresh= 1.188E-09 alpha_mix =  0.700 |ddv_scf|^2 =  3.536E-18

     End of self-consistent calculation

     Convergence has been achieved 


     Representation #  9 mode #  13

     Self-consistent Calculation

      iter #   1 total cpu time :  1996.9 secs   av.it.:   5.9
      thresh= 1.000E-02 alpha_mix =  0.700 |ddv_scf|^2 =  6.418E-07

      iter #   2 total cpu time :  2012.2 secs   av.it.:  11.9
      thresh= 8.012E-05 alpha_mix =  0.700 |ddv_scf|^2 =  1.669E-07

      iter #   3 total cpu time :  2027.6 secs   av.it.:  12.2
      thresh= 4.085E-05 alpha_mix =  0.700 |ddv_scf|^2 =  9.167E-09

      iter #   4 total cpu time :  2043.0 secs   av.it.:  11.8
      thresh= 9.575E-06 alpha_mix =  0.700 |ddv_scf|^2 =  1.124E-10

      iter #   5 total cpu time :  2058.7 secs   av.it.:  12.7
      thresh= 1.060E-06 alpha_mix =  0.700 |ddv_scf|^2 =  1.629E-11

      iter #   6 total cpu time :  2074.0 secs   av.it.:  12.1
      thresh= 4.037E-07 alpha_mix =  0.700 |ddv_scf|^2 =  2.042E-12

      iter #   7 total cpu time :  2088.9 secs   av.it.:  11.7
      thresh= 1.429E-07 alpha_mix =  0.700 |ddv_scf|^2 =  5.344E-14

      iter #   8 total cpu time :  2104.1 secs   av.it.:  11.8
      thresh= 2.312E-08 alpha_mix =  0.700 |ddv_scf|^2 =  5.770E-16

      iter #   9 total cpu time :  2119.9 secs   av.it.:  12.7
      thresh= 2.402E-09 alpha_mix =  0.700 |ddv_scf|^2 =  6.301E-17

     End of self-consistent calculation

     Convergence has been achieved 


     Representation # 10 mode #  14

     Self-consistent Calculation

      iter #   1 total cpu time :  2131.4 secs   av.it.:   6.0
      thresh= 1.000E-02 alpha_mix =  0.700 |ddv_scf|^2 =  9.738E-07

      iter #   2 total cpu time :  2146.9 secs   av.it.:  12.2
      thresh= 9.868E-05 alpha_mix =  0.700 |ddv_scf|^2 =  6.997E-07

      iter #   3 total cpu time :  2161.8 secs   av.it.:  11.7
      thresh= 8.365E-05 alpha_mix =  0.700 |ddv_scf|^2 =  5.419E-09

      iter #   4 total cpu time :  2177.1 secs   av.it.:  11.9
      thresh= 7.361E-06 alpha_mix =  0.700 |ddv_scf|^2 =  1.398E-10

      iter #   5 total cpu time :  2192.3 secs   av.it.:  11.8
      thresh= 1.182E-06 alpha_mix =  0.700 |ddv_scf|^2 =  1.974E-12

      iter #   6 total cpu time :  2207.4 secs   av.it.:  11.8
      thresh= 1.405E-07 alpha_mix =  0.700 |ddv_scf|^2 =  6.173E-14

      iter #   7 total cpu time :  2223.3 secs   av.it.:  12.7
      thresh= 2.485E-08 alpha_mix =  0.700 |ddv_scf|^2 =  6.179E-15

      iter #   8 total cpu time :  2239.0 secs   av.it.:  12.7
      thresh= 7.860E-09 alpha_mix =  0.700 |ddv_scf|^2 =  4.286E-16

      iter #   9 total cpu time :  2254.2 secs   av.it.:  11.9
      thresh= 2.070E-09 alpha_mix =  0.700 |ddv_scf|^2 =  1.181E-17

     End of self-consistent calculation

     Convergence has been achieved 


     Representation # 11 mode #  15

     Self-consistent Calculation

      iter #   1 total cpu time :  2265.1 secs   av.it.:   5.1
      thresh= 1.000E-02 alpha_mix =  0.700 |ddv_scf|^2 =  8.373E-08

      iter #   2 total cpu time :  2280.7 secs   av.it.:  12.4
      thresh= 2.894E-05 alpha_mix =  0.700 |ddv_scf|^2 =  7.852E-10

      iter #   3 total cpu time :  2296.3 secs   av.it.:  12.6
      thresh= 2.802E-06 alpha_mix =  0.700 |ddv_scf|^2 =  4.790E-11

      iter #   4 total cpu time :  2311.5 secs   av.it.:  11.8
      thresh= 6.921E-07 alpha_mix =  0.700 |ddv_scf|^2 =  1.664E-12

      iter #   5 total cpu time :  2326.6 secs   av.it.:  11.8
      thresh= 1.290E-07 alpha_mix =  0.700 |ddv_scf|^2 =  9.229E-14

      iter #   6 total cpu time :  2341.3 secs   av.it.:  11.6
      thresh= 3.038E-08 alpha_mix =  0.700 |ddv_scf|^2 =  9.049E-16

      iter #   7 total cpu time :  2356.2 secs   av.it.:  11.8
      thresh= 3.008E-09 alpha_mix =  0.700 |ddv_scf|^2 =  5.544E-17

     End of self-consistent calculation

     Convergence has been achieved 


     Representation # 12 mode #  16

     Self-consistent Calculation

      iter #   1 total cpu time :  2366.9 secs   av.it.:   4.0
      thresh= 1.000E-02 alpha_mix =  0.700 |ddv_scf|^2 =  1.888E-08

      iter #   2 total cpu time :  2384.1 secs   av.it.:  11.8
      thresh= 1.374E-05 alpha_mix =  0.700 |ddv_scf|^2 =  3.730E-10

      iter #   3 total cpu time :  2400.7 secs   av.it.:  12.2
      thresh= 1.931E-06 alpha_mix =  0.700 |ddv_scf|^2 =  8.968E-12

      iter #   4 total cpu time :  2418.1 secs   av.it.:  11.8
      thresh= 2.995E-07 alpha_mix =  0.700 |ddv_scf|^2 =  5.469E-13

      iter #   5 total cpu time :  2434.0 secs   av.it.:  11.8
      thresh= 7.396E-08 alpha_mix =  0.700 |ddv_scf|^2 =  1.976E-14

      iter #   6 total cpu time :  2448.9 secs   av.it.:  10.9
      thresh= 1.406E-08 alpha_mix =  0.700 |ddv_scf|^2 =  2.263E-16

      iter #   7 total cpu time :  2463.5 secs   av.it.:  11.3
      thresh= 1.504E-09 alpha_mix =  0.700 |ddv_scf|^2 =  1.122E-17

     End of self-consistent calculation

     Convergence has been achieved 


     Representation # 13 mode #  17

     Self-consistent Calculation

      iter #   1 total cpu time :  2474.6 secs   av.it.:   5.9
      thresh= 1.000E-02 alpha_mix =  0.700 |ddv_scf|^2 =  2.915E-07

      iter #   2 total cpu time :  2489.8 secs   av.it.:  11.8
      thresh= 5.399E-05 alpha_mix =  0.700 |ddv_scf|^2 =  3.548E-08

      iter #   3 total cpu time :  2504.9 secs   av.it.:  11.8
      thresh= 1.884E-05 alpha_mix =  0.700 |ddv_scf|^2 =  1.596E-10

      iter #   4 total cpu time :  2519.6 secs   av.it.:  11.7
      thresh= 1.263E-06 alpha_mix =  0.700 |ddv_scf|^2 =  1.151E-12

      iter #   5 total cpu time :  2534.8 secs   av.it.:  11.8
      thresh= 1.073E-07 alpha_mix =  0.700 |ddv_scf|^2 =  1.071E-13

      iter #   6 total cpu time :  2549.6 secs   av.it.:  11.8
      thresh= 3.273E-08 alpha_mix =  0.700 |ddv_scf|^2 =  9.049E-16

      iter #   7 total cpu time :  2564.5 secs   av.it.:  11.8
      thresh= 3.008E-09 alpha_mix =  0.700 |ddv_scf|^2 =  6.915E-17

     End of self-consistent calculation

     Convergence has been achieved 


     Representation # 14 mode #  18

     Self-consistent Calculation

      iter #   1 total cpu time :  2575.7 secs   av.it.:   5.9
      thresh= 1.000E-02 alpha_mix =  0.700 |ddv_scf|^2 =  1.490E-07

      iter #   2 total cpu time :  2591.1 secs   av.it.:  12.4
      thresh= 3.860E-05 alpha_mix =  0.700 |ddv_scf|^2 =  5.864E-09

      iter #   3 total cpu time :  2606.5 secs   av.it.:  12.1
      thresh= 7.657E-06 alpha_mix =  0.700 |ddv_scf|^2 =  6.861E-11

      iter #   4 total cpu time :  2621.6 secs   av.it.:  11.8
      thresh= 8.283E-07 alpha_mix =  0.700 |ddv_scf|^2 =  2.437E-12

      iter #   5 total cpu time :  2636.2 secs   av.it.:  11.7
      thresh= 1.561E-07 alpha_mix =  0.700 |ddv_scf|^2 =  1.092E-13

      iter #   6 total cpu time :  2650.6 secs   av.it.:  11.0
      thresh= 3.305E-08 alpha_mix =  0.700 |ddv_scf|^2 =  6.283E-16

      iter #   7 total cpu time :  2665.7 secs   av.it.:  11.8
      thresh= 2.507E-09 alpha_mix =  0.700 |ddv_scf|^2 =  2.789E-17

     End of self-consistent calculation

     Convergence has been achieved 


     Representation # 15 modes #  19 20

     Self-consistent Calculation

      iter #   1 total cpu time :  2685.1 secs   av.it.:   5.0
      thresh= 1.000E-02 alpha_mix =  0.700 |ddv_scf|^2 =  1.575E-08

      iter #   2 total cpu time :  2718.5 secs   av.it.:  13.9
      thresh= 1.255E-05 alpha_mix =  0.700 |ddv_scf|^2 =  2.557E-08

      iter #   3 total cpu time :  2749.8 secs   av.it.:  12.9
      thresh= 1.599E-05 alpha_mix =  0.700 |ddv_scf|^2 =  8.222E-10

      iter #   4 total cpu time :  2780.6 secs   av.it.:  12.8
      thresh= 2.867E-06 alpha_mix =  0.700 |ddv_scf|^2 =  2.439E-11

      iter #   5 total cpu time :  2812.0 secs   av.it.:  12.9
      thresh= 4.939E-07 alpha_mix =  0.700 |ddv_scf|^2 =  4.562E-13

      iter #   6 total cpu time :  2843.3 secs   av.it.:  12.9
      thresh= 6.754E-08 alpha_mix =  0.700 |ddv_scf|^2 =  3.648E-15

      iter #   7 total cpu time :  2873.0 secs   av.it.:  12.7
      thresh= 6.040E-09 alpha_mix =  0.700 |ddv_scf|^2 =  8.627E-16

      iter #   8 total cpu time :  2904.1 secs   av.it.:  12.9
      thresh= 2.937E-09 alpha_mix =  0.700 |ddv_scf|^2 =  1.092E-18

     End of self-consistent calculation

     Convergence has been achieved 


     Representation # 16 modes #  21 22

     Self-consistent Calculation

      iter #   1 total cpu time :  2925.2 secs   av.it.:   6.0
      thresh= 1.000E-02 alpha_mix =  0.700 |ddv_scf|^2 =  6.134E-08

      iter #   2 total cpu time :  2956.9 secs   av.it.:  13.1
      thresh= 2.477E-05 alpha_mix =  0.700 |ddv_scf|^2 =  6.702E-09

      iter #   3 total cpu time :  2988.5 secs   av.it.:  13.4
      thresh= 8.186E-06 alpha_mix =  0.700 |ddv_scf|^2 =  8.493E-10

      iter #   4 total cpu time :  3020.3 secs   av.it.:  13.7
      thresh= 2.914E-06 alpha_mix =  0.700 |ddv_scf|^2 =  1.081E-10

      iter #   5 total cpu time :  3052.1 secs   av.it.:  13.7
      thresh= 1.039E-06 alpha_mix =  0.700 |ddv_scf|^2 =  1.436E-12

      iter #   6 total cpu time :  3084.0 secs   av.it.:  13.8
      thresh= 1.198E-07 alpha_mix =  0.700 |ddv_scf|^2 =  2.447E-14

      iter #   7 total cpu time :  3114.7 secs   av.it.:  12.9
      thresh= 1.564E-08 alpha_mix =  0.700 |ddv_scf|^2 =  1.666E-15

      iter #   8 total cpu time :  3146.4 secs   av.it.:  13.3
      thresh= 4.082E-09 alpha_mix =  0.700 |ddv_scf|^2 =  1.309E-17

     End of self-consistent calculation

     Convergence has been achieved 


     Representation # 17 modes #  23 24

     Self-consistent Calculation

      iter #   1 total cpu time :  3167.7 secs   av.it.:   6.0
      thresh= 1.000E-02 alpha_mix =  0.700 |ddv_scf|^2 =  1.376E-07

      iter #   2 total cpu time :  3199.5 secs   av.it.:  13.8
      thresh= 3.710E-05 alpha_mix =  0.700 |ddv_scf|^2 =  5.145E-08

      iter #   3 total cpu time :  3231.4 secs   av.it.:  13.7
      thresh= 2.268E-05 alpha_mix =  0.700 |ddv_scf|^2 =  8.109E-09

      iter #   4 total cpu time :  3262.7 secs   av.it.:  12.9
      thresh= 9.005E-06 alpha_mix =  0.700 |ddv_scf|^2 =  2.031E-11

      iter #   5 total cpu time :  3294.4 secs   av.it.:  13.6
      thresh= 4.507E-07 alpha_mix =  0.700 |ddv_scf|^2 =  1.169E-12

      iter #   6 total cpu time :  3326.4 secs   av.it.:  13.8
      thresh= 1.081E-07 alpha_mix =  0.700 |ddv_scf|^2 =  4.764E-14

      iter #   7 total cpu time :  3356.7 secs   av.it.:  12.8
      thresh= 2.183E-08 alpha_mix =  0.700 |ddv_scf|^2 =  3.758E-15

      iter #   8 total cpu time :  3388.7 secs   av.it.:  13.8
      thresh= 6.131E-09 alpha_mix =  0.700 |ddv_scf|^2 =  1.624E-16

      iter #   9 total cpu time :  3420.4 secs   av.it.:  13.3
      thresh= 1.274E-09 alpha_mix =  0.700 |ddv_scf|^2 =  7.188E-18

     End of self-consistent calculation

     Convergence has been achieved 


     Representation # 18 modes #  25 26

     Self-consistent Calculation

      iter #   1 total cpu time :  3441.9 secs   av.it.:   6.0
      thresh= 1.000E-02 alpha_mix =  0.700 |ddv_scf|^2 =  3.071E-08

      iter #   2 total cpu time :  3474.2 secs   av.it.:  13.8
      thresh= 1.752E-05 alpha_mix =  0.700 |ddv_scf|^2 =  1.543E-08

      iter #   3 total cpu time :  3506.5 secs   av.it.:  13.8
      thresh= 1.242E-05 alpha_mix =  0.700 |ddv_scf|^2 =  4.596E-09

      iter #   4 total cpu time :  3537.5 secs   av.it.:  12.9
      thresh= 6.779E-06 alpha_mix =  0.700 |ddv_scf|^2 =  1.520E-11

      iter #   5 total cpu time :  3569.8 secs   av.it.:  13.8
      thresh= 3.899E-07 alpha_mix =  0.700 |ddv_scf|^2 =  2.349E-13

      iter #   6 total cpu time :  3602.0 secs   av.it.:  13.8
      thresh= 4.847E-08 alpha_mix =  0.700 |ddv_scf|^2 =  2.093E-14

      iter #   7 total cpu time :  3633.6 secs   av.it.:  13.1
      thresh= 1.447E-08 alpha_mix =  0.700 |ddv_scf|^2 =  1.276E-15

      iter #   8 total cpu time :  3665.5 secs   av.it.:  13.8
      thresh= 3.573E-09 alpha_mix =  0.700 |ddv_scf|^2 =  2.613E-17

     End of self-consistent calculation

     Convergence has been achieved 


     Representation # 19 modes #  27 28

     Self-consistent Calculation

      iter #   1 total cpu time :  3686.9 secs   av.it.:   6.0
      thresh= 1.000E-02 alpha_mix =  0.700 |ddv_scf|^2 =  5.198E-08

      iter #   2 total cpu time :  3718.9 secs   av.it.:  13.8
      thresh= 2.280E-05 alpha_mix =  0.700 |ddv_scf|^2 =  5.724E-09

      iter #   3 total cpu time :  3750.7 secs   av.it.:  13.6
      thresh= 7.566E-06 alpha_mix =  0.700 |ddv_scf|^2 =  5.614E-10

      iter #   4 total cpu time :  3782.7 secs   av.it.:  13.8
      thresh= 2.369E-06 alpha_mix =  0.700 |ddv_scf|^2 =  1.244E-10

      iter #   5 total cpu time :  3814.5 secs   av.it.:  13.2
      thresh= 1.115E-06 alpha_mix =  0.700 |ddv_scf|^2 =  5.400E-13

      iter #   6 total cpu time :  3846.7 secs   av.it.:  13.8
      thresh= 7.349E-08 alpha_mix =  0.700 |ddv_scf|^2 =  2.427E-14

      iter #   7 total cpu time :  3879.1 secs   av.it.:  13.8
      thresh= 1.558E-08 alpha_mix =  0.700 |ddv_scf|^2 =  1.375E-15

      iter #   8 total cpu time :  3914.5 secs   av.it.:  13.8
      thresh= 3.707E-09 alpha_mix =  0.700 |ddv_scf|^2 =  5.562E-17

     End of self-consistent calculation

     Convergence has been achieved 


     Representation # 20 modes #  29 30

     Self-consistent Calculation

      iter #   1 total cpu time :  3936.4 secs   av.it.:   5.9
      thresh= 1.000E-02 alpha_mix =  0.700 |ddv_scf|^2 =  9.337E-08

      iter #   2 total cpu time :  3968.7 secs   av.it.:  13.8
      thresh= 3.056E-05 alpha_mix =  0.700 |ddv_scf|^2 =  3.928E-08

      iter #   3 total cpu time :  4001.1 secs   av.it.:  13.8
      thresh= 1.982E-05 alpha_mix =  0.700 |ddv_scf|^2 =  8.841E-09

      iter #   4 total cpu time :  4032.6 secs   av.it.:  13.1
      thresh= 9.403E-06 alpha_mix =  0.700 |ddv_scf|^2 =  2.054E-11

      iter #   5 total cpu time :  4063.7 secs   av.it.:  12.9
      thresh= 4.532E-07 alpha_mix =  0.700 |ddv_scf|^2 =  9.882E-13

      iter #   6 total cpu time :  4095.3 secs   av.it.:  13.4
      thresh= 9.941E-08 alpha_mix =  0.700 |ddv_scf|^2 =  5.366E-14

      iter #   7 total cpu time :  4125.6 secs   av.it.:  12.8
      thresh= 2.317E-08 alpha_mix =  0.700 |ddv_scf|^2 =  3.944E-15

      iter #   8 total cpu time :  4157.3 secs   av.it.:  13.4
      thresh= 6.280E-09 alpha_mix =  0.700 |ddv_scf|^2 =  1.325E-16

      iter #   9 total cpu time :  4189.3 secs   av.it.:  13.8
      thresh= 1.151E-09 alpha_mix =  0.700 |ddv_scf|^2 =  2.577E-18

     End of self-consistent calculation

     Convergence has been achieved 
 
     Number of q in the star =    1
     List of q in the star:
          1   0.000000000   0.000000000   0.000000000

          Dielectric constant in cartesian axis 

          (       3.027038786      -0.000000000      -0.000000000 )
          (      -0.000000000       3.027038786       0.000000000 )
          (      -0.000000000       0.000000000       2.282130838 )

          Effective charges (d Force / dE) in cartesian axis

           atom      1   Ca 
      Ex  (        2.63792       -0.23026       -0.00000 )
      Ey  (        0.23026        2.63792       -0.00000 )
      Ez  (        0.00000       -0.00000        2.28145 )
           atom      2   Ca 
      Ex  (        2.63792        0.23026        0.00000 )
      Ey  (       -0.23026        2.63792       -0.00000 )
      Ez  (       -0.00000       -0.00000        2.28145 )
           atom      3   C  
      Ex  (        3.27667        0.00000        0.00000 )
      Ey  (       -0.00000        3.27667       -0.00000 )
      Ez  (        0.00000       -0.00000        0.23306 )
           atom      4   C  
      Ex  (        3.27667        0.00000        0.00000 )
      Ey  (        0.00000        3.27667       -0.00000 )
      Ez  (        0.00000       -0.00000        0.23306 )
           atom      5   O  
      Ex  (       -1.60133        0.64129       -0.17534 )
      Ey  (        0.64129       -2.34183       -0.10123 )
      Ez  (       -0.16197       -0.09352       -0.83851 )
           atom      6   O  
      Ex  (       -2.71208       -0.00000        0.00000 )
      Ey  (        0.00000       -1.23108        0.20246 )
      Ez  (       -0.00000        0.18703       -0.83851 )
           atom      7   O  
      Ex  (       -1.60133       -0.64129        0.17534 )
      Ey  (       -0.64129       -2.34183       -0.10123 )
      Ez  (        0.16197       -0.09352       -0.83851 )
           atom      8   O  
      Ex  (       -2.71208       -0.00000        0.00000 )
      Ey  (       -0.00000       -1.23108        0.20246 )
      Ez  (       -0.00000        0.18703       -0.83851 )
           atom      9   O  
      Ex  (       -1.60133       -0.64129        0.17534 )
      Ey  (       -0.64129       -2.34183       -0.10123 )
      Ez  (        0.16197       -0.09352       -0.83851 )
           atom     10   O  
      Ex  (       -1.60133        0.64129       -0.17534 )
      Ey  (        0.64129       -2.34183       -0.10123 )
      Ez  (       -0.16197       -0.09352       -0.83851 )

     Diagonalizing the dynamical matrix

     q = (    0.000000000   0.000000000   0.000000000 ) 

 **************************************************************************
     freq (    1) =       0.233399 [THz] =       7.785339 [cm-1]
     freq (    2) =       0.250436 [THz] =       8.353644 [cm-1]
     freq (    3) =       0.250436 [THz] =       8.353644 [cm-1]
     freq (    4) =       3.429377 [THz] =     114.391691 [cm-1]
     freq (    5) =       4.587075 [THz] =     153.008340 [cm-1]
     freq (    6) =       4.587075 [THz] =     153.008340 [cm-1]
     freq (    7) =       5.065008 [THz] =     168.950470 [cm-1]
     freq (    8) =       5.065008 [THz] =     168.950470 [cm-1]
     freq (    9) =       5.919412 [THz] =     197.450327 [cm-1]
     freq (   10) =       5.919412 [THz] =     197.450327 [cm-1]
     freq (   11) =       6.520112 [THz] =     217.487537 [cm-1]
     freq (   12) =       6.915731 [THz] =     230.683947 [cm-1]
     freq (   13) =       6.957311 [THz] =     232.070914 [cm-1]
     freq (   14) =       7.146965 [THz] =     238.397100 [cm-1]
     freq (   15) =       7.146965 [THz] =     238.397100 [cm-1]
     freq (   16) =       8.197677 [THz] =     273.445066 [cm-1]
     freq (   17) =       8.197677 [THz] =     273.445066 [cm-1]
     freq (   18) =       8.317760 [THz] =     277.450619 [cm-1]
     freq (   19) =      20.186983 [THz] =     673.365270 [cm-1]
     freq (   20) =      20.186983 [THz] =     673.365270 [cm-1]
     freq (   21) =      20.232914 [THz] =     674.897367 [cm-1]
     freq (   22) =      20.232914 [THz] =     674.897367 [cm-1]
     freq (   23) =      24.676541 [THz] =     823.120805 [cm-1]
     freq (   24) =      24.723927 [THz] =     824.701431 [cm-1]
     freq (   25) =      31.400946 [THz] =    1047.422823 [cm-1]
     freq (   26) =      31.421536 [THz] =    1048.109628 [cm-1]
     freq (   27) =      40.384251 [THz] =    1347.073610 [cm-1]
     freq (   28) =      40.384251 [THz] =    1347.073610 [cm-1]
     freq (   29) =      41.572613 [THz] =    1386.713092 [cm-1]
     freq (   30) =      41.572613 [THz] =    1386.713092 [cm-1]
 **************************************************************************

     Mode symmetry, D_3d (-3m)  point group:

     freq (  1 -  1) =          7.8  [cm-1]   --> A_2u L_2'       I  
     freq (  2 -  3) =          8.4  [cm-1]   --> E_u  L_3'       I  
     freq (  4 -  4) =        114.4  [cm-1]   --> A_2u L_2'       I  
     freq (  5 -  6) =        153.0  [cm-1]   --> E_u  L_3'       I  
     freq (  7 -  8) =        169.0  [cm-1]   --> E_g  L_3        R  
     freq (  9 - 10) =        197.5  [cm-1]   --> E_u  L_3'       I  
     freq ( 11 - 11) =        217.5  [cm-1]   --> A_2g L_2           
     freq ( 12 - 12) =        230.7  [cm-1]   --> A_1u L_1'          
     freq ( 13 - 13) =        232.1  [cm-1]   --> A_2u L_2'       I  
     freq ( 14 - 15) =        238.4  [cm-1]   --> E_u  L_3'       I  
     freq ( 16 - 17) =        273.4  [cm-1]   --> E_g  L_3        R  
     freq ( 18 - 18) =        277.5  [cm-1]   --> A_2g L_2           
     freq ( 19 - 20) =        673.4  [cm-1]   --> E_g  L_3        R  
     freq ( 21 - 22) =        674.9  [cm-1]   --> E_u  L_3'       I  
     freq ( 23 - 23) =        823.1  [cm-1]   --> A_2u L_2'       I  
     freq ( 24 - 24) =        824.7  [cm-1]   --> A_2g L_2           
     freq ( 25 - 25) =       1047.4  [cm-1]   --> A_1u L_1'          
     freq ( 26 - 26) =       1048.1  [cm-1]   --> A_1g L_1        R  
     freq ( 27 - 28) =       1347.1  [cm-1]   --> E_u  L_3'       I  
     freq ( 29 - 30) =       1386.7  [cm-1]   --> E_g  L_3        R  
 
     PHONON       :      1h 6m CPU      1h 9m WALL

     INITIALIZATION: 
     phq_setup    :      0.11s CPU      0.17s WALL (       1 calls)
     phq_init     :     18.71s CPU     19.88s WALL (       1 calls)
 
     phq_init     :     18.71s CPU     19.88s WALL (       1 calls)
     set_drhoc    :      0.07s CPU      0.07s WALL (       3 calls)
     init_vloc    :      0.01s CPU      0.04s WALL (       1 calls)
     init_us_1    :      0.10s CPU      0.39s WALL (       1 calls)
     newd         :      0.01s CPU      0.35s WALL (       1 calls)
     dvanqq       :      0.27s CPU      0.29s WALL (       1 calls)
     drho         :     17.59s CPU     18.53s WALL (       1 calls)
     cmpt_qdipol  :      0.00s CPU      0.00s WALL (       1 calls)
 
     DIELECTRIC CONSTANT AND EFFECTIVE CHARGES:
     solve_e      :    421.20s CPU    444.26s WALL (       1 calls)
     dielec       :      0.01s CPU      0.04s WALL (       1 calls)
     zstar_eu     :    108.82s CPU    111.75s WALL (       1 calls)
 
     DYNAMICAL MATRIX:
     dynmat0      :      0.67s CPU      0.81s WALL (       1 calls)
     phqscf       :   3415.10s CPU   3605.50s WALL (       1 calls)
     dynmatrix    :      0.03s CPU      0.14s WALL (       1 calls)
 
     phqscf       :   3415.10s CPU   3605.50s WALL (       1 calls)
     solve_linter :   3410.57s CPU   3598.32s WALL (      20 calls)
     drhodv       :      4.30s CPU      4.60s WALL (      20 calls)
 
     dynmat0      :      0.67s CPU      0.81s WALL (       1 calls)
     dynmat_us    :      0.58s CPU      0.65s WALL (       1 calls)
     d2ionq       :      0.01s CPU      0.02s WALL (       1 calls)
     dynmatcc     :      0.07s CPU      0.07s WALL (       1 calls)
 
     dynmat_us    :      0.58s CPU      0.65s WALL (       1 calls)
     addusdynmat  :      0.01s CPU      0.01s WALL (       1 calls)
 
     phqscf       :   3415.10s CPU   3605.50s WALL (       1 calls)
     solve_linter :   3410.57s CPU   3598.32s WALL (      20 calls)
 
     solve_linter :   3410.57s CPU   3598.32s WALL (      20 calls)
     dvqpsi_us    :    131.40s CPU    134.01s WALL (    1140 calls)
     ortho        :     11.82s CPU     13.02s WALL (    5073 calls)
     cgsolve      :   3063.15s CPU   3222.44s WALL (    5073 calls)
     incdrhoscf   :    237.24s CPU    249.62s WALL (    5073 calls)
     addusddens   :      3.75s CPU      3.87s WALL (     179 calls)
     vpsifft      :    174.26s CPU    184.41s WALL (    3990 calls)
     dv_of_drho   :      5.27s CPU      5.54s WALL (     267 calls)
     mix_pot      :      1.76s CPU      4.79s WALL (     167 calls)
     psymdvscf    :    213.96s CPU    214.31s WALL (     159 calls)
     newdq        :      5.23s CPU      5.28s WALL (     167 calls)
     adddvscf     :      6.85s CPU      7.03s WALL (    4389 calls)
     drhodvus     :      0.17s CPU      0.34s WALL (      20 calls)
 
     dvqpsi_us    :    131.40s CPU    134.01s WALL (    1140 calls)
     dvqpsi_us_on :     77.59s CPU     77.63s WALL (    1140 calls)
 
     cgsolve      :   3063.15s CPU   3222.44s WALL (    5073 calls)
     ch_psi       :   3025.53s CPU   3181.17s WALL (   88821 calls)
 
     ch_psi       :   3025.53s CPU   3181.17s WALL (   88821 calls)
     h_psi        :   2829.75s CPU   2972.88s WALL (   88821 calls)
     last         :    155.01s CPU    165.48s WALL (   88821 calls)
 
     h_psi        :   2829.75s CPU   2972.88s WALL (   88821 calls)
     add_vuspsi   :     34.45s CPU     36.40s WALL (   88821 calls)
 
     incdrhoscf   :    237.24s CPU    249.62s WALL (    5073 calls)
     addusdbec    :      5.31s CPU      5.79s WALL (    5643 calls)
 
     drhodvus     :      0.17s CPU      0.34s WALL (      20 calls)
 
      General routines
     calbec       :    150.04s CPU    162.03s WALL (  204622 calls)
     fft          :     15.26s CPU     15.99s WALL (    5744 calls)
     ffts         :      4.46s CPU      4.62s WALL (    1770 calls)
     fftw         :   3059.35s CPU   3213.71s WALL ( 4817436 calls)
     davcio       :      2.98s CPU      5.29s WALL (   25978 calls)
     write_rec    :      0.80s CPU     19.20s WALL (     187 calls)
 
 
     PHONON       :      1h 6m CPU      1h 9m WALL

 
   This run was terminated on:  15:10: 0   4May2022            

=------------------------------------------------------------------------------=
   JOB DONE.
=------------------------------------------------------------------------------=
TACC:  Shutdown complete. Exiting. 
