[Molden Format]
[FREQ]
    7.79
    8.35
    8.36
  114.39
  153.01
  162.45
  168.95
  168.95
  197.45
  204.17
  217.49
  230.68
  232.07
  238.40
  273.45
  273.45
  277.45
  351.60
  673.37
  673.37
  674.90
  675.63
  823.12
  824.70
 1047.42
 1048.11
 1347.07
 1386.71
 1386.71
 1493.72
[FR-COORD]
   Ca          0.00000        0.00000       14.64895
   Ca          0.00000        0.00000        0.00000
   C           0.00000        0.00000        7.32448
   C           0.00000        0.00000       21.97343
   O           1.22898        3.66813       17.09044
   O           2.56221       -2.89840       17.09044
   O          -3.79119       -0.76974       17.09044
   O          -2.56221        2.89840       12.20746
   O           3.79119        0.76974       12.20746
   O          -1.22898       -3.66813       12.20746
[FR-NORM-COORD]
 vibration     1
   0.00000   0.00005  -0.31690
  -0.00000   0.00005  -0.31690
   0.00000   0.00005  -0.31613
   0.00000   0.00005  -0.31613
  -0.00055  -0.00027  -0.31604
   0.00000   0.00068  -0.31604
   0.00055  -0.00027  -0.31604
   0.00000   0.00068  -0.31604
   0.00055  -0.00027  -0.31604
  -0.00055  -0.00027  -0.31604
 vibration     2
   0.00032   0.31693   0.00005
  -0.00032   0.31693   0.00005
   0.00000   0.31615   0.00005
   0.00000   0.31615   0.00005
  -0.00009   0.31607   0.00061
   0.00000   0.31592  -0.00107
   0.00009   0.31607   0.00061
   0.00000   0.31592  -0.00107
   0.00009   0.31607   0.00061
  -0.00009   0.31607   0.00061
 vibration     3
  -0.31653   0.00029   0.00000
  -0.31653  -0.00029  -0.00000
  -0.31619   0.00000  -0.00000
  -0.31619   0.00000  -0.00000
  -0.31609   0.00008  -0.00084
  -0.31623   0.00000  -0.00000
  -0.31609  -0.00008   0.00084
  -0.31623   0.00000  -0.00000
  -0.31609  -0.00008   0.00084
  -0.31609   0.00008  -0.00084
 vibration     4
  -0.00000   0.00000  -0.22928
   0.00000   0.00000  -0.22928
  -0.00000  -0.00000   0.12834
  -0.00000  -0.00000   0.12834
  -0.29734  -0.17167   0.16054
   0.00000   0.34334   0.16054
   0.29734  -0.17167   0.16054
  -0.00000   0.34334   0.16054
   0.29734  -0.17167   0.16054
  -0.29734  -0.17167   0.16054
 vibration     5
  -0.15454   0.18494   0.00000
   0.15454   0.18494   0.00000
  -0.00000  -0.10086  -0.00000
   0.00000  -0.10086  -0.00000
  -0.02116  -0.11817   0.25131
  -0.00000  -0.15483  -0.50262
   0.02116  -0.11817   0.25131
   0.00000  -0.15483  -0.50262
   0.02116  -0.11817   0.25131
  -0.02116  -0.11817   0.25131
 vibration     6
  -0.08939  -0.23606   0.00000
  -0.08939   0.23606  -0.00000
   0.05525  -0.00000   0.00000
   0.05525   0.00000   0.00000
   0.07325   0.02028  -0.45838
   0.03812  -0.00000  -0.00000
   0.07325  -0.02028   0.45838
   0.03812   0.00000  -0.00000
   0.07325  -0.02028   0.45838
   0.07325   0.02028  -0.45838
 vibration     7
   0.00000   0.00000  -0.00000
  -0.00000  -0.00000  -0.00000
  -0.00000  -0.33915   0.00000
   0.00000   0.33915  -0.00000
  -0.00080  -0.35622   0.02348
  -0.00000  -0.35760  -0.04697
   0.00080  -0.35622   0.02348
   0.00000   0.35760   0.04697
  -0.00080   0.35622  -0.02348
   0.00080   0.35622  -0.02348
 vibration     8
   0.00000   0.00000   0.00000
   0.00000  -0.00000   0.00000
   0.33915  -0.00000  -0.00000
  -0.33915   0.00000  -0.00000
   0.35714   0.00080  -0.04067
   0.35576  -0.00000  -0.00000
   0.35714  -0.00080   0.04067
  -0.35576   0.00000   0.00000
  -0.35714   0.00080  -0.04067
  -0.35714  -0.00080   0.04067
 vibration     9
  -0.62771  -0.15149  -0.00000
   0.62771  -0.15149  -0.00000
   0.00000   0.05357   0.00000
  -0.00000   0.05357   0.00000
   0.01861   0.10354  -0.08123
   0.00000   0.13577   0.16246
  -0.01861   0.10354  -0.08123
  -0.00000   0.13577   0.16246
  -0.01861   0.10354  -0.08123
   0.01861   0.10354  -0.08123
 vibration    10
  -0.01741   0.52688   0.00000
  -0.01741  -0.52688  -0.00000
  -0.01830   0.00000  -0.00000
  -0.01830  -0.00000   0.00000
   0.03470   0.02522  -0.33015
  -0.00898  -0.00000  -0.00000
   0.03470  -0.02522   0.33015
  -0.00898   0.00000   0.00000
   0.03470  -0.02522   0.33015
   0.03470   0.02522  -0.33015
 vibration    11
  -0.00000   0.00000  -0.00000
   0.00000  -0.00000   0.00000
   0.00000  -0.00000   0.14919
  -0.00000   0.00000  -0.14919
  -0.31553  -0.18217   0.16279
   0.00000   0.36434   0.16279
   0.31553  -0.18217   0.16279
  -0.00000  -0.36434  -0.16279
  -0.31553   0.18217  -0.16279
   0.31553   0.18217  -0.16279
 vibration    12
   0.00000   0.00000   0.70611
   0.00000  -0.00000  -0.70611
  -0.00000  -0.00000  -0.00000
  -0.00000   0.00000  -0.00000
  -0.01083   0.01876   0.00000
   0.02166   0.00000  -0.00000
  -0.01083  -0.01876  -0.00000
   0.02166   0.00000  -0.00000
  -0.01083  -0.01876  -0.00000
  -0.01083   0.01876   0.00000
 vibration    13
   0.00000  -0.00000   0.30400
  -0.00000  -0.00000   0.30400
  -0.00000   0.00000  -0.22078
   0.00000   0.00000  -0.22078
  -0.24515  -0.14154  -0.19870
  -0.00000   0.28307  -0.19870
   0.24515  -0.14154  -0.19870
   0.00000   0.28307  -0.19870
   0.24515  -0.14154  -0.19870
  -0.24515  -0.14154  -0.19870
 vibration    14
   0.07321  -0.32328  -0.00000
  -0.07321  -0.32328  -0.00000
   0.00000   0.20266   0.00000
  -0.00000   0.20266   0.00000
  -0.01328   0.22694   0.18444
   0.00000   0.20393  -0.36888
   0.01328   0.22694   0.18444
  -0.00000   0.20393  -0.36888
   0.01328   0.22694   0.18444
  -0.01328   0.22694   0.18444
 vibration    15
  -0.00000   0.00000  -0.00000
   0.00000  -0.00000  -0.00000
  -0.03569  -0.00000  -0.00000
   0.03569   0.00000   0.00000
  -0.02682   0.00445  -0.49802
  -0.03452  -0.00000   0.00000
  -0.02682  -0.00445   0.49802
   0.03452   0.00000  -0.00000
   0.02682   0.00445  -0.49802
   0.02682  -0.00445   0.49802
 vibration    16
   0.00000  -0.00000   0.00000
   0.00000   0.00000   0.00000
  -0.00000   0.03569   0.00000
   0.00000  -0.03569  -0.00000
  -0.00445   0.03195   0.28753
  -0.00000   0.02425  -0.57507
   0.00445   0.03195   0.28753
   0.00000  -0.02425   0.57507
  -0.00445  -0.03195  -0.28753
   0.00445  -0.03195  -0.28753
 vibration    17
  -0.00000   0.00000   0.00000
  -0.00000  -0.00000   0.00000
  -0.00000   0.00000   0.34262
   0.00000  -0.00000  -0.34262
   0.15100   0.08718   0.31166
  -0.00000  -0.17436   0.31166
  -0.15100   0.08718   0.31166
   0.00000   0.17436  -0.31166
   0.15100  -0.08718  -0.31166
  -0.15100  -0.08718  -0.31166
 vibration    18
  -0.40282   0.04575  -0.00000
  -0.40282  -0.04575   0.00000
   0.31765  -0.00000  -0.00000
   0.31765  -0.00000   0.00000
   0.25752   0.00079   0.13509
   0.25615  -0.00000  -0.00000
   0.25752  -0.00079  -0.13509
   0.25615  -0.00000   0.00000
   0.25752  -0.00079  -0.13509
   0.25752   0.00079   0.13509
 vibration    19
  -0.00000  -0.00000  -0.00000
   0.00000  -0.00000  -0.00000
  -0.00000  -0.21736   0.00000
   0.00000   0.21736  -0.00000
   0.33345  -0.14124   0.00419
  -0.00000   0.43632  -0.00839
  -0.33345  -0.14124   0.00419
   0.00000  -0.43632   0.00839
   0.33345   0.14124  -0.00419
  -0.33345   0.14124  -0.00419
 vibration    20
   0.00000   0.00000  -0.00000
  -0.00000   0.00000  -0.00000
   0.21736  -0.00000   0.00000
  -0.21736   0.00000  -0.00000
  -0.24380  -0.33345  -0.00726
   0.33376   0.00000  -0.00000
  -0.24380   0.33345   0.00726
  -0.33376  -0.00000   0.00000
   0.24380  -0.33345  -0.00726
   0.24380   0.33345   0.00726
 vibration    21
  -0.01240  -0.00791   0.00000
   0.01240  -0.00791   0.00000
  -0.00000   0.22672  -0.00000
  -0.00000   0.22672  -0.00000
  -0.33098   0.14092  -0.02097
  -0.00000  -0.43235   0.04194
   0.33098   0.14092  -0.02097
  -0.00000  -0.43235   0.04194
   0.33098   0.14092  -0.02097
  -0.33098   0.14092  -0.02097
 vibration    22
   0.00019  -0.01121  -0.00000
   0.00019   0.01121   0.00000
  -0.21276  -0.00000   0.00000
  -0.21276  -0.00000  -0.00000
   0.24532   0.33290   0.03772
  -0.33128   0.00000  -0.00000
   0.24532  -0.33290  -0.03772
  -0.33128   0.00000  -0.00000
   0.24532  -0.33290  -0.03772
   0.24532   0.33290   0.03772
 vibration    23
  -0.00000  -0.00000  -0.00106
   0.00000  -0.00000  -0.00106
   0.00000   0.00000   0.64894
  -0.00000   0.00000   0.64894
  -0.01232  -0.00711  -0.16152
   0.00000   0.01423  -0.16152
   0.01232  -0.00711  -0.16152
  -0.00000   0.01423  -0.16152
   0.01232  -0.00711  -0.16152
  -0.01232  -0.00711  -0.16152
 vibration    24
  -0.00000   0.00000  -0.00000
  -0.00000  -0.00000  -0.00000
   0.00000   0.00000   0.64204
   0.00000  -0.00000  -0.64204
  -0.00909  -0.00525  -0.17074
   0.00000   0.01050  -0.17074
   0.00909  -0.00525  -0.17074
   0.00000  -0.01050   0.17074
  -0.00909   0.00525   0.17074
   0.00909   0.00525   0.17074
 vibration    25
   0.00000   0.00000  -0.01500
   0.00000  -0.00000   0.01500
  -0.00000   0.00000  -0.00000
  -0.00000   0.00000   0.00000
  -0.20408   0.35347   0.00000
   0.40816  -0.00000   0.00000
  -0.20408  -0.35347  -0.00000
   0.40816  -0.00000  -0.00000
  -0.20408  -0.35347  -0.00000
  -0.20408   0.35347   0.00000
 vibration    26
   0.00000   0.00000   0.00000
  -0.00000   0.00000  -0.00000
   0.00000  -0.00000  -0.00000
  -0.00000  -0.00000   0.00000
   0.20412  -0.35355  -0.00000
  -0.40825   0.00000   0.00000
   0.20412   0.35355   0.00000
   0.40825   0.00000  -0.00000
  -0.20412  -0.35355  -0.00000
  -0.20412   0.35355   0.00000
 vibration    27
  -0.00885  -0.01100  -0.00000
   0.00885  -0.01100  -0.00000
   0.00000   0.62885  -0.00000
  -0.00000   0.62885  -0.00000
   0.09808  -0.20480  -0.00025
  -0.00000  -0.03492   0.00050
  -0.09808  -0.20480  -0.00025
   0.00000  -0.03492   0.00050
  -0.09808  -0.20480  -0.00025
   0.09808  -0.20480  -0.00025
 vibration    28
   0.00000   0.00000   0.00000
   0.00000  -0.00000  -0.00000
  -0.00000   0.62976  -0.00000
   0.00000  -0.62976   0.00000
   0.09440  -0.20477  -0.00113
   0.00000  -0.04127   0.00226
  -0.09440  -0.20477  -0.00113
  -0.00000   0.04127  -0.00226
   0.09440   0.20477   0.00113
  -0.09440   0.20477   0.00113
 vibration    29
   0.00000   0.00000   0.00000
   0.00000   0.00000   0.00000
   0.62976   0.00000  -0.00000
  -0.62976  -0.00000   0.00000
  -0.09577   0.09440  -0.00196
  -0.25927  -0.00000   0.00000
  -0.09577  -0.09440   0.00196
   0.25927   0.00000  -0.00000
   0.09577   0.09440  -0.00196
   0.09577  -0.09440   0.00196
 vibration    30
  -0.01667  -0.00498   0.00000
  -0.01667   0.00498  -0.00000
  -0.61589   0.00000   0.00000
  -0.61589  -0.00000  -0.00000
   0.11356  -0.09436   0.00491
   0.27700  -0.00000   0.00000
   0.11356   0.09436  -0.00491
   0.27700   0.00000   0.00000
   0.11356   0.09436  -0.00491
   0.11356  -0.09436   0.00491
