ANIMSTEPS   30
CRYSTAL
PRIMVEC
    2.656558539   -1.533764788    5.167927490
    0.000000000    3.067529575    5.167927490
   -2.656558539   -1.533764788    5.167927490
PRIMCOORD    1
     10   1
   Ca     0.00000   0.00000   7.75189   0.00000   0.00000  -0.03169
   Ca     0.00000   0.00000   0.00000  -0.00000   0.00000  -0.03169
   C      0.00000   0.00000   3.87595   0.00000   0.00000  -0.03161
   C      0.00000   0.00000  11.62784   0.00000   0.00000  -0.03161
   O      0.65035   1.94109   9.04387  -0.00006  -0.00003  -0.03160
   O      1.35586  -1.53376   9.04387   0.00000   0.00007  -0.03160
   O     -2.00621  -0.40733   9.04387   0.00006  -0.00003  -0.03160
   O     -1.35586   1.53376   6.45991   0.00000   0.00007  -0.03160
   O      2.00621   0.40733   6.45991   0.00006  -0.00003  -0.03160
   O     -0.65035  -1.94109   6.45991  -0.00006  -0.00003  -0.03160
PRIMCOORD    2
     10   1
   Ca     0.00000   0.00000   7.75189   0.00003   0.03169   0.00000
   Ca     0.00000   0.00000   0.00000  -0.00003   0.03169   0.00000
   C      0.00000   0.00000   3.87595   0.00000   0.03161   0.00000
   C      0.00000   0.00000  11.62784   0.00000   0.03161   0.00000
   O      0.65035   1.94109   9.04387  -0.00001   0.03161   0.00006
   O      1.35586  -1.53376   9.04387   0.00000   0.03159  -0.00011
   O     -2.00621  -0.40733   9.04387   0.00001   0.03161   0.00006
   O     -1.35586   1.53376   6.45991   0.00000   0.03159  -0.00011
   O      2.00621   0.40733   6.45991   0.00001   0.03161   0.00006
   O     -0.65035  -1.94109   6.45991  -0.00001   0.03161   0.00006
PRIMCOORD    3
     10   1
   Ca     0.00000   0.00000   7.75189  -0.03165   0.00003   0.00000
   Ca     0.00000   0.00000   0.00000  -0.03165  -0.00003  -0.00000
   C      0.00000   0.00000   3.87595  -0.03162   0.00000  -0.00000
   C      0.00000   0.00000  11.62784  -0.03162   0.00000  -0.00000
   O      0.65035   1.94109   9.04387  -0.03161   0.00001  -0.00008
   O      1.35586  -1.53376   9.04387  -0.03162   0.00000  -0.00000
   O     -2.00621  -0.40733   9.04387  -0.03161  -0.00001   0.00008
   O     -1.35586   1.53376   6.45991  -0.03162   0.00000  -0.00000
   O      2.00621   0.40733   6.45991  -0.03161  -0.00001   0.00008
   O     -0.65035  -1.94109   6.45991  -0.03161   0.00001  -0.00008
PRIMCOORD    4
     10   1
   Ca     0.00000   0.00000   7.75189  -0.00000   0.00000  -0.02293
   Ca     0.00000   0.00000   0.00000   0.00000   0.00000  -0.02293
   C      0.00000   0.00000   3.87595  -0.00000  -0.00000   0.01283
   C      0.00000   0.00000  11.62784  -0.00000  -0.00000   0.01283
   O      0.65035   1.94109   9.04387  -0.02973  -0.01717   0.01605
   O      1.35586  -1.53376   9.04387   0.00000   0.03433   0.01605
   O     -2.00621  -0.40733   9.04387   0.02973  -0.01717   0.01605
   O     -1.35586   1.53376   6.45991  -0.00000   0.03433   0.01605
   O      2.00621   0.40733   6.45991   0.02973  -0.01717   0.01605
   O     -0.65035  -1.94109   6.45991  -0.02973  -0.01717   0.01605
PRIMCOORD    5
     10   1
   Ca     0.00000   0.00000   7.75189  -0.01545   0.01849   0.00000
   Ca     0.00000   0.00000   0.00000   0.01545   0.01849   0.00000
   C      0.00000   0.00000   3.87595  -0.00000  -0.01009  -0.00000
   C      0.00000   0.00000  11.62784   0.00000  -0.01009  -0.00000
   O      0.65035   1.94109   9.04387  -0.00212  -0.01182   0.02513
   O      1.35586  -1.53376   9.04387  -0.00000  -0.01548  -0.05026
   O     -2.00621  -0.40733   9.04387   0.00212  -0.01182   0.02513
   O     -1.35586   1.53376   6.45991   0.00000  -0.01548  -0.05026
   O      2.00621   0.40733   6.45991   0.00212  -0.01182   0.02513
   O     -0.65035  -1.94109   6.45991  -0.00212  -0.01182   0.02513
PRIMCOORD    6
     10   1
   Ca     0.00000   0.00000   7.75189  -0.00894  -0.02361   0.00000
   Ca     0.00000   0.00000   0.00000  -0.00894   0.02361  -0.00000
   C      0.00000   0.00000   3.87595   0.00553  -0.00000   0.00000
   C      0.00000   0.00000  11.62784   0.00553   0.00000   0.00000
   O      0.65035   1.94109   9.04387   0.00733   0.00203  -0.04584
   O      1.35586  -1.53376   9.04387   0.00381  -0.00000  -0.00000
   O     -2.00621  -0.40733   9.04387   0.00733  -0.00203   0.04584
   O     -1.35586   1.53376   6.45991   0.00381   0.00000  -0.00000
   O      2.00621   0.40733   6.45991   0.00733  -0.00203   0.04584
   O     -0.65035  -1.94109   6.45991   0.00733   0.00203  -0.04584
PRIMCOORD    7
     10   1
   Ca     0.00000   0.00000   7.75189   0.00000   0.00000  -0.00000
   Ca     0.00000   0.00000   0.00000  -0.00000  -0.00000  -0.00000
   C      0.00000   0.00000   3.87595  -0.00000  -0.03391   0.00000
   C      0.00000   0.00000  11.62784   0.00000   0.03391  -0.00000
   O      0.65035   1.94109   9.04387  -0.00008  -0.03562   0.00235
   O      1.35586  -1.53376   9.04387  -0.00000  -0.03576  -0.00470
   O     -2.00621  -0.40733   9.04387   0.00008  -0.03562   0.00235
   O     -1.35586   1.53376   6.45991   0.00000   0.03576   0.00470
   O      2.00621   0.40733   6.45991  -0.00008   0.03562  -0.00235
   O     -0.65035  -1.94109   6.45991   0.00008   0.03562  -0.00235
PRIMCOORD    8
     10   1
   Ca     0.00000   0.00000   7.75189   0.00000   0.00000   0.00000
   Ca     0.00000   0.00000   0.00000   0.00000  -0.00000   0.00000
   C      0.00000   0.00000   3.87595   0.03391  -0.00000  -0.00000
   C      0.00000   0.00000  11.62784  -0.03391   0.00000  -0.00000
   O      0.65035   1.94109   9.04387   0.03571   0.00008  -0.00407
   O      1.35586  -1.53376   9.04387   0.03558  -0.00000  -0.00000
   O     -2.00621  -0.40733   9.04387   0.03571  -0.00008   0.00407
   O     -1.35586   1.53376   6.45991  -0.03558   0.00000   0.00000
   O      2.00621   0.40733   6.45991  -0.03571   0.00008  -0.00407
   O     -0.65035  -1.94109   6.45991  -0.03571  -0.00008   0.00407
PRIMCOORD    9
     10   1
   Ca     0.00000   0.00000   7.75189  -0.06277  -0.01515  -0.00000
   Ca     0.00000   0.00000   0.00000   0.06277  -0.01515  -0.00000
   C      0.00000   0.00000   3.87595   0.00000   0.00536   0.00000
   C      0.00000   0.00000  11.62784  -0.00000   0.00536   0.00000
   O      0.65035   1.94109   9.04387   0.00186   0.01035  -0.00812
   O      1.35586  -1.53376   9.04387   0.00000   0.01358   0.01625
   O     -2.00621  -0.40733   9.04387  -0.00186   0.01035  -0.00812
   O     -1.35586   1.53376   6.45991  -0.00000   0.01358   0.01625
   O      2.00621   0.40733   6.45991  -0.00186   0.01035  -0.00812
   O     -0.65035  -1.94109   6.45991   0.00186   0.01035  -0.00812
PRIMCOORD   10
     10   1
   Ca     0.00000   0.00000   7.75189  -0.00174   0.05269   0.00000
   Ca     0.00000   0.00000   0.00000  -0.00174  -0.05269  -0.00000
   C      0.00000   0.00000   3.87595  -0.00183   0.00000  -0.00000
   C      0.00000   0.00000  11.62784  -0.00183  -0.00000   0.00000
   O      0.65035   1.94109   9.04387   0.00347   0.00252  -0.03301
   O      1.35586  -1.53376   9.04387  -0.00090  -0.00000  -0.00000
   O     -2.00621  -0.40733   9.04387   0.00347  -0.00252   0.03301
   O     -1.35586   1.53376   6.45991  -0.00090   0.00000   0.00000
   O      2.00621   0.40733   6.45991   0.00347  -0.00252   0.03301
   O     -0.65035  -1.94109   6.45991   0.00347   0.00252  -0.03301
PRIMCOORD   11
     10   1
   Ca     0.00000   0.00000   7.75189  -0.00000   0.00000  -0.00000
   Ca     0.00000   0.00000   0.00000   0.00000  -0.00000   0.00000
   C      0.00000   0.00000   3.87595   0.00000  -0.00000   0.01492
   C      0.00000   0.00000  11.62784  -0.00000   0.00000  -0.01492
   O      0.65035   1.94109   9.04387  -0.03155  -0.01822   0.01628
   O      1.35586  -1.53376   9.04387   0.00000   0.03643   0.01628
   O     -2.00621  -0.40733   9.04387   0.03155  -0.01822   0.01628
   O     -1.35586   1.53376   6.45991  -0.00000  -0.03643  -0.01628
   O      2.00621   0.40733   6.45991  -0.03155   0.01822  -0.01628
   O     -0.65035  -1.94109   6.45991   0.03155   0.01822  -0.01628
PRIMCOORD   12
     10   1
   Ca     0.00000   0.00000   7.75189   0.00000   0.00000   0.07061
   Ca     0.00000   0.00000   0.00000   0.00000  -0.00000  -0.07061
   C      0.00000   0.00000   3.87595  -0.00000  -0.00000  -0.00000
   C      0.00000   0.00000  11.62784  -0.00000   0.00000  -0.00000
   O      0.65035   1.94109   9.04387  -0.00108   0.00188   0.00000
   O      1.35586  -1.53376   9.04387   0.00217   0.00000  -0.00000
   O     -2.00621  -0.40733   9.04387  -0.00108  -0.00188  -0.00000
   O     -1.35586   1.53376   6.45991   0.00217   0.00000  -0.00000
   O      2.00621   0.40733   6.45991  -0.00108  -0.00188  -0.00000
   O     -0.65035  -1.94109   6.45991  -0.00108   0.00188   0.00000
PRIMCOORD   13
     10   1
   Ca     0.00000   0.00000   7.75189   0.00000  -0.00000   0.03040
   Ca     0.00000   0.00000   0.00000  -0.00000  -0.00000   0.03040
   C      0.00000   0.00000   3.87595  -0.00000   0.00000  -0.02208
   C      0.00000   0.00000  11.62784   0.00000   0.00000  -0.02208
   O      0.65035   1.94109   9.04387  -0.02451  -0.01415  -0.01987
   O      1.35586  -1.53376   9.04387  -0.00000   0.02831  -0.01987
   O     -2.00621  -0.40733   9.04387   0.02451  -0.01415  -0.01987
   O     -1.35586   1.53376   6.45991   0.00000   0.02831  -0.01987
   O      2.00621   0.40733   6.45991   0.02451  -0.01415  -0.01987
   O     -0.65035  -1.94109   6.45991  -0.02451  -0.01415  -0.01987
PRIMCOORD   14
     10   1
   Ca     0.00000   0.00000   7.75189   0.00732  -0.03233  -0.00000
   Ca     0.00000   0.00000   0.00000  -0.00732  -0.03233  -0.00000
   C      0.00000   0.00000   3.87595   0.00000   0.02027   0.00000
   C      0.00000   0.00000  11.62784  -0.00000   0.02027   0.00000
   O      0.65035   1.94109   9.04387  -0.00133   0.02269   0.01844
   O      1.35586  -1.53376   9.04387   0.00000   0.02039  -0.03689
   O     -2.00621  -0.40733   9.04387   0.00133   0.02269   0.01844
   O     -1.35586   1.53376   6.45991  -0.00000   0.02039  -0.03689
   O      2.00621   0.40733   6.45991   0.00133   0.02269   0.01844
   O     -0.65035  -1.94109   6.45991  -0.00133   0.02269   0.01844
PRIMCOORD   15
     10   1
   Ca     0.00000   0.00000   7.75189  -0.00000   0.00000  -0.00000
   Ca     0.00000   0.00000   0.00000   0.00000  -0.00000  -0.00000
   C      0.00000   0.00000   3.87595  -0.00357  -0.00000  -0.00000
   C      0.00000   0.00000  11.62784   0.00357   0.00000   0.00000
   O      0.65035   1.94109   9.04387  -0.00268   0.00044  -0.04980
   O      1.35586  -1.53376   9.04387  -0.00345  -0.00000   0.00000
   O     -2.00621  -0.40733   9.04387  -0.00268  -0.00044   0.04980
   O     -1.35586   1.53376   6.45991   0.00345   0.00000  -0.00000
   O      2.00621   0.40733   6.45991   0.00268   0.00044  -0.04980
   O     -0.65035  -1.94109   6.45991   0.00268  -0.00044   0.04980
PRIMCOORD   16
     10   1
   Ca     0.00000   0.00000   7.75189   0.00000  -0.00000   0.00000
   Ca     0.00000   0.00000   0.00000   0.00000   0.00000   0.00000
   C      0.00000   0.00000   3.87595  -0.00000   0.00357   0.00000
   C      0.00000   0.00000  11.62784   0.00000  -0.00357  -0.00000
   O      0.65035   1.94109   9.04387  -0.00044   0.00319   0.02875
   O      1.35586  -1.53376   9.04387  -0.00000   0.00242  -0.05751
   O     -2.00621  -0.40733   9.04387   0.00044   0.00319   0.02875
   O     -1.35586   1.53376   6.45991   0.00000  -0.00242   0.05751
   O      2.00621   0.40733   6.45991  -0.00044  -0.00319  -0.02875
   O     -0.65035  -1.94109   6.45991   0.00044  -0.00319  -0.02875
PRIMCOORD   17
     10   1
   Ca     0.00000   0.00000   7.75189  -0.00000   0.00000   0.00000
   Ca     0.00000   0.00000   0.00000  -0.00000  -0.00000   0.00000
   C      0.00000   0.00000   3.87595  -0.00000   0.00000   0.03426
   C      0.00000   0.00000  11.62784   0.00000  -0.00000  -0.03426
   O      0.65035   1.94109   9.04387   0.01510   0.00872   0.03117
   O      1.35586  -1.53376   9.04387  -0.00000  -0.01744   0.03117
   O     -2.00621  -0.40733   9.04387  -0.01510   0.00872   0.03117
   O     -1.35586   1.53376   6.45991   0.00000   0.01744  -0.03117
   O      2.00621   0.40733   6.45991   0.01510  -0.00872  -0.03117
   O     -0.65035  -1.94109   6.45991  -0.01510  -0.00872  -0.03117
PRIMCOORD   18
     10   1
   Ca     0.00000   0.00000   7.75189  -0.04028   0.00458  -0.00000
   Ca     0.00000   0.00000   0.00000  -0.04028  -0.00458   0.00000
   C      0.00000   0.00000   3.87595   0.03177  -0.00000  -0.00000
   C      0.00000   0.00000  11.62784   0.03177  -0.00000   0.00000
   O      0.65035   1.94109   9.04387   0.02575   0.00008   0.01351
   O      1.35586  -1.53376   9.04387   0.02561  -0.00000  -0.00000
   O     -2.00621  -0.40733   9.04387   0.02575  -0.00008  -0.01351
   O     -1.35586   1.53376   6.45991   0.02561  -0.00000   0.00000
   O      2.00621   0.40733   6.45991   0.02575  -0.00008  -0.01351
   O     -0.65035  -1.94109   6.45991   0.02575   0.00008   0.01351
PRIMCOORD   19
     10   1
   Ca     0.00000   0.00000   7.75189  -0.00000  -0.00000  -0.00000
   Ca     0.00000   0.00000   0.00000   0.00000  -0.00000  -0.00000
   C      0.00000   0.00000   3.87595  -0.00000  -0.02174   0.00000
   C      0.00000   0.00000  11.62784   0.00000   0.02174  -0.00000
   O      0.65035   1.94109   9.04387   0.03335  -0.01412   0.00042
   O      1.35586  -1.53376   9.04387  -0.00000   0.04363  -0.00084
   O     -2.00621  -0.40733   9.04387  -0.03335  -0.01412   0.00042
   O     -1.35586   1.53376   6.45991   0.00000  -0.04363   0.00084
   O      2.00621   0.40733   6.45991   0.03335   0.01412  -0.00042
   O     -0.65035  -1.94109   6.45991  -0.03335   0.01412  -0.00042
PRIMCOORD   20
     10   1
   Ca     0.00000   0.00000   7.75189   0.00000   0.00000  -0.00000
   Ca     0.00000   0.00000   0.00000  -0.00000   0.00000  -0.00000
   C      0.00000   0.00000   3.87595   0.02174  -0.00000   0.00000
   C      0.00000   0.00000  11.62784  -0.02174   0.00000  -0.00000
   O      0.65035   1.94109   9.04387  -0.02438  -0.03335  -0.00073
   O      1.35586  -1.53376   9.04387   0.03338   0.00000  -0.00000
   O     -2.00621  -0.40733   9.04387  -0.02438   0.03335   0.00073
   O     -1.35586   1.53376   6.45991  -0.03338  -0.00000   0.00000
   O      2.00621   0.40733   6.45991   0.02438  -0.03335  -0.00073
   O     -0.65035  -1.94109   6.45991   0.02438   0.03335   0.00073
PRIMCOORD   21
     10   1
   Ca     0.00000   0.00000   7.75189  -0.00124  -0.00079   0.00000
   Ca     0.00000   0.00000   0.00000   0.00124  -0.00079   0.00000
   C      0.00000   0.00000   3.87595  -0.00000   0.02267  -0.00000
   C      0.00000   0.00000  11.62784  -0.00000   0.02267  -0.00000
   O      0.65035   1.94109   9.04387  -0.03310   0.01409  -0.00210
   O      1.35586  -1.53376   9.04387  -0.00000  -0.04324   0.00419
   O     -2.00621  -0.40733   9.04387   0.03310   0.01409  -0.00210
   O     -1.35586   1.53376   6.45991  -0.00000  -0.04324   0.00419
   O      2.00621   0.40733   6.45991   0.03310   0.01409  -0.00210
   O     -0.65035  -1.94109   6.45991  -0.03310   0.01409  -0.00210
PRIMCOORD   22
     10   1
   Ca     0.00000   0.00000   7.75189   0.00002  -0.00112  -0.00000
   Ca     0.00000   0.00000   0.00000   0.00002   0.00112   0.00000
   C      0.00000   0.00000   3.87595  -0.02128  -0.00000   0.00000
   C      0.00000   0.00000  11.62784  -0.02128  -0.00000  -0.00000
   O      0.65035   1.94109   9.04387   0.02453   0.03329   0.00377
   O      1.35586  -1.53376   9.04387  -0.03313   0.00000  -0.00000
   O     -2.00621  -0.40733   9.04387   0.02453  -0.03329  -0.00377
   O     -1.35586   1.53376   6.45991  -0.03313   0.00000  -0.00000
   O      2.00621   0.40733   6.45991   0.02453  -0.03329  -0.00377
   O     -0.65035  -1.94109   6.45991   0.02453   0.03329   0.00377
PRIMCOORD   23
     10   1
   Ca     0.00000   0.00000   7.75189  -0.00000  -0.00000  -0.00011
   Ca     0.00000   0.00000   0.00000   0.00000  -0.00000  -0.00011
   C      0.00000   0.00000   3.87595   0.00000   0.00000   0.06489
   C      0.00000   0.00000  11.62784  -0.00000   0.00000   0.06489
   O      0.65035   1.94109   9.04387  -0.00123  -0.00071  -0.01615
   O      1.35586  -1.53376   9.04387   0.00000   0.00142  -0.01615
   O     -2.00621  -0.40733   9.04387   0.00123  -0.00071  -0.01615
   O     -1.35586   1.53376   6.45991  -0.00000   0.00142  -0.01615
   O      2.00621   0.40733   6.45991   0.00123  -0.00071  -0.01615
   O     -0.65035  -1.94109   6.45991  -0.00123  -0.00071  -0.01615
PRIMCOORD   24
     10   1
   Ca     0.00000   0.00000   7.75189  -0.00000   0.00000  -0.00000
   Ca     0.00000   0.00000   0.00000  -0.00000  -0.00000  -0.00000
   C      0.00000   0.00000   3.87595   0.00000   0.00000   0.06420
   C      0.00000   0.00000  11.62784   0.00000  -0.00000  -0.06420
   O      0.65035   1.94109   9.04387  -0.00091  -0.00053  -0.01707
   O      1.35586  -1.53376   9.04387   0.00000   0.00105  -0.01707
   O     -2.00621  -0.40733   9.04387   0.00091  -0.00053  -0.01707
   O     -1.35586   1.53376   6.45991   0.00000  -0.00105   0.01707
   O      2.00621   0.40733   6.45991  -0.00091   0.00053   0.01707
   O     -0.65035  -1.94109   6.45991   0.00091   0.00053   0.01707
PRIMCOORD   25
     10   1
   Ca     0.00000   0.00000   7.75189   0.00000   0.00000  -0.00150
   Ca     0.00000   0.00000   0.00000   0.00000  -0.00000   0.00150
   C      0.00000   0.00000   3.87595  -0.00000   0.00000  -0.00000
   C      0.00000   0.00000  11.62784  -0.00000   0.00000   0.00000
   O      0.65035   1.94109   9.04387  -0.02041   0.03535   0.00000
   O      1.35586  -1.53376   9.04387   0.04082  -0.00000   0.00000
   O     -2.00621  -0.40733   9.04387  -0.02041  -0.03535  -0.00000
   O     -1.35586   1.53376   6.45991   0.04082  -0.00000  -0.00000
   O      2.00621   0.40733   6.45991  -0.02041  -0.03535  -0.00000
   O     -0.65035  -1.94109   6.45991  -0.02041   0.03535   0.00000
PRIMCOORD   26
     10   1
   Ca     0.00000   0.00000   7.75189   0.00000   0.00000   0.00000
   Ca     0.00000   0.00000   0.00000  -0.00000   0.00000  -0.00000
   C      0.00000   0.00000   3.87595   0.00000  -0.00000  -0.00000
   C      0.00000   0.00000  11.62784  -0.00000  -0.00000   0.00000
   O      0.65035   1.94109   9.04387   0.02041  -0.03536  -0.00000
   O      1.35586  -1.53376   9.04387  -0.04082   0.00000   0.00000
   O     -2.00621  -0.40733   9.04387   0.02041   0.03536   0.00000
   O     -1.35586   1.53376   6.45991   0.04082   0.00000  -0.00000
   O      2.00621   0.40733   6.45991  -0.02041  -0.03536  -0.00000
   O     -0.65035  -1.94109   6.45991  -0.02041   0.03536   0.00000
PRIMCOORD   27
     10   1
   Ca     0.00000   0.00000   7.75189  -0.00089  -0.00110  -0.00000
   Ca     0.00000   0.00000   0.00000   0.00089  -0.00110  -0.00000
   C      0.00000   0.00000   3.87595   0.00000   0.06288  -0.00000
   C      0.00000   0.00000  11.62784  -0.00000   0.06288  -0.00000
   O      0.65035   1.94109   9.04387   0.00981  -0.02048  -0.00002
   O      1.35586  -1.53376   9.04387  -0.00000  -0.00349   0.00005
   O     -2.00621  -0.40733   9.04387  -0.00981  -0.02048  -0.00002
   O     -1.35586   1.53376   6.45991   0.00000  -0.00349   0.00005
   O      2.00621   0.40733   6.45991  -0.00981  -0.02048  -0.00002
   O     -0.65035  -1.94109   6.45991   0.00981  -0.02048  -0.00002
PRIMCOORD   28
     10   1
   Ca     0.00000   0.00000   7.75189   0.00000   0.00000   0.00000
   Ca     0.00000   0.00000   0.00000   0.00000  -0.00000  -0.00000
   C      0.00000   0.00000   3.87595  -0.00000   0.06298  -0.00000
   C      0.00000   0.00000  11.62784   0.00000  -0.06298   0.00000
   O      0.65035   1.94109   9.04387   0.00944  -0.02048  -0.00011
   O      1.35586  -1.53376   9.04387   0.00000  -0.00413   0.00023
   O     -2.00621  -0.40733   9.04387  -0.00944  -0.02048  -0.00011
   O     -1.35586   1.53376   6.45991  -0.00000   0.00413  -0.00023
   O      2.00621   0.40733   6.45991   0.00944   0.02048   0.00011
   O     -0.65035  -1.94109   6.45991  -0.00944   0.02048   0.00011
PRIMCOORD   29
     10   1
   Ca     0.00000   0.00000   7.75189   0.00000   0.00000   0.00000
   Ca     0.00000   0.00000   0.00000   0.00000   0.00000   0.00000
   C      0.00000   0.00000   3.87595   0.06298   0.00000  -0.00000
   C      0.00000   0.00000  11.62784  -0.06298  -0.00000   0.00000
   O      0.65035   1.94109   9.04387  -0.00958   0.00944  -0.00020
   O      1.35586  -1.53376   9.04387  -0.02593  -0.00000   0.00000
   O     -2.00621  -0.40733   9.04387  -0.00958  -0.00944   0.00020
   O     -1.35586   1.53376   6.45991   0.02593   0.00000  -0.00000
   O      2.00621   0.40733   6.45991   0.00958   0.00944  -0.00020
   O     -0.65035  -1.94109   6.45991   0.00958  -0.00944   0.00020
PRIMCOORD   30
     10   1
   Ca     0.00000   0.00000   7.75189  -0.00167  -0.00050   0.00000
   Ca     0.00000   0.00000   0.00000  -0.00167   0.00050  -0.00000
   C      0.00000   0.00000   3.87595  -0.06159   0.00000   0.00000
   C      0.00000   0.00000  11.62784  -0.06159  -0.00000  -0.00000
   O      0.65035   1.94109   9.04387   0.01136  -0.00944   0.00049
   O      1.35586  -1.53376   9.04387   0.02770  -0.00000   0.00000
   O     -2.00621  -0.40733   9.04387   0.01136   0.00944  -0.00049
   O     -1.35586   1.53376   6.45991   0.02770   0.00000   0.00000
   O      2.00621   0.40733   6.45991   0.01136   0.00944  -0.00049
   O     -0.65035  -1.94109   6.45991   0.01136  -0.00944   0.00049
