MPI startup(): PMI server not found. Please set I_MPI_PMI_LIBRARY variable if it is not a singleton case.
[0] MPI startup(): I_MPI_JOB_FAST_STARTUP variable has been removed from the product, its value is ignored

[0] MPI startup(): I_MPI_OFI_LIBRARY variable has been removed from the product, its value is ignored


     Program PWSCF v.7.0 starts on  4May2022 at  5: 3:17 

     This program is part of the open-source Quantum ESPRESSO suite
     for quantum simulation of materials; please cite
         "P. Giannozzi et al., J. Phys.:Condens. Matter 21 395502 (2009);
         "P. Giannozzi et al., J. Phys.:Condens. Matter 29 465901 (2017);
         "P. Giannozzi et al., J. Chem. Phys. 152 154105 (2020);
          URL http://www.quantum-espresso.org", 
     in publications or presentations arising from this work. More details at
     http://www.quantum-espresso.org/quote

     Parallel version (MPI), running on     1 processors

     MPI processes distributed on     1 nodes
     91769 MiB available memory on the printing compute node when the environment starts
 
     Waiting for input...
     Reading input from standard input
Warning: card &CELL ignored
Warning: card  CELL_DYNAMICS = 'BFGS', ignored
Warning: card  PRESS=0.1D0, ignored
Warning: card / ignored

     Current dimensions of program PWSCF are:
     Max number of different atomic species (ntypx) = 10
     Max number of k-points (npk) =  40000
     Max angular momentum in pseudopotentials (lmaxx) =  4

     Subspace diagonalization in iterative solution of the eigenvalue problem:
     a serial algorithm will be used

 
     G-vector sticks info
     --------------------
     sticks:   dense  smooth     PW     G-vecs:    dense   smooth      PW
     Sum        2289    2289    663                67553    67553   10437
 
     Using Slab Decomposition
 


     bravais-lattice index     =            5
     lattice parameter (alat)  =      11.3568  a.u.
     unit-cell volume          =     852.5943 (a.u.)^3
     number of atoms/cell      =           10
     number of atomic types    =            3
     number of electrons       =        64.00
     number of Kohn-Sham states=           32
     kinetic-energy cutoff     =      70.0000  Ry
     charge density cutoff     =     280.0000  Ry
     scf convergence threshold =      1.0E-08
     mixing beta               =       0.7000
     number of iterations used =            8  plain     mixing
     energy convergence thresh.=      1.0E-04
     force convergence thresh. =      1.0E-03
     Exchange-correlation= SLA  PW   PBE  PBE
                           (   1   4   3   4   0   0   0)
     nstep                     =           50


     celldm(1)=  11.356800  celldm(2)=   0.000000  celldm(3)=   0.000000
     celldm(4)=   0.609200  celldm(5)=   0.000000  celldm(6)=   0.000000

     crystal axes: (cart. coord. in units of alat)
               a(1) = (   0.442041  -0.255212   0.859922 )  
               a(2) = (   0.000000   0.510425   0.859922 )  
               a(3) = (  -0.442041  -0.255212   0.859922 )  

     reciprocal axes: (cart. coord. in units 2 pi/alat)
               b(1) = (  1.131118 -0.653051  0.387632 )  
               b(2) = (  0.000000  1.306102  0.387632 )  
               b(3) = ( -1.131118 -0.653051  0.387632 )  


     PseudoPot. # 1 for Ca read from file:
     ./Ca_PBE.UPF
     MD5 check sum: 403a4c14b9e4d4dfdc3024c9a3812218
     Pseudo is Ultrasoft + core correction, Zval = 10.0
     Generated by new atomic code, or converted to UPF format
     Using radial grid of  845 points,  6 beta functions with: 
                l(1) =   0
                l(2) =   0
                l(3) =   1
                l(4) =   1
                l(5) =   2
                l(6) =   2
     Q(r) pseudized with  8 coefficients,  rinner =    1.500   1.500   1.500
                                                       1.500   1.500

     PseudoPot. # 2 for C  read from file:
     ./C_PBE.UPF
     MD5 check sum: d1aef80898a10debaa0f26306b886e00
     Pseudo is Ultrasoft + core correction, Zval =  4.0
     Generated by new atomic code, or converted to UPF format
     Using radial grid of  721 points,  4 beta functions with: 
                l(1) =   0
                l(2) =   0
                l(3) =   1
                l(4) =   1
     Q(r) pseudized with  8 coefficients,  rinner =    1.100   1.100   1.100


     PseudoPot. # 3 for O  read from file:
     ./O_PBE.UPF
     MD5 check sum: 734c27235a0248c51dbae37a1fbe46ec
     Pseudo is Ultrasoft + core correction, Zval =  6.0
     Generated by new atomic code, or converted to UPF format
     Using radial grid of  737 points,  5 beta functions with: 
                l(1) =   0
                l(2) =   0
                l(3) =   1
                l(4) =   1
                l(5) =   2
     Q(r) pseudized with  8 coefficients,  rinner =    0.900   0.900   0.900
                                                       0.900   0.900

     atomic species   valence    mass     pseudopotential
        Ca            10.00    40.07800     Ca( 1.00)
        C              4.00    12.01070     C ( 1.00)
        O              6.00    16.00000     O ( 1.00)

     12 Sym. Ops., with inversion, found ( 6 have fractional translation)



   Cartesian axes

     site n.     atom                  positions (alat units)
         1           Ca  tau(   1) = (   0.0000000  -0.0000000   1.2898837  )
         2           Ca  tau(   2) = (   0.0000000   0.0000000   0.0000000  )
         3           C   tau(   3) = (   0.0000000  -0.0000000   0.6449419  )
         4           C   tau(   4) = (   0.0000000  -0.0000000   1.9348256  )
         5           O   tau(   5) = (   0.1136120   0.3136430   1.5048643  )
         6           O   tau(   6) = (   0.2148168  -0.2552123   1.5048643  )
         7           O   tau(   7) = (  -0.3284288  -0.0584306   1.5048643  )
         8           O   tau(   8) = (  -0.2148168   0.2552123   1.0749031  )
         9           O   tau(   9) = (   0.3284288   0.0584306   1.0749031  )
        10           O   tau(  10) = (  -0.1136120  -0.3136430   1.0749031  )

     number of k points=    44
                       cart. coord. in units 2pi/alat
        k(    1) = (   0.0000000   0.0000000   0.0000000), wk =   0.0058309
        k(    2) = (  -0.1615882  -0.0932930   0.0553760), wk =   0.0349854
        k(    3) = (  -0.3231764  -0.1865860   0.1107520), wk =   0.0349854
        k(    4) = (  -0.4847646  -0.2798790   0.1661279), wk =   0.0349854
        k(    5) = (  -0.1615882   0.0932930   0.1107520), wk =   0.0349854
        k(    6) = (  -0.3231764  -0.0000000   0.1661279), wk =   0.0699708
        k(    7) = (  -0.4847646  -0.0932930   0.2215039), wk =   0.0699708
        k(    8) = (   0.4847646   0.4664650  -0.1107520), wk =   0.0699708
        k(    9) = (   0.3231764   0.3731720  -0.0553760), wk =   0.0699708
        k(   10) = (   0.1615882   0.2798790   0.0000000), wk =   0.0349854
        k(   11) = (  -0.3231764   0.1865860   0.2215039), wk =   0.0349854
        k(   12) = (  -0.4847646   0.0932930   0.2768799), wk =   0.0699708
        k(   13) = (   0.4847646   0.6530510  -0.0553760), wk =   0.0699708
        k(   14) = (   0.3231764   0.5597580   0.0000000), wk =   0.0349854
        k(   15) = (  -0.4847646   0.2798790   0.3322559), wk =   0.0349854
        k(   16) = (   0.4847646   0.8396370   0.0000000), wk =   0.0349854
        k(   17) = (   0.0000000  -0.0000000   0.1661279), wk =   0.0116618
        k(   18) = (  -0.1615882  -0.0932930   0.2215039), wk =   0.0349854
        k(   19) = (  -0.3231764  -0.1865860   0.2768799), wk =   0.0349854
        k(   20) = (   0.6463529   0.3731720  -0.0553760), wk =   0.0349854
        k(   21) = (   0.4847646   0.2798790   0.0000000), wk =   0.0349854
        k(   22) = (   0.3231764   0.1865860   0.0553760), wk =   0.0349854
        k(   23) = (  -0.1615882   0.0932930   0.2768799), wk =   0.0349854
        k(   24) = (  -0.3231764  -0.0000000   0.3322559), wk =   0.0699708
        k(   25) = (   0.6463529   0.5597580   0.0000000), wk =   0.0699708
        k(   26) = (   0.4847646   0.4664650   0.0553760), wk =   0.0699708
        k(   27) = (   0.3231764   0.3731720   0.1107520), wk =   0.0699708
        k(   28) = (  -0.3231764   0.1865860   0.3876318), wk =   0.0349854
        k(   29) = (   0.6463529   0.7463440   0.0553760), wk =   0.0699708
        k(   30) = (   0.4847646   0.6530510   0.1107520), wk =   0.0699708
        k(   31) = (   0.3231764   0.5597580   0.1661279), wk =   0.0699708
        k(   32) = (   0.6463529  -0.3731720  -0.2768799), wk =   0.0349854
        k(   33) = (   0.4847646  -0.4664650  -0.2215039), wk =   0.0699708
        k(   34) = (   0.4847646  -0.2798790  -0.1661279), wk =   0.0349854
        k(   35) = (   0.0000000  -0.0000000   0.3322559), wk =   0.0116618
        k(   36) = (  -0.1615882  -0.0932930   0.3876318), wk =   0.0349854
        k(   37) = (   0.8079411   0.4664650   0.0553760), wk =   0.0349854
        k(   38) = (   0.6463529   0.3731720   0.1107520), wk =   0.0349854
        k(   39) = (  -0.1615882   0.0932930   0.4430078), wk =   0.0349854
        k(   40) = (   0.8079411   0.6530510   0.1107520), wk =   0.0699708
        k(   41) = (   0.6463529   0.5597580   0.1661279), wk =   0.0699708
        k(   42) = (   0.8079411  -0.4664650  -0.2215039), wk =   0.0349854
        k(   43) = (   0.0000000  -0.0000000   0.4983838), wk =   0.0116618
        k(   44) = (   0.9695293   0.5597580   0.1661279), wk =   0.0349854

     Dense  grid:    67553 G-vectors     FFT dimensions: (  64,  64,  64)

     Estimated max dynamical RAM per process >     465.00 MB

     Check: negative core charge=   -0.000003

     Initial potential from superposition of free atoms

     starting charge      63.9890, renormalised to      64.0000
     Starting wfcs are   52 randomized atomic wfcs

     total cpu time spent up to now is       41.0 secs

     Self-consistent Calculation

     iteration #  1     ecut=    70.00 Ry     beta= 0.70
     CG style diagonalization
     ethr =  1.00E-02,  avg # of iterations =  2.5

     total cpu time spent up to now is      139.1 secs

     total energy              =    -366.51843148 Ry
     estimated scf accuracy    <       1.79249087 Ry

     iteration #  2     ecut=    70.00 Ry     beta= 0.70
     CG style diagonalization
     ethr =  2.80E-03,  avg # of iterations =  4.4

     total cpu time spent up to now is      296.1 secs

     total energy              =    -366.91676704 Ry
     estimated scf accuracy    <       2.35037614 Ry

     iteration #  3     ecut=    70.00 Ry     beta= 0.70
     CG style diagonalization
     ethr =  2.80E-03,  avg # of iterations =  3.8

     total cpu time spent up to now is      461.0 secs

     total energy              =    -367.34290708 Ry
     estimated scf accuracy    <       0.01354682 Ry

     iteration #  4     ecut=    70.00 Ry     beta= 0.70
     CG style diagonalization
     ethr =  2.12E-05,  avg # of iterations =  4.5

     total cpu time spent up to now is      675.0 secs

     total energy              =    -367.35610084 Ry
     estimated scf accuracy    <       0.00492557 Ry

     iteration #  5     ecut=    70.00 Ry     beta= 0.70
     CG style diagonalization
     ethr =  7.70E-06,  avg # of iterations =  3.6

     total cpu time spent up to now is      837.6 secs

     total energy              =    -367.35687561 Ry
     estimated scf accuracy    <       0.00017548 Ry

     iteration #  6     ecut=    70.00 Ry     beta= 0.70
     CG style diagonalization
     ethr =  2.74E-07,  avg # of iterations =  4.2

     total cpu time spent up to now is     1020.8 secs

     total energy              =    -367.35694147 Ry
     estimated scf accuracy    <       0.00001804 Ry

     iteration #  7     ecut=    70.00 Ry     beta= 0.70
     CG style diagonalization
     ethr =  2.82E-08,  avg # of iterations =  4.2

     total cpu time spent up to now is     1185.5 secs

     total energy              =    -367.35695166 Ry
     estimated scf accuracy    <       0.00000236 Ry

     iteration #  8     ecut=    70.00 Ry     beta= 0.70
     CG style diagonalization
     ethr =  3.69E-09,  avg # of iterations =  4.1

     total cpu time spent up to now is     1346.4 secs

     total energy              =    -367.35695246 Ry
     estimated scf accuracy    <       0.00000009 Ry

     iteration #  9     ecut=    70.00 Ry     beta= 0.70
     CG style diagonalization
     ethr =  1.34E-10,  avg # of iterations =  4.6

     total cpu time spent up to now is     1526.2 secs

     End of self-consistent calculation

          k = 0.0000 0.0000 0.0000 (  8415 PWs)   bands (ev):

   -33.6677 -33.6528 -16.0993 -16.0579 -15.0328 -15.0328 -14.7076 -14.7076
   -14.6839 -14.4881 -13.3916 -13.3916 -12.8274 -12.8274  -3.3188  -3.1803
    -1.2005  -1.2005  -1.1170  -1.0147  -1.0147   0.5066   2.5166   2.5166
     2.6828   2.6828   2.9980   2.9980   3.7037   3.9050   3.9050   4.2230

          k =-0.1616-0.0933 0.0554 (  8423 PWs)   bands (ev):

   -33.6670 -33.6535 -16.1358 -16.0340 -15.0292 -14.9671 -14.7525 -14.7096
   -14.6699 -14.5600 -13.3577 -13.2851 -12.9035 -12.8490  -3.2611  -3.2014
    -1.1802  -1.1750  -1.0908  -1.0083  -0.9634   0.3961   2.5284   2.5549
     2.6690   2.7666   2.8540   2.9284   3.7124   3.8099   3.9417   4.1898

          k =-0.3232-0.1866 0.1108 (  8427 PWs)   bands (ev):

   -33.6648 -33.6554 -16.1774 -16.0099 -15.0135 -14.9045 -14.8743 -14.7637
   -14.5884 -14.5591 -13.2750 -13.1356 -13.0493 -12.9142  -3.2144  -3.1554
    -1.2252  -1.1272  -1.0223  -1.0051  -0.7202   0.1735   2.4861   2.4979
     2.6102   2.6201   2.8943   2.9855   3.5847   3.6095   4.0987   4.1330

          k =-0.4848-0.2799 0.1661 (  8434 PWs)   bands (ev):

   -33.6617 -33.6584 -16.1500 -16.0643 -14.9498 -14.9160 -14.9068 -14.8452
   -14.5515 -14.5041 -13.1804 -13.1015 -13.0894 -13.0149  -3.1676  -3.1180
    -1.2460  -1.1752  -0.9835  -0.9506  -0.3839  -0.0728   2.3044   2.3753
     2.5489   2.5971   3.0218   3.0914   3.4466   3.4480   4.1342   4.1680

          k =-0.1616 0.0933 0.1108 (  8435 PWs)   bands (ev):

   -33.6668 -33.6537 -16.1403 -16.0322 -14.9995 -14.9934 -14.7233 -14.7049
   -14.6882 -14.5838 -13.3185 -13.3027 -12.8926 -12.8738  -3.2585  -3.2114
    -1.1769  -1.1629  -1.1038  -0.9900  -0.9509   0.3751   2.5387   2.5448
     2.6561   2.7432   2.8984   2.9428   3.6799   3.8515   3.9040   4.1748

          k =-0.3232-0.0000 0.1661 (  8432 PWs)   bands (ev):

   -33.6652 -33.6551 -16.1788 -16.0084 -14.9996 -14.9643 -14.7751 -14.7346
   -14.6289 -14.6018 -13.2634 -13.2027 -12.9890 -12.9149  -3.2301  -3.1756
    -1.2040  -1.1051  -1.1001  -0.9677  -0.7647   0.2051   2.4701   2.5706
     2.6036   2.6963   2.8310   3.0059   3.5299   3.7233   4.0532   4.1250

          k =-0.4848-0.0933 0.2215 (  8431 PWs)   bands (ev):

   -33.6626 -33.6575 -16.1668 -16.0488 -14.9972 -14.9333 -14.8273 -14.7994
   -14.5868 -14.5233 -13.2155 -13.1720 -13.0289 -12.9723  -3.1860  -3.1250
    -1.2165  -1.1655  -1.0297  -0.9365  -0.4682   0.0058   2.3153   2.4269
     2.5738   2.6001   2.9314   3.0708   3.4124   3.5672   4.1252   4.1646

          k = 0.4848 0.4665-0.1108 (  8430 PWs)   bands (ev):

   -33.6604 -33.6596 -16.1457 -16.0822 -14.9780 -14.9229 -14.8821 -14.7949
   -14.5621 -14.5096 -13.2190 -13.1374 -13.0521 -12.9901  -3.1623  -3.0999
    -1.2668  -1.1560  -0.9854  -0.9313  -0.2441  -0.1724   2.2506   2.3123
     2.5377   2.6171   2.9709   3.0573   3.4515   3.4798   4.1458   4.1921

          k = 0.3232 0.3732-0.0554 (  8438 PWs)   bands (ev):

   -33.6634 -33.6567 -16.2032 -15.9935 -15.0229 -14.9416 -14.8709 -14.7377
   -14.6241 -14.4867 -13.2499 -13.1712 -12.9995 -12.9703  -3.2217  -3.0799
    -1.2859  -1.0735  -1.0194  -0.9582  -0.5587   0.0551   2.2744   2.4947
     2.5375   2.6154   2.8549   3.1098   3.4782   3.5802   4.1050   4.1936

          k = 0.1616 0.2799 0.0000 (  8443 PWs)   bands (ev):

   -33.6657 -33.6545 -16.1845 -15.9944 -14.9952 -14.9768 -14.7861 -14.6922
   -14.6783 -14.5842 -13.2788 -13.2102 -12.9788 -12.9021  -3.2262  -3.1656
    -1.2263  -1.0920  -1.0902  -0.9780  -0.8317   0.2495   2.4651   2.5726
     2.6266   2.7403   2.7529   2.9699   3.6052   3.7315   4.0593   4.1421

          k =-0.3232 0.1866 0.2215 (  8436 PWs)   bands (ev):

   -33.6645 -33.6557 -16.2212 -15.9673 -15.0270 -14.9688 -14.7249 -14.6905
   -14.6853 -14.6076 -13.2455 -13.1860 -12.9948 -12.9454  -3.2714  -3.1077
    -1.2598  -1.1009  -1.0425  -0.9155  -0.6842   0.1104   2.3778   2.5402
     2.5951   2.7435   2.7913   3.1366   3.3534   3.7526   4.0581   4.1049

          k =-0.4848 0.0933 0.2769 (  8430 PWs)   bands (ev):

   -33.6630 -33.6571 -16.2308 -15.9772 -15.0549 -14.9480 -14.7681 -14.7184
   -14.6640 -14.5047 -13.3020 -13.1428 -13.0266 -12.9336  -3.2582  -3.0511
    -1.2756  -1.1213  -1.0187  -0.8777  -0.4845  -0.0122   2.2369   2.4445
     2.5857   2.7188   2.8358   3.0796   3.3289   3.6617   4.0421   4.2089

          k = 0.4848 0.6531-0.0554 (  8428 PWs)   bands (ev):

   -33.6608 -33.6591 -16.1639 -16.0833 -15.0155 -14.8924 -14.8100 -14.7336
   -14.6261 -14.5438 -13.2676 -13.1538 -13.0314 -12.9555  -3.1611  -3.0924
    -1.2268  -1.1941  -1.0189  -0.8746  -0.2505  -0.1307   2.1878   2.2705
     2.6052   2.6801   2.8859   2.9205   3.4400   3.5681   4.1401   4.2129

          k = 0.3232 0.5598 0.0000 (  8417 PWs)   bands (ev):

   -33.6614 -33.6586 -16.1800 -16.0519 -14.9932 -14.9460 -14.8745 -14.6847
   -14.6379 -14.4973 -13.2762 -13.1592 -13.0231 -12.9527  -3.1813  -3.0694
    -1.2999  -1.0672  -1.0356  -0.9170  -0.3276  -0.0745   2.1787   2.3101
     2.5522   2.6419   2.8738   3.0180   3.5103   3.5125   4.1360   4.2311

          k =-0.4848 0.2799 0.3323 (  8436 PWs)   bands (ev):

   -33.6627 -33.6573 -16.2785 -15.9042 -15.0979 -15.0510 -14.6943 -14.6917
   -14.6798 -14.4205 -13.3698 -13.2238 -12.9522 -12.9091  -3.3118  -2.9662
    -1.3499  -1.0831  -0.9667  -0.8319  -0.4468  -0.0867   2.1590   2.4069
     2.6367   2.7897   2.8369   2.9663   3.3434   3.6712   3.9480   4.2730

          k = 0.4848 0.8396 0.0000 (  8432 PWs)   bands (ev):

   -33.6620 -33.6580 -16.2534 -15.9639 -15.0542 -15.0109 -14.7167 -14.7014
   -14.6768 -14.4521 -13.3596 -13.1906 -12.9802 -12.9156  -3.2683  -2.9876
    -1.3114  -1.1350  -0.9817  -0.8302  -0.3492  -0.1049   2.1277   2.3413
     2.7105   2.7387   2.8394   2.8477   3.4049   3.6281   4.0030   4.2797

          k = 0.0000-0.0000 0.1661 (  8462 PWs)   bands (ev):

   -33.6670 -33.6535 -16.0999 -16.0623 -15.0210 -15.0210 -14.7304 -14.7304
   -14.6710 -14.4950 -13.3572 -13.3572 -12.8513 -12.8513  -3.3241  -3.2026
    -1.1881  -1.1881  -1.0236  -1.0213  -1.0213   0.4388   2.5259   2.5259
     2.6770   2.6770   3.0298   3.0298   3.7227   3.8488   3.8488   4.1843

          k =-0.1616-0.0933 0.2215 (  8434 PWs)   bands (ev):

   -33.6658 -33.6546 -16.1265 -16.0511 -15.0311 -14.9342 -14.8256 -14.6950
   -14.6641 -14.5404 -13.3368 -13.2302 -12.9508 -12.8671  -3.2771  -3.2197
    -1.1765  -1.1461  -1.0507  -1.0379  -0.8534   0.3009   2.5275   2.5741
     2.6489   2.7337   2.8713   3.0489   3.6751   3.7075   3.9270   4.1442

          k =-0.3232-0.1866 0.2769 (  8432 PWs)   bands (ev):

   -33.6635 -33.6567 -16.1359 -16.0688 -15.0005 -14.9279 -14.8716 -14.7446
   -14.5838 -14.5492 -13.2571 -13.1274 -13.0739 -12.9238  -3.2048  -3.1875
    -1.1763  -1.1474  -1.0335  -1.0147  -0.5799   0.0839   2.4647   2.5369
     2.6016   2.6032   2.8941   3.0972   3.4531   3.5676   4.0708   4.1260

          k = 0.6464 0.3732-0.0554 (  8428 PWs)   bands (ev):

   -33.6605 -33.6596 -16.1491 -16.0732 -15.0022 -14.9156 -14.8663 -14.8058
   -14.5689 -14.4954 -13.1783 -13.1772 -13.0576 -12.9843  -3.1968  -3.0935
    -1.2782  -1.1199  -0.9911  -0.9530  -0.2845  -0.1574   2.2883   2.3757
     2.5310   2.6481   2.9698   3.1961   3.3223   3.4636   4.1074   4.1767

          k = 0.4848 0.2799 0.0000 (  8427 PWs)   bands (ev):

   -33.6626 -33.6575 -16.2156 -15.9814 -15.0139 -14.9926 -14.8263 -14.7797
   -14.6092 -14.4538 -13.2677 -13.1235 -13.0360 -12.9738  -3.2363  -3.0429
    -1.3217  -1.0527  -1.0126  -0.9341  -0.4633  -0.0330   2.2299   2.4330
     2.5015   2.6855   2.8875   3.2166   3.3583   3.5413   4.0737   4.2140

          k = 0.3232 0.1866 0.0554 (  8425 PWs)   bands (ev):

   -33.6652 -33.6551 -16.2075 -15.9723 -15.0084 -14.9697 -14.7959 -14.7290
   -14.6385 -14.5740 -13.2718 -13.1578 -13.0197 -12.9201  -3.2440  -3.1199
    -1.2555  -1.1107  -1.0209  -0.9685  -0.7622   0.1805   2.4180   2.4994
     2.6833   2.6859   2.7369   3.0687   3.5142   3.7194   4.1040   4.1061

          k =-0.1616 0.0933 0.2769 (  8448 PWs)   bands (ev):

   -33.6652 -33.6552 -16.1383 -16.0454 -15.0067 -14.9462 -14.7897 -14.7213
   -14.6557 -14.5808 -13.2772 -13.2338 -12.9388 -12.9187  -3.2683  -3.2448
    -1.1789  -1.1288  -1.0852  -0.9880  -0.7964   0.2404   2.5344   2.5670
     2.6301   2.7048   2.9535   3.0822   3.5606   3.7877   3.8840   4.1075

          k =-0.3232-0.0000 0.3323 (  8442 PWs)   bands (ev):

   -33.6636 -33.6566 -16.1612 -16.0444 -14.9999 -14.9430 -14.8033 -14.6973
   -14.6467 -14.5951 -13.2254 -13.1822 -13.0126 -12.9500  -3.2372  -3.1995
    -1.1760  -1.1280  -1.0834  -0.9579  -0.5940   0.0757   2.4652   2.5210
     2.6103   2.7512   2.8486   3.1292   3.3705   3.6635   4.0360   4.0854

          k = 0.6464 0.5598 0.0000 (  8426 PWs)   bands (ev):

   -33.6613 -33.6588 -16.1206 -16.1144 -14.9948 -14.9244 -14.8200 -14.7458
   -14.5872 -14.5711 -13.2255 -13.1389 -13.0662 -12.9625  -3.1765  -3.1452
    -1.2364  -1.1244  -1.0439  -0.9230  -0.3423  -0.0939   2.3318   2.3525
     2.5928   2.6948   2.9093   3.0757   3.3609   3.5170   4.1171   4.1442

          k = 0.4848 0.4665 0.0554 (  8420 PWs)   bands (ev):

   -33.6612 -33.6588 -16.2016 -16.0229 -15.0111 -14.9652 -14.8438 -14.7196
   -14.6217 -14.4746 -13.2921 -13.1188 -13.0602 -12.9443  -3.2175  -3.0425
    -1.3206  -1.0580  -1.0096  -0.9213  -0.3080  -0.1231   2.1863   2.3442
     2.5228   2.7024   2.9019   3.0729   3.4177   3.5107   4.0883   4.2333

          k = 0.3232 0.3732 0.1108 (  8425 PWs)   bands (ev):

   -33.6635 -33.6566 -16.2261 -15.9669 -15.0490 -14.9540 -14.8365 -14.6898
   -14.6689 -14.4818 -13.2937 -13.1389 -13.0286 -12.9371  -3.2475  -3.0534
    -1.2982  -1.0812  -0.9934  -0.9421  -0.5634   0.0468   2.2458   2.5013
     2.5282   2.6634   2.8183   3.1394   3.4096   3.6384   4.0704   4.2087

          k =-0.3232 0.1866 0.3876 (  8437 PWs)   bands (ev):

   -33.6630 -33.6572 -16.2137 -15.9927 -15.0582 -14.9107 -14.7350 -14.7204
   -14.6707 -14.5822 -13.2110 -13.2063 -12.9876 -12.9754  -3.2869  -3.1168
    -1.2644  -1.0824  -1.0375  -0.9038  -0.5149  -0.0223   2.3612   2.4974
     2.6603   2.7668   2.8655   3.1532   3.2142   3.6906   4.0174   4.1061

          k = 0.6464 0.7463 0.0554 (  8439 PWs)   bands (ev):

   -33.6618 -33.6582 -16.2134 -16.0162 -15.0387 -14.9384 -14.7286 -14.7028
   -14.6831 -14.5440 -13.2698 -13.1795 -12.9964 -12.9602  -3.2498  -3.0707
    -1.2676  -1.1356  -0.9999  -0.8770  -0.3624  -0.1050   2.2453   2.3858
     2.7023   2.7748   2.8329   2.9453   3.3342   3.6061   4.0406   4.1931

          k = 0.4848 0.6531 0.1108 (  8411 PWs)   bands (ev):

   -33.6603 -33.6597 -16.1423 -16.1134 -14.9881 -14.9333 -14.7607 -14.6867
   -14.6549 -14.5912 -13.2371 -13.1923 -13.0033 -12.9735  -3.1397  -3.1154
    -1.2357  -1.1972  -0.9799  -0.8942  -0.2048  -0.1694   2.2036   2.2329
     2.6508   2.7171   2.8607   2.8789   3.4596   3.5286   4.1601   4.1888

          k = 0.3232 0.5598 0.1661 (  8426 PWs)   bands (ev):

   -33.6612 -33.6587 -16.1761 -16.0604 -15.0095 -14.9254 -14.8378 -14.7295
   -14.6169 -14.5106 -13.2772 -13.1499 -13.0322 -12.9511  -3.1760  -3.0756
    -1.2663  -1.1600  -0.9590  -0.9347  -0.3021  -0.0915   2.1807   2.3000
     2.5809   2.6352   2.8768   2.9875   3.4774   3.5486   4.1347   4.2264

          k = 0.6464-0.3732-0.2769 (  8425 PWs)   bands (ev):

   -33.6620 -33.6580 -16.2645 -15.9338 -15.0995 -15.0184 -14.7159 -14.6885
   -14.6714 -14.4283 -13.3443 -13.2391 -12.9408 -12.9284  -3.3035  -2.9808
    -1.3499  -1.0715  -0.9591  -0.8587  -0.3681  -0.1390   2.1704   2.3890
     2.6803   2.7962   2.8396   2.9376   3.3367   3.6215   3.9637   4.2602

          k = 0.4848-0.4665-0.2215 (  8431 PWs)   bands (ev):

   -33.6618 -33.6582 -16.2398 -15.9798 -15.0371 -15.0064 -14.7654 -14.6870
   -14.6662 -14.4573 -13.3421 -13.1705 -13.0032 -12.9208  -3.2550  -3.0021
    -1.3223  -1.1130  -0.9558  -0.8831  -0.3411  -0.1058   2.1424   2.3449
     2.5983   2.7487   2.8617   2.9554   3.4036   3.5879   4.0291   4.2666

          k = 0.4848-0.2799-0.1661 (  8426 PWs)   bands (ev):

   -33.6629 -33.6571 -16.2608 -15.9215 -15.0606 -15.0510 -14.7458 -14.7193
   -14.6558 -14.4267 -13.3404 -13.1797 -12.9856 -12.9258  -3.2876  -2.9881
    -1.3476  -1.0680  -0.9494  -0.9035  -0.4849  -0.0433   2.1788   2.4436
     2.5161   2.7518   2.8436   3.1735   3.3040   3.6346   3.9955   4.2535

          k = 0.0000-0.0000 0.3323 (  8453 PWs)   bands (ev):

   -33.6649 -33.6556 -16.1000 -16.0734 -14.9861 -14.9861 -14.7885 -14.7885
   -14.6368 -14.5157 -13.2662 -13.2662 -12.9196 -12.9196  -3.3328  -3.2534
    -1.1554  -1.1554  -1.0409  -1.0409  -0.7711   0.2408   2.5510   2.5510
     2.6576   2.6576   3.1283   3.1283   3.6975   3.6975   3.7775   4.0870

          k =-0.1616-0.0933 0.3876 (  8449 PWs)   bands (ev):

   -33.6635 -33.6568 -16.1122 -16.0779 -15.0066 -14.8950 -14.8938 -14.7247
   -14.6357 -14.5417 -13.2622 -13.1517 -13.0265 -12.9240  -3.2950  -3.2506
    -1.1594  -1.0955  -1.0715  -1.0421  -0.6084   0.0961   2.5338   2.5800
     2.6308   2.6862   2.9787   3.2263   3.4801   3.6318   3.9067   4.0627

          k = 0.8079 0.4665 0.0554 (  8438 PWs)   bands (ev):

   -33.6615 -33.6587 -16.1316 -16.0873 -15.0302 -14.8932 -14.8678 -14.6957
   -14.6374 -14.5324 -13.2371 -13.1380 -13.0727 -12.9407  -3.2516  -3.1625
    -1.2280  -1.0440  -1.0318  -1.0266  -0.3939  -0.0811   2.4024   2.4912
     2.6663   2.7281   2.8164   3.2592   3.2999   3.4986   4.0268   4.1108

          k = 0.6464 0.3732 0.1108 (  8431 PWs)   bands (ev):

   -33.6609 -33.6592 -16.2194 -15.9962 -15.0658 -14.9699 -14.7824 -14.7293
   -14.6313 -14.4523 -13.2725 -13.2202 -12.9812 -12.9526  -3.2629  -3.0269
    -1.3341  -1.0371  -0.9728  -0.9459  -0.2649  -0.2002   2.2140   2.3949
     2.5606   2.7473   2.8963   3.1286   3.3081   3.5151   4.0292   4.2213

          k =-0.1616 0.0933 0.4430 (  8457 PWs)   bands (ev):

   -33.6627 -33.6576 -16.1270 -16.0679 -14.9998 -14.8782 -14.8674 -14.7739
   -14.6083 -14.5771 -13.2144 -13.1289 -13.0340 -12.9749  -3.2802  -3.2779
    -1.1655  -1.0904  -1.0886  -1.0050  -0.5154   0.0050   2.5382   2.5667
     2.6410   2.6623   3.0748   3.2606   3.3634   3.6381   3.9169   4.0186

          k = 0.8079 0.6531 0.1108 (  8447 PWs)   bands (ev):

   -33.6614 -33.6589 -16.1307 -16.0893 -14.9834 -14.9544 -14.7839 -14.7236
   -14.6290 -14.5955 -13.1846 -13.1659 -13.0245 -12.9957  -3.2373  -3.2239
    -1.1677  -1.1528  -1.0220  -0.9742  -0.3640  -0.1246   2.4557   2.4705
     2.6776   2.7421   2.9416   3.1131   3.3666   3.5349   4.0286   4.0461

          k = 0.6464 0.5598 0.1661 (  8437 PWs)   bands (ev):

   -33.6603 -33.6597 -16.1731 -16.0681 -15.0091 -14.9405 -14.7655 -14.6870
   -14.6542 -14.5733 -13.2194 -13.1985 -13.0114 -12.9713  -3.2213  -3.1047
    -1.2661  -1.1272  -0.9523  -0.9485  -0.2247  -0.2171   2.2766   2.3556
     2.6957   2.7812   2.8346   2.9643   3.4029   3.4908   4.0708   4.1663

          k = 0.8079-0.4665-0.2215 (  8453 PWs)   bands (ev):

   -33.6609 -33.6592 -16.1829 -16.0368 -15.0583 -14.8730 -14.8169 -14.7055
   -14.6577 -14.5447 -13.2262 -13.1667 -13.0368 -12.9583  -3.2812  -3.1380
    -1.2581  -1.0581  -1.0267  -0.9490  -0.2959  -0.1983   2.3674   2.4719
     2.7336   2.7505   2.8741   3.0812   3.3191   3.5569   4.0024   4.1059

          k = 0.0000-0.0000 0.4984 (  8468 PWs)   bands (ev):

   -33.6619 -33.6586 -16.0959 -16.0863 -14.9309 -14.9309 -14.8613 -14.8613
   -14.5924 -14.5494 -13.1457 -13.1457 -13.0230 -13.0230  -3.3295  -3.3023
    -1.1132  -1.1132  -1.0726  -1.0726  -0.4252  -0.0639   2.5865   2.5865
     2.6251   2.6251   3.2908   3.2908   3.4945   3.4945   3.8622   3.9699

          k = 0.9695 0.5598 0.1661 (  8451 PWs)   bands (ev):

   -33.6606 -33.6597 -16.1057 -16.0920 -14.9808 -14.9246 -14.8481 -14.7867
   -14.5973 -14.5662 -13.1673 -13.1059 -13.0732 -13.0038  -3.2989  -3.2734
    -1.1501  -1.0929  -1.0637  -1.0377  -0.2975  -0.1933   2.5398   2.5714
     2.6332   2.6588   3.1439   3.2713   3.4194   3.4769   3.9431   3.9806

     highest occupied level (ev):     4.2797

!    total energy              =    -367.35695254 Ry
     estimated scf accuracy    <          7.9E-09 Ry

     The total energy is the sum of the following terms:
     one-electron contribution =    -134.79283329 Ry
     hartree contribution      =      97.01647312 Ry
     xc contribution           =     -74.74423909 Ry
     ewald contribution        =    -254.83635329 Ry

     convergence has been achieved in   9 iterations

     Forces acting on atoms (cartesian axes, Ry/au):

     atom    1 type  1   force =     0.00000000   -0.00000000    0.00000000
     atom    2 type  1   force =     0.00000000    0.00000000    0.00000000
     atom    3 type  2   force =    -0.00000000   -0.00000000   -0.00000000
     atom    4 type  2   force =     0.00000000    0.00000000   -0.00000000
     atom    5 type  3   force =    -0.06627238    0.11478713    0.00000000
     atom    6 type  3   force =     0.13254476   -0.00000000    0.00000000
     atom    7 type  3   force =    -0.06627238   -0.11478713   -0.00000000
     atom    8 type  3   force =    -0.13254476   -0.00000000   -0.00000000
     atom    9 type  3   force =     0.06627238    0.11478713    0.00000000
     atom   10 type  3   force =     0.06627238   -0.11478713   -0.00000000

     Total force =     0.324667     Total SCF correction =     0.000252


     Computing stress (Cartesian axis) and pressure

          total   stress  (Ry/bohr**3)                   (kbar)     P=     -115.78
  -0.00133452   0.00000000   0.00000000         -196.32        0.00        0.00
   0.00000000  -0.00133452  -0.00000000            0.00     -196.32       -0.00
   0.00000000  -0.00000000   0.00030778            0.00       -0.00       45.28


     BFGS Geometry Optimization
     Energy error            =      0.0E+00 Ry
     Gradient error          =      1.3E-01 Ry/Bohr

     number of scf cycles    =   1
     number of bfgs steps    =   0

     energy             new  =    -367.3569525390 Ry

     new trust radius        =       0.1325447614 bohr
     new conv_thr            =       0.0000000100 Ry


ATOMIC_POSITIONS (crystal)
Ca            0.5000000000        0.5000000000        0.5000000000
Ca            0.0000000000        0.0000000000        0.0000000000
C             0.2500000000        0.2500000000        0.2500000000
C             0.7500000000        0.7500000000        0.7500000000
O             0.4938157275        1.0061842725        0.2500000000
O             1.0061842725        0.2500000000        0.4938157275
O             0.2500000000        0.4938157275        1.0061842725
O            -0.0061842725        0.7500000000        0.5061842725
O             0.7500000000        0.5061842725       -0.0061842725
O             0.5061842725       -0.0061842725        0.7500000000



     Writing config-only to output data dir ./CCO_rand1.save/
     NEW-OLD atomic charge density approx. for the potential

     Check: negative core charge=   -0.000003

     total cpu time spent up to now is     1567.5 secs

     Self-consistent Calculation

     iteration #  1     ecut=    70.00 Ry     beta= 0.70
     CG style diagonalization
     c_bands:  2 eigenvalues not converged
     c_bands:  4 eigenvalues not converged
     c_bands:  4 eigenvalues not converged
     c_bands:  5 eigenvalues not converged
     c_bands:  5 eigenvalues not converged
     c_bands:  4 eigenvalues not converged
     c_bands:  3 eigenvalues not converged
     c_bands:  5 eigenvalues not converged
     c_bands:  4 eigenvalues not converged
     c_bands:  5 eigenvalues not converged
     c_bands:  3 eigenvalues not converged
     c_bands:  4 eigenvalues not converged
     c_bands:  5 eigenvalues not converged
     c_bands:  4 eigenvalues not converged
     c_bands:  2 eigenvalues not converged
     ethr =  1.00E-06,  avg # of iterations = 16.5

     total cpu time spent up to now is     2211.1 secs

     total energy              =    -367.38498429 Ry
     estimated scf accuracy    <       0.06038486 Ry

     iteration #  2     ecut=    70.00 Ry     beta= 0.70
     CG style diagonalization
     ethr =  9.44E-05,  avg # of iterations =  4.0

     total cpu time spent up to now is     2367.6 secs

     total energy              =    -367.40077133 Ry
     estimated scf accuracy    <       0.03075662 Ry

     iteration #  3     ecut=    70.00 Ry     beta= 0.70
     CG style diagonalization
     ethr =  4.81E-05,  avg # of iterations =  3.6

     total cpu time spent up to now is     2507.5 secs

     total energy              =    -367.40832682 Ry
     estimated scf accuracy    <       0.00074398 Ry

     iteration #  4     ecut=    70.00 Ry     beta= 0.70
     CG style diagonalization
     ethr =  1.16E-06,  avg # of iterations =  4.1

     total cpu time spent up to now is     2668.7 secs

     total energy              =    -367.40880672 Ry
     estimated scf accuracy    <       0.00019399 Ry

     iteration #  5     ecut=    70.00 Ry     beta= 0.70
     CG style diagonalization
     ethr =  3.03E-07,  avg # of iterations =  3.5

     total cpu time spent up to now is     2806.5 secs

     total energy              =    -367.40883400 Ry
     estimated scf accuracy    <       0.00000748 Ry

     iteration #  6     ecut=    70.00 Ry     beta= 0.70
     CG style diagonalization
     ethr =  1.17E-08,  avg # of iterations =  4.2

     total cpu time spent up to now is     2969.5 secs

     total energy              =    -367.40883683 Ry
     estimated scf accuracy    <       0.00000135 Ry

     iteration #  7     ecut=    70.00 Ry     beta= 0.70
     CG style diagonalization
     ethr =  2.11E-09,  avg # of iterations =  4.1

     total cpu time spent up to now is     3128.4 secs

     total energy              =    -367.40883729 Ry
     estimated scf accuracy    <       0.00000009 Ry

     iteration #  8     ecut=    70.00 Ry     beta= 0.70
     CG style diagonalization
     ethr =  1.46E-10,  avg # of iterations =  4.0

     total cpu time spent up to now is     3285.2 secs

     End of self-consistent calculation

          k = 0.0000 0.0000 0.0000 (  8415 PWs)   bands (ev):

   -33.8962 -33.8826 -16.9173 -16.7958 -15.1875 -15.1875 -14.9111 -14.9111
   -14.8983 -14.8426 -13.7592 -13.7592 -13.2772 -13.2772  -3.1287  -2.8635
    -1.5122  -1.3395  -1.3395  -1.1735  -1.1735  -0.0944   2.5484   2.5484
     2.7106   2.7106   2.9936   2.9936   3.9296   3.9296   4.0469   4.5165

          k =-0.1616-0.0933 0.0554 (  8423 PWs)   bands (ev):

   -33.8955 -33.8832 -16.9302 -16.7876 -15.1857 -15.1383 -14.9643 -14.9190
   -14.8901 -14.8733 -13.7301 -13.6704 -13.3447 -13.2945  -3.0637  -2.8864
    -1.4654  -1.3264  -1.2933  -1.1780  -1.1710  -0.1761   2.5420   2.5643
     2.7119   2.7951   2.8579   2.9446   3.8275   3.8443   4.1761   4.4809

          k =-0.3232-0.1866 0.1108 (  8427 PWs)   bands (ev):

   -33.8935 -33.8850 -16.9398 -16.7903 -15.1766 -15.0824 -15.0696 -14.9644
   -14.8683 -14.8262 -13.6600 -13.5425 -13.4703 -13.3472  -2.9341  -2.9058
    -1.4521  -1.2928  -1.1975  -1.1755  -1.0718  -0.3444   2.5031   2.5043
     2.6112   2.6311   2.9572   3.0109   3.6506   3.6635   4.3637   4.4197

          k =-0.4848-0.2799 0.1661 (  8434 PWs)   bands (ev):

   -33.8907 -33.8876 -16.9071 -16.8397 -15.1248 -15.0943 -15.0829 -15.0338
   -14.8393 -14.8004 -13.5810 -13.5136 -13.4977 -13.4306  -2.8767  -2.8598
    -1.4483  -1.3635  -1.1722  -1.1405  -0.7937  -0.5364   2.3250   2.3878
     2.5605   2.5930   3.0813   3.1284   3.5085   3.5120   4.4144   4.4400

          k =-0.1616 0.0933 0.1108 (  8435 PWs)   bands (ev):

   -33.8953 -33.8834 -16.9310 -16.7878 -15.1621 -15.1593 -14.9417 -14.9154
   -14.9012 -14.8961 -13.6956 -13.6861 -13.3353 -13.3163  -3.0608  -2.9005
    -1.4322  -1.3235  -1.3129  -1.1810  -1.1519  -0.1929   2.5530   2.5542
     2.7092   2.7573   2.9081   2.9598   3.7605   3.8836   4.1740   4.4674

          k =-0.3232-0.0000 0.1661 (  8432 PWs)   bands (ev):

   -33.8938 -33.8847 -16.9422 -16.7860 -15.1674 -15.1366 -14.9812 -14.9575
   -14.8897 -14.8565 -13.6501 -13.5981 -13.4202 -13.3493  -2.9620  -2.9238
    -1.4131  -1.3024  -1.2679  -1.1356  -1.0928  -0.3228   2.4847   2.5700
     2.6325   2.7152   2.8599   3.0456   3.5832   3.7782   4.3243   4.4150

          k =-0.4848-0.0933 0.2215 (  8431 PWs)   bands (ev):

   -33.8915 -33.8869 -16.9210 -16.8246 -15.1656 -15.1156 -15.0249 -14.9914
   -14.8646 -14.8086 -13.6063 -13.5755 -13.4479 -13.3973  -2.8903  -2.8788
    -1.4178  -1.3515  -1.2288  -1.1178  -0.8554  -0.4773   2.3380   2.4440
     2.5760   2.6167   2.9777   3.1186   3.4634   3.6302   4.4111   4.4331

          k = 0.4848 0.4665-0.1108 (  8430 PWs)   bands (ev):

   -33.8895 -33.8887 -16.8964 -16.8566 -15.1526 -15.1040 -15.0632 -14.9894
   -14.8388 -14.8145 -13.6104 -13.5433 -13.4637 -13.4140  -2.8802  -2.8278
    -1.4625  -1.3544  -1.1835  -1.1210  -0.6837  -0.6105   2.2683   2.3336
     2.5544   2.6207   3.0239   3.1078   3.5012   3.5449   4.4194   4.4693

          k = 0.3232 0.3732-0.0554 (  8438 PWs)   bands (ev):

   -33.8922 -33.8861 -16.9464 -16.7919 -15.1911 -15.1126 -15.0557 -14.9490
   -14.8778 -14.7877 -13.6398 -13.5724 -13.4218 -13.3969  -2.9160  -2.8409
    -1.4886  -1.2636  -1.2024  -1.1377  -0.9509  -0.4328   2.2936   2.4990
     2.5633   2.6156   2.9194   3.1389   3.5270   3.6407   4.3884   4.4658

          k = 0.1616 0.2799 0.0000 (  8443 PWs)   bands (ev):

   -33.8944 -33.8842 -16.9488 -16.7752 -15.1567 -15.1530 -14.9826 -14.9496
   -14.9015 -14.8485 -13.6626 -13.6066 -13.4123 -13.3377  -2.9547  -2.9111
    -1.4550  -1.2773  -1.2577  -1.1471  -1.1458  -0.2868   2.4744   2.5750
     2.6359   2.7543   2.8127   2.9973   3.6703   3.7768   4.3271   4.4300

          k =-0.3232 0.1866 0.2215 (  8436 PWs)   bands (ev):

   -33.8933 -33.8852 -16.9613 -16.7695 -15.1902 -15.1513 -14.9574 -14.9087
   -14.8938 -14.8865 -13.6317 -13.5801 -13.4255 -13.3810  -2.9667  -2.8894
    -1.4176  -1.2889  -1.2823  -1.0837  -1.0292  -0.3990   2.4005   2.5521
     2.6539   2.7288   2.8236   3.1712   3.3979   3.7950   4.3511   4.3914

          k =-0.4848 0.0933 0.2769 (  8430 PWs)   bands (ev):

   -33.8918 -33.8865 -16.9581 -16.7850 -15.2155 -15.1421 -14.9812 -14.9191
   -14.8933 -14.8075 -13.6779 -13.5405 -13.4503 -13.3720  -2.9575  -2.8122
    -1.4335  -1.3210  -1.2638  -1.0531  -0.8694  -0.4938   2.2649   2.4906
     2.6037   2.7184   2.8744   3.1211   3.3736   3.7136   4.3324   4.4858

          k = 0.4848 0.6531-0.0554 (  8428 PWs)   bands (ev):

   -33.8899 -33.8883 -16.9072 -16.8524 -15.1811 -15.0962 -15.0132 -14.9508
   -14.8782 -14.8294 -13.6466 -13.5517 -13.4524 -13.3881  -2.8741  -2.8239
    -1.4308  -1.3643  -1.2578  -1.0593  -0.6712  -0.5912   2.2207   2.3012
     2.6229   2.6861   2.9381   2.9731   3.4948   3.6235   4.4195   4.4835

          k = 0.3232 0.5598 0.0000 (  8417 PWs)   bands (ev):

   -33.8904 -33.8879 -16.9207 -16.8336 -15.1761 -15.1204 -15.0547 -14.9000
   -14.8924 -14.8071 -13.6589 -13.5603 -13.4386 -13.3846  -2.8886  -2.8056
    -1.4992  -1.2595  -1.2415  -1.1048  -0.7597  -0.5282   2.2005   2.3387
     2.5707   2.6494   2.9299   3.0645   3.5559   3.5757   4.4119   4.5041

          k =-0.4848 0.2799 0.3323 (  8436 PWs)   bands (ev):

   -33.8916 -33.8867 -16.9850 -16.7542 -15.2547 -15.2155 -14.9068 -14.8996
   -14.8846 -14.7650 -13.7347 -13.6037 -13.3870 -13.3530  -3.0081  -2.7243
    -1.4946  -1.2988  -1.2251  -1.0077  -0.8457  -0.5535   2.1875   2.4827
     2.6637   2.7669   2.8699   3.0075   3.3863   3.7156   4.2477   4.5535

          k = 0.4848 0.8396 0.0000 (  8432 PWs)   bands (ev):

   -33.8909 -33.8873 -16.9655 -16.7849 -15.2137 -15.2015 -14.9264 -14.9160
   -14.8836 -14.7851 -13.7240 -13.5756 -13.4122 -13.3574  -2.9690  -2.7339
    -1.4604  -1.3526  -1.2408  -1.0096  -0.7605  -0.5672   2.1591   2.4033
     2.7255   2.7393   2.8820   2.8919   3.4547   3.6760   4.2943   4.5551

          k = 0.0000-0.0000 0.1661 (  8462 PWs)   bands (ev):

   -33.8955 -33.8832 -16.9128 -16.8033 -15.1774 -15.1774 -14.9305 -14.9305
   -14.8935 -14.8435 -13.7297 -13.7297 -13.2974 -13.2974  -3.1314  -2.9018
    -1.4162  -1.3288  -1.3288  -1.1796  -1.1796  -0.1460   2.5575   2.5575
     2.6982   2.6982   3.0337   3.0337   3.8747   3.8747   4.0630   4.4824

          k =-0.1616-0.0933 0.2215 (  8434 PWs)   bands (ev):

   -33.8944 -33.8842 -16.9185 -16.8047 -15.1902 -15.1049 -15.0219 -14.9060
   -14.8928 -14.8598 -13.7132 -13.6216 -13.3843 -13.3094  -3.0747  -2.9251
    -1.3800  -1.3218  -1.2296  -1.2012  -1.1538  -0.2505   2.5532   2.5785
     2.6704   2.7624   2.8852   3.0768   3.7120   3.7996   4.1829   4.4418

          k =-0.3232-0.1866 0.2769 (  8432 PWs)   bands (ev):

   -33.8923 -33.8862 -16.9095 -16.8296 -15.1709 -15.1078 -15.0477 -14.9537
   -14.8542 -14.8405 -13.6457 -13.5335 -13.4889 -13.3550  -2.9738  -2.8973
    -1.3722  -1.3403  -1.2093  -1.1900  -0.9436  -0.4187   2.4896   2.5492
     2.6096   2.6098   2.9269   3.1486   3.5039   3.6389   4.3361   4.4198

          k = 0.6464 0.3732-0.0554 (  8428 PWs)   bands (ev):

   -33.8896 -33.8887 -16.8926 -16.8583 -15.1701 -15.0949 -15.0534 -14.9969
   -14.8338 -14.8148 -13.5752 -13.5726 -13.4745 -13.4080  -2.9260  -2.8174
    -1.4608  -1.3272  -1.1891  -1.1416  -0.6970  -0.6161   2.3079   2.4059
     2.5419   2.6432   3.0111   3.2459   3.3728   3.5406   4.3757   4.4639

          k = 0.4848 0.2799 0.0000 (  8427 PWs)   bands (ev):

   -33.8915 -33.8868 -16.9487 -16.7923 -15.1796 -15.1600 -15.0151 -14.9787
   -14.8616 -14.7726 -13.6526 -13.5252 -13.4559 -13.4026  -2.9347  -2.7948
    -1.5116  -1.2569  -1.1935  -1.1266  -0.8745  -0.4993   2.2527   2.4481
     2.5310   2.6693   2.9465   3.2468   3.4043   3.6125   4.3531   4.4934

          k = 0.3232 0.1866 0.0554 (  8425 PWs)   bands (ev):

   -33.8938 -33.8847 -16.9581 -16.7684 -15.1751 -15.1404 -15.0098 -14.9420
   -14.8838 -14.8423 -13.6556 -13.5600 -13.4469 -13.3553  -2.9303  -2.9029
    -1.4593  -1.2853  -1.2303  -1.1384  -1.0925  -0.3401   2.4377   2.5047
     2.6739   2.7037   2.8071   3.0919   3.5672   3.7681   4.3807   4.3942

          k =-0.1616 0.0933 0.2769 (  8448 PWs)   bands (ev):

   -33.8939 -33.8847 -16.9205 -16.8051 -15.1719 -15.1143 -14.9976 -14.9285
   -14.8916 -14.8827 -13.6631 -13.6224 -13.3725 -13.3567  -3.0647  -2.9584
    -1.3421  -1.2902  -1.2836  -1.1499  -1.1382  -0.2990   2.5510   2.5892
     2.6584   2.7187   2.9771   3.1074   3.6053   3.8199   4.1894   4.4072

          k =-0.3232-0.0000 0.3323 (  8442 PWs)   bands (ev):

   -33.8924 -33.8861 -16.9227 -16.8148 -15.1683 -15.1249 -14.9942 -14.9365
   -14.8941 -14.8640 -13.6180 -13.5767 -13.4389 -13.3808  -2.9772  -2.9523
    -1.3293  -1.3119  -1.2966  -1.1270  -0.9637  -0.4280   2.4854   2.5631
     2.6102   2.7552   2.8845   3.1759   3.4154   3.7179   4.3192   4.3791

          k = 0.6464 0.5598 0.0000 (  8426 PWs)   bands (ev):

   -33.8903 -33.8880 -16.8866 -16.8669 -15.1667 -15.1065 -15.0265 -14.9530
   -14.8663 -14.8421 -13.6111 -13.5410 -13.4833 -13.3925  -2.9189  -2.8655
    -1.4188  -1.2917  -1.2815  -1.1077  -0.7442  -0.5645   2.3580   2.3881
     2.6052   2.6990   2.9403   3.1297   3.4132   3.5871   4.3900   4.4293

          k = 0.4848 0.4665 0.0554 (  8420 PWs)   bands (ev):

   -33.8903 -33.8880 -16.9320 -16.8202 -15.1879 -15.1363 -15.0373 -14.9243
   -14.8652 -14.7986 -13.6697 -13.5169 -13.4800 -13.3781  -2.9264  -2.7797
    -1.5075  -1.2684  -1.2026  -1.1186  -0.7439  -0.5660   2.2095   2.3824
     2.5465   2.6946   2.9471   3.1196   3.4621   3.5830   4.3637   4.5119

          k = 0.3232 0.3732 0.1108 (  8425 PWs)   bands (ev):

   -33.8923 -33.8860 -16.9596 -16.7776 -15.2119 -15.1298 -15.0314 -14.9118
   -14.8962 -14.7875 -13.6745 -13.5442 -13.4456 -13.3729  -2.9402  -2.8170
    -1.4862  -1.2763  -1.2006  -1.1186  -0.9473  -0.4409   2.2687   2.5148
     2.5603   2.6635   2.8711   3.1708   3.4516   3.6954   4.3579   4.4839

          k =-0.3232 0.1866 0.3876 (  8437 PWs)   bands (ev):

   -33.8919 -33.8866 -16.9477 -16.7921 -15.2181 -15.1117 -14.9504 -14.9279
   -14.8912 -14.8757 -13.5978 -13.5965 -13.4199 -13.4073  -3.0002  -2.8905
    -1.4140  -1.2675  -1.2606  -1.0758  -0.9086  -0.5063   2.3864   2.5552
     2.6682   2.7526   2.9096   3.1919   3.2661   3.7312   4.3115   4.3976

          k = 0.6464 0.7463 0.0554 (  8439 PWs)   bands (ev):

   -33.8908 -33.8875 -16.9406 -16.8110 -15.2033 -15.1387 -14.9458 -14.9295
   -14.8917 -14.8428 -13.6479 -13.5688 -13.4263 -13.3958  -2.9619  -2.8231
    -1.4256  -1.3344  -1.2365  -1.0583  -0.7739  -0.5685   2.2764   2.4383
     2.7137   2.7627   2.8868   2.9837   3.3980   3.6564   4.3274   4.4724

          k = 0.4848 0.6531 0.1108 (  8411 PWs)   bands (ev):

   -33.8894 -33.8888 -16.8912 -16.8715 -15.1595 -15.1220 -14.9816 -14.9440
   -14.8857 -14.8550 -13.6193 -13.5816 -13.4309 -13.4049  -2.8588  -2.8412
    -1.4364  -1.3825  -1.2013  -1.0881  -0.6365  -0.6199   2.2405   2.2683
     2.6666   2.7177   2.9155   2.9284   3.5212   3.5867   4.4364   4.4606

          k = 0.3232 0.5598 0.1661 (  8426 PWs)   bands (ev):

   -33.8903 -33.8880 -16.9173 -16.8386 -15.1820 -15.1087 -15.0377 -14.9363
   -14.8716 -14.8137 -13.6578 -13.5521 -13.4480 -13.3834  -2.8847  -2.8106
    -1.4607  -1.3625  -1.1629  -1.1269  -0.7261  -0.5482   2.2063   2.3283
     2.5964   2.6457   2.9342   3.0363   3.5244   3.6067   4.4128   4.4987

          k = 0.6464-0.3732-0.2769 (  8425 PWs)   bands (ev):

   -33.8909 -33.8873 -16.9724 -16.7725 -15.2565 -15.1916 -14.9248 -14.8939
   -14.8798 -14.7778 -13.7118 -13.6172 -13.3765 -13.3692  -3.0076  -2.7327
    -1.5030  -1.2883  -1.1964  -1.0413  -0.7893  -0.5898   2.1985   2.4616
     2.7120   2.7710   2.8611   2.9863   3.3983   3.6658   4.2555   4.5430

          k = 0.4848-0.4665-0.2215 (  8431 PWs)   bands (ev):

   -33.8908 -33.8875 -16.9567 -16.7943 -15.2078 -15.1838 -14.9733 -14.8952
   -14.8836 -14.7898 -13.7100 -13.5592 -13.4319 -13.3606  -2.9579  -2.7460
    -1.4901  -1.3283  -1.1878  -1.0690  -0.7608  -0.5601   2.1717   2.4003
     2.6249   2.7383   2.8981   3.0044   3.4541   3.6434   4.3144   4.5432

          k = 0.4848-0.2799-0.1661 (  8426 PWs)   bands (ev):

   -33.8918 -33.8865 -16.9764 -16.7612 -15.2210 -15.2119 -14.9447 -14.9306
   -14.8775 -14.7601 -13.7120 -13.5683 -13.4150 -13.3657  -2.9816  -2.7460
    -1.5140  -1.2792  -1.1792  -1.0824  -0.8832  -0.5115   2.2054   2.4925
     2.5500   2.7311   2.8811   3.2176   3.3365   3.6905   4.2874   4.5345

          k = 0.0000-0.0000 0.3323 (  8453 PWs)   bands (ev):

   -33.8936 -33.8851 -16.8993 -16.8235 -15.1480 -15.1480 -14.9801 -14.9801
   -14.8813 -14.8469 -13.6518 -13.6518 -13.3556 -13.3556  -3.1319  -2.9849
    -1.3003  -1.3003  -1.1975  -1.1975  -1.1706  -0.3000   2.5802   2.5802
     2.6708   2.6708   3.1462   3.1462   3.7259   3.7259   4.1104   4.3948

          k =-0.1616-0.0933 0.3876 (  8449 PWs)   bands (ev):

   -33.8924 -33.8863 -16.8967 -16.8343 -15.1731 -15.0766 -15.0656 -14.9278
   -14.8878 -14.8557 -13.6497 -13.5529 -13.4481 -13.3577  -3.0814  -2.9862
    -1.3068  -1.2805  -1.2344  -1.2012  -0.9971  -0.4145   2.5700   2.5860
     2.6394   2.7125   3.0039   3.2584   3.5183   3.6811   4.2042   4.3690

          k = 0.8079 0.4665 0.0554 (  8438 PWs)   bands (ev):

   -33.8905 -33.8880 -16.8757 -16.8708 -15.1976 -15.0789 -15.0502 -14.9158
   -14.8743 -14.8477 -13.6254 -13.5392 -13.4889 -13.3718  -3.0056  -2.8971
    -1.3917  -1.2571  -1.2062  -1.2054  -0.7934  -0.5573   2.4331   2.5177
     2.6685   2.7420   2.8506   3.3076   3.3449   3.5630   4.3058   4.4090

          k = 0.6464 0.3732 0.1108 (  8431 PWs)   bands (ev):

   -33.8899 -33.8884 -16.9397 -16.8103 -15.2266 -15.1480 -14.9811 -14.9299
   -14.8622 -14.7935 -13.6518 -13.6040 -13.4126 -13.3845  -2.9787  -2.7665
    -1.5055  -1.2543  -1.1635  -1.1493  -0.7106  -0.6279   2.2394   2.4485
     2.5856   2.7279   2.9242   3.1778   3.3679   3.5783   4.3062   4.5086

          k =-0.1616 0.0933 0.4430 (  8457 PWs)   bands (ev):

   -33.8916 -33.8870 -16.8988 -16.8341 -15.1647 -15.0611 -15.0579 -14.9669
   -14.8749 -14.8692 -13.6076 -13.5321 -13.4548 -13.4036  -3.0616  -3.0232
    -1.3218  -1.2538  -1.2489  -1.1687  -0.9271  -0.4885   2.5570   2.6074
     2.6414   2.6803   3.1101   3.2912   3.3982   3.6705   4.2293   4.3260

          k = 0.8079 0.6531 0.1108 (  8447 PWs)   bands (ev):

   -33.8904 -33.8881 -16.8917 -16.8533 -15.1558 -15.1354 -14.9797 -14.9450
   -14.8900 -14.8704 -13.5806 -13.5616 -13.4480 -13.4217  -2.9859  -2.9774
    -1.3328  -1.3213  -1.2148  -1.1503  -0.7843  -0.5912   2.4836   2.5075
     2.6845   2.7470   2.9829   3.1543   3.4140   3.5838   4.3221   4.3425

          k = 0.6464 0.5598 0.1661 (  8437 PWs)   bands (ev):

   -33.8894 -33.8889 -16.9085 -16.8477 -15.1832 -15.1232 -14.9904 -14.8953
   -14.8885 -14.8723 -13.6045 -13.5857 -13.4398 -13.4031  -2.9489  -2.8426
    -1.4409  -1.3226  -1.1558  -1.1468  -0.6704  -0.6492   2.3080   2.4023
     2.7083   2.7713   2.8737   3.0171   3.4673   3.5504   4.3494   4.4503

          k = 0.8079-0.4665-0.2215 (  8453 PWs)   bands (ev):

   -33.8900 -33.8884 -16.9178 -16.8290 -15.2197 -15.0729 -15.0186 -14.9075
   -14.8914 -14.8543 -13.6111 -13.5620 -13.4616 -13.3901  -3.0157  -2.8955
    -1.4172  -1.2453  -1.2192  -1.1320  -0.7359  -0.6433   2.3960   2.5183
     2.7281   2.7595   2.9144   3.1269   3.3782   3.5979   4.2936   4.4017

          k = 0.0000-0.0000 0.4984 (  8468 PWs)   bands (ev):

   -33.8909 -33.8878 -16.8776 -16.8506 -15.1012 -15.1012 -15.0421 -15.0421
   -14.8667 -14.8545 -13.5486 -13.5486 -13.4437 -13.4437  -3.1137  -3.0640
    -1.2629  -1.2629  -1.2264  -1.2264  -0.8562  -0.5472   2.6090   2.6090
     2.6398   2.6398   3.3176   3.3176   3.5242   3.5242   4.1867   4.2866

          k = 0.9695 0.5598 0.1661 (  8451 PWs)   bands (ev):

   -33.8897 -33.8889 -16.8683 -16.8671 -15.1510 -15.1038 -15.0287 -14.9774
   -14.8728 -14.8612 -13.5669 -13.5168 -13.4848 -13.4267  -3.0670  -3.0366
    -1.3026  -1.2541  -1.2275  -1.2025  -0.7389  -0.6537   2.5677   2.5915
     2.6477   2.6752   3.1751   3.3097   3.4517   3.5123   4.2527   4.2916

     highest occupied level (ev):     4.5551

!    total energy              =    -367.40883732 Ry
     estimated scf accuracy    <          3.9E-09 Ry

     The total energy is the sum of the following terms:
     one-electron contribution =    -143.86599739 Ry
     hartree contribution      =     101.47519569 Ry
     xc contribution           =     -75.21056857 Ry
     ewald contribution        =    -249.80746704 Ry

     convergence has been achieved in   8 iterations

     Forces acting on atoms (cartesian axes, Ry/au):

     atom    1 type  1   force =     0.00000000   -0.00000000    0.00000000
     atom    2 type  1   force =     0.00000000   -0.00000000    0.00000000
     atom    3 type  2   force =     0.00000000   -0.00000000    0.00000000
     atom    4 type  2   force =    -0.00000000    0.00000000    0.00000000
     atom    5 type  3   force =     0.00670126   -0.01160692   -0.00000000
     atom    6 type  3   force =    -0.01340252    0.00000000   -0.00000000
     atom    7 type  3   force =     0.00670126    0.01160692    0.00000000
     atom    8 type  3   force =     0.01340252   -0.00000000    0.00000000
     atom    9 type  3   force =    -0.00670126   -0.01160692   -0.00000000
     atom   10 type  3   force =    -0.00670126    0.01160692    0.00000000

     Total force =     0.032829     Total SCF correction =     0.000135


     Computing stress (Cartesian axis) and pressure

          total   stress  (Ry/bohr**3)                   (kbar)     P=      -15.05
  -0.00024338  -0.00000000  -0.00000000          -35.80       -0.00       -0.00
  -0.00000000  -0.00024338  -0.00000000           -0.00      -35.80       -0.00
   0.00000000  -0.00000000   0.00017991            0.00       -0.00       26.47

     Energy error            =      5.2E-02 Ry
     Gradient error          =      1.3E-02 Ry/Bohr

     number of scf cycles    =   2
     number of bfgs steps    =   1

     energy             old  =    -367.3569525390 Ry
     energy             new  =    -367.4088373197 Ry

     CASE: energy            _new < energy            _old

     new trust radius        =       0.0121717509 bohr
     new conv_thr            =       0.0000000013 Ry


ATOMIC_POSITIONS (crystal)
Ca            0.5000000000        0.5000000000        0.5000000000
Ca            0.0000000000       -0.0000000000       -0.0000000000
C             0.2500000000        0.2500000000        0.2500000000
C             0.7500000000        0.7500000000        0.7500000000
O             0.4950280127        1.0049719873        0.2500000000
O             1.0049719873        0.2500000000        0.4950280127
O             0.2500000000        0.4950280127        1.0049719873
O            -0.0049719873        0.7500000000        0.5049719873
O             0.7500000000        0.5049719873       -0.0049719873
O             0.5049719873       -0.0049719873        0.7500000000



     Writing config-only to output data dir ./CCO_rand1.save/
     NEW-OLD atomic charge density approx. for the potential

     Check: negative core charge=   -0.000003

     total cpu time spent up to now is     3326.2 secs

     Self-consistent Calculation

     iteration #  1     ecut=    70.00 Ry     beta= 0.70
     CG style diagonalization
     ethr =  1.00E-06,  avg # of iterations =  5.5

     total cpu time spent up to now is     3555.9 secs

     total energy              =    -367.40899157 Ry
     estimated scf accuracy    <       0.00053924 Ry

     iteration #  2     ecut=    70.00 Ry     beta= 0.70
     CG style diagonalization
     ethr =  8.43E-07,  avg # of iterations =  4.0

     total cpu time spent up to now is     3712.3 secs

     total energy              =    -367.40915442 Ry
     estimated scf accuracy    <       0.00024058 Ry

     iteration #  3     ecut=    70.00 Ry     beta= 0.70
     CG style diagonalization
     ethr =  3.76E-07,  avg # of iterations =  3.6

     total cpu time spent up to now is     3851.9 secs

     total energy              =    -367.40921168 Ry
     estimated scf accuracy    <       0.00000351 Ry

     iteration #  4     ecut=    70.00 Ry     beta= 0.70
     CG style diagonalization
     ethr =  5.49E-09,  avg # of iterations =  4.4

     total cpu time spent up to now is     4024.7 secs

     total energy              =    -367.40921489 Ry
     estimated scf accuracy    <       0.00000374 Ry

     iteration #  5     ecut=    70.00 Ry     beta= 0.70
     CG style diagonalization
     ethr =  5.49E-09,  avg # of iterations =  3.5

     total cpu time spent up to now is     4161.1 secs

     total energy              =    -367.40921521 Ry
     estimated scf accuracy    <       0.00000025 Ry

     iteration #  6     ecut=    70.00 Ry     beta= 0.70
     CG style diagonalization
     ethr =  3.86E-10,  avg # of iterations =  3.8

     total cpu time spent up to now is     4310.2 secs

     total energy              =    -367.40921527 Ry
     estimated scf accuracy    <       0.00000001 Ry

     iteration #  7     ecut=    70.00 Ry     beta= 0.70
     CG style diagonalization
     ethr =  2.11E-11,  avg # of iterations =  4.0

     total cpu time spent up to now is     4465.6 secs

     total energy              =    -367.40921527 Ry
     estimated scf accuracy    <          6.4E-09 Ry

     iteration #  8     ecut=    70.00 Ry     beta= 0.70
     CG style diagonalization
     ethr =  1.01E-11,  avg # of iterations =  3.9

     total cpu time spent up to now is     4616.3 secs

     End of self-consistent calculation

          k = 0.0000 0.0000 0.0000 (  8415 PWs)   bands (ev):

   -33.8752 -33.8615 -16.8374 -16.7198 -15.1725 -15.1725 -14.8923 -14.8923
   -14.8784 -14.8138 -13.7222 -13.7222 -13.2333 -13.2333  -3.1464  -2.8931
    -1.4723  -1.3267  -1.3267  -1.1594  -1.1594  -0.0354   2.5467   2.5467
     2.7062   2.7062   2.9935   2.9935   3.9276   3.9276   4.0131   4.4870

          k =-0.1616-0.0933 0.0554 (  8423 PWs)   bands (ev):

   -33.8745 -33.8621 -16.8518 -16.7104 -15.1705 -15.1222 -14.9441 -14.8996
   -14.8702 -14.8482 -13.6927 -13.6321 -13.3015 -13.2510  -3.0820  -2.9157
    -1.4288  -1.3129  -1.2779  -1.1619  -1.1565  -0.1197   2.5413   2.5638
     2.7071   2.7916   2.8567   2.9425   3.8217   3.8413   4.1474   4.4515

          k =-0.3232-0.1866 0.1108 (  8427 PWs)   bands (ev):

   -33.8725 -33.8640 -16.8634 -16.7116 -15.1608 -15.0656 -15.0513 -14.9456
   -14.8448 -14.8031 -13.6216 -13.5024 -13.4288 -13.3048  -2.9544  -2.9344
    -1.4272  -1.2771  -1.1820  -1.1600  -1.0404  -0.2934   2.5012   2.5036
     2.6118   2.6289   2.9510   3.0078   3.6457   3.6588   4.3358   4.3907

          k =-0.4848-0.2799 0.1661 (  8434 PWs)   bands (ev):

   -33.8697 -33.8666 -16.8308 -16.7618 -15.1080 -15.0773 -15.0661 -15.0159
   -14.8149 -14.7753 -13.5413 -13.4731 -13.4573 -13.3896  -2.9035  -2.8835
    -1.4278  -1.3451  -1.1553  -1.1234  -0.7546  -0.4914   2.3227   2.3863
     2.5591   2.5931   3.0755   3.1245   3.5034   3.5063   4.3858   4.4120

          k =-0.1616 0.0933 0.1108 (  8435 PWs)   bands (ev):

   -33.8743 -33.8623 -16.8528 -16.7105 -15.1462 -15.1439 -14.9219 -14.8942
   -14.8816 -14.8722 -13.6578 -13.6479 -13.2921 -13.2730  -3.0791  -2.9294
    -1.3946  -1.3100  -1.2991  -1.1643  -1.1375  -0.1368   2.5521   2.5538
     2.7031   2.7554   2.9069   2.9573   3.7560   3.8809   4.1440   4.4379

          k =-0.3232-0.0000 0.1661 (  8432 PWs)   bands (ev):

   -33.8729 -33.8636 -16.8657 -16.7073 -15.1513 -15.1201 -14.9620 -14.9368
   -14.8678 -14.8346 -13.6116 -13.5589 -13.3780 -13.3067  -2.9816  -2.9522
    -1.3881  -1.2843  -1.2524  -1.1204  -1.0655  -0.2707   2.4832   2.5700
     2.6301   2.7128   2.8565   3.0412   3.5789   3.7739   4.2958   4.3857

          k =-0.4848-0.0933 0.2215 (  8431 PWs)   bands (ev):

   -33.8705 -33.8658 -16.8449 -16.7464 -15.1493 -15.0984 -15.0063 -14.9734
   -14.8411 -14.7844 -13.5674 -13.5355 -13.4067 -13.3556  -2.9176  -2.9014
    -1.3968  -1.3337  -1.2105  -1.1015  -0.8194  -0.4301   2.3356   2.4424
     2.5754   2.6149   2.9731   3.1136   3.4588   3.6249   4.3821   4.4053

          k = 0.4848 0.4665-0.1108 (  8430 PWs)   bands (ev):

   -33.8685 -33.8677 -16.8204 -16.7788 -15.1359 -15.0868 -15.0460 -14.9712
   -14.8152 -14.7889 -13.5715 -13.5032 -13.4231 -13.3724  -2.9062  -2.8528
    -1.4433  -1.3346  -1.1655  -1.1039  -0.6413  -0.5685   2.2664   2.3313
     2.5525   2.6201   3.0187   3.1029   3.4967   3.5393   4.3913   4.4410

          k = 0.3232 0.3732-0.0554 (  8438 PWs)   bands (ev):

   -33.8712 -33.8651 -16.8712 -16.7122 -15.1749 -15.0962 -15.0382 -14.9294
   -14.8561 -14.7622 -13.6010 -13.5328 -13.3802 -13.3551  -2.9443  -2.8628
    -1.4678  -1.2449  -1.1862  -1.1215  -0.9140  -0.3851   2.2915   2.4984
     2.5610   2.6150   2.9132   3.1357   3.5229   3.6354   4.3596   4.4378

          k = 0.1616 0.2799 0.0000 (  8443 PWs)   bands (ev):

   -33.8734 -33.8631 -16.8723 -16.6963 -15.1411 -15.1363 -14.9642 -14.9266
   -14.8821 -14.8258 -13.6243 -13.5673 -13.3700 -13.2950  -2.9741  -2.9404
    -1.4281  -1.2585  -1.2427  -1.1309  -1.1219  -0.2338   2.4732   2.5749
     2.6350   2.7527   2.8065   2.9938   3.6656   3.7728   4.2988   4.4009

          k =-0.3232 0.1866 0.2215 (  8436 PWs)   bands (ev):

   -33.8723 -33.8642 -16.8864 -16.6892 -15.1745 -15.1343 -14.9369 -14.8877
   -14.8749 -14.8635 -13.5933 -13.5409 -13.3835 -13.3383  -2.9948  -2.9094
    -1.4023  -1.2655  -1.2616  -1.0685  -1.0003  -0.3487   2.3984   2.5508
     2.6483   2.7299   2.8201   3.1673   3.3939   3.7913   4.3215   4.3622

          k =-0.4848 0.0933 0.2769 (  8430 PWs)   bands (ev):

   -33.8708 -33.8655 -16.8841 -16.7045 -15.1999 -15.1244 -14.9613 -14.9005
   -14.8728 -14.7822 -13.6402 -13.5009 -13.4089 -13.3292  -2.9853  -2.8340
    -1.4188  -1.3020  -1.2383  -1.0372  -0.8346  -0.4467   2.2622   2.4865
     2.6017   2.7182   2.8704   3.1168   3.3692   3.7091   4.3030   4.4575

          k = 0.4848 0.6531-0.0554 (  8428 PWs)   bands (ev):

   -33.8689 -33.8673 -16.8317 -16.7748 -15.1651 -15.0774 -14.9938 -14.9308
   -14.8569 -14.8053 -13.6086 -13.5123 -13.4111 -13.3458  -2.9006  -2.8486
    -1.4111  -1.3483  -1.2341  -1.0426  -0.6318  -0.5466   2.2176   2.2983
     2.6210   2.6852   2.9332   2.9677   3.4897   3.6187   4.3911   4.4557

          k = 0.3232 0.5598 0.0000 (  8417 PWs)   bands (ev):

   -33.8694 -33.8668 -16.8455 -16.7551 -15.1589 -15.1037 -15.0376 -14.8775
   -14.8732 -14.7811 -13.6207 -13.5206 -13.3976 -13.3424  -2.9156  -2.8298
    -1.4795  -1.2369  -1.2261  -1.0879  -0.7181  -0.4848   2.1983   2.3360
     2.5687   2.6484   2.9244   3.0599   3.5518   3.5700   4.3836   4.4762

          k =-0.4848 0.2799 0.3323 (  8436 PWs)   bands (ev):

   -33.8706 -33.8656 -16.9126 -16.6712 -15.2394 -15.1998 -14.8868 -14.8807
   -14.8657 -14.7364 -13.6978 -13.5653 -13.3448 -13.3097  -3.0362  -2.7464
    -1.4818  -1.2783  -1.1974  -0.9916  -0.8099  -0.5078   2.1849   2.4756
     2.6611   2.7688   2.8666   3.0031   3.3820   3.7116   4.2175   4.5250

          k = 0.4848 0.8396 0.0000 (  8432 PWs)   bands (ev):

   -33.8699 -33.8663 -16.8925 -16.7037 -15.1982 -15.1842 -14.9055 -14.8975
   -14.8645 -14.7577 -13.6872 -13.5369 -13.3702 -13.3143  -2.9967  -2.7572
    -1.4473  -1.3316  -1.2136  -0.9932  -0.7228  -0.5223   2.1562   2.3976
     2.7240   2.7392   2.8783   2.8864   3.4499   3.6718   4.2648   4.5270

          k = 0.0000-0.0000 0.1661 (  8462 PWs)   bands (ev):

   -33.8746 -33.8622 -16.8332 -16.7271 -15.1623 -15.1623 -14.9119 -14.9119
   -14.8732 -14.8150 -13.6923 -13.6923 -13.2539 -13.2539  -3.1493  -2.9294
    -1.3769  -1.3158  -1.3158  -1.1654  -1.1654  -0.0886   2.5557   2.5557
     2.6946   2.6946   3.0328   3.0328   3.8724   3.8724   4.0295   4.4525

          k =-0.1616-0.0933 0.2215 (  8434 PWs)   bands (ev):

   -33.8735 -33.8632 -16.8401 -16.7277 -15.1748 -15.0887 -15.0034 -14.8861
   -14.8727 -14.8336 -13.6754 -13.5828 -13.3418 -13.2662  -3.0933  -2.9521
    -1.3510  -1.3084  -1.2121  -1.1866  -1.1320  -0.1962   2.5515   2.5783
     2.6676   2.7589   2.8832   3.0736   3.7086   3.7947   4.1535   4.4119

          k =-0.3232-0.1866 0.2769 (  8432 PWs)   bands (ev):

   -33.8713 -33.8651 -16.8322 -16.7523 -15.1546 -15.0907 -15.0310 -14.9343
   -14.8288 -14.8183 -13.6069 -13.4935 -13.4479 -13.3128  -2.9950  -2.9240
    -1.3479  -1.3248  -1.1936  -1.1742  -0.9105  -0.3694   2.4875   2.5480
     2.6084   2.6087   2.9233   3.1435   3.4992   3.6335   4.3081   4.3902

          k = 0.6464 0.3732-0.0554 (  8428 PWs)   bands (ev):

   -33.8686 -33.8677 -16.8170 -16.7798 -15.1540 -15.0778 -15.0356 -14.9790
   -14.8110 -14.7881 -13.5358 -13.5332 -13.4334 -13.3665  -2.9509  -2.8428
    -1.4431  -1.3057  -1.1714  -1.1247  -0.6579  -0.5716   2.3059   2.4028
     2.5405   2.6434   3.0069   3.2411   3.3682   3.5342   4.3478   4.4349

          k = 0.4848 0.2799 0.0000 (  8427 PWs)   bands (ev):

   -33.8705 -33.8658 -16.8742 -16.7118 -15.1636 -15.1439 -14.9973 -14.9600
   -14.8397 -14.7458 -13.6142 -13.4853 -13.4147 -13.3606  -2.9626  -2.8175
    -1.4926  -1.2367  -1.1775  -1.1089  -0.8354  -0.4540   2.2504   2.4463
     2.5280   2.6705   2.9408   3.2436   3.4002   3.6064   4.3245   4.4649

          k = 0.3232 0.1866 0.0554 (  8425 PWs)   bands (ev):

   -33.8729 -33.8636 -16.8825 -16.6885 -15.1591 -15.1242 -14.9902 -14.9222
   -14.8627 -14.8192 -13.6174 -13.5203 -13.4050 -13.3127  -2.9594  -2.9229
    -1.4366  -1.2690  -1.2082  -1.1231  -1.0660  -0.2887   2.4358   2.5039
     2.6748   2.7016   2.8003   3.0889   3.5630   3.7639   4.3521   4.3650

          k =-0.1616 0.0933 0.2769 (  8448 PWs)   bands (ev):

   -33.8729 -33.8637 -16.8426 -16.7278 -15.1561 -15.0982 -14.9784 -14.9085
   -14.8706 -14.8585 -13.6246 -13.5838 -13.3300 -13.3140  -3.0834  -2.9845
    -1.3237  -1.2694  -1.2682  -1.1354  -1.1108  -0.2459   2.5497   2.5885
     2.6539   2.7170   2.9745   3.1044   3.6017   3.8172   4.1582   4.3771

          k =-0.3232-0.0000 0.3323 (  8442 PWs)   bands (ev):

   -33.8714 -33.8650 -16.8461 -16.7368 -15.1521 -15.1078 -14.9763 -14.9137
   -14.8736 -14.8415 -13.5789 -13.5375 -13.3971 -13.3386  -2.9974  -2.9783
    -1.3154  -1.2876  -1.2808  -1.1117  -0.9303  -0.3785   2.4835   2.5593
     2.6098   2.7544   2.8806   3.1711   3.4113   3.7136   4.2900   4.3493

          k = 0.6464 0.5598 0.0000 (  8426 PWs)   bands (ev):

   -33.8693 -33.8670 -16.8095 -16.7905 -15.1503 -15.0893 -15.0072 -14.9338
   -14.8421 -14.8198 -13.5726 -13.5011 -13.4423 -13.3505  -2.9425  -2.8912
    -1.4014  -1.2757  -1.2580  -1.0910  -0.7067  -0.5188   2.3555   2.3848
     2.6037   2.6984   2.9369   3.1244   3.4083   3.5812   4.3619   4.4002

          k = 0.4848 0.4665 0.0554 (  8420 PWs)   bands (ev):

   -33.8693 -33.8670 -16.8576 -16.7406 -15.1711 -15.1199 -15.0191 -14.9053
   -14.8440 -14.7716 -13.6319 -13.4773 -13.4389 -13.3357  -2.9533  -2.8038
    -1.4893  -1.2472  -1.1852  -1.1005  -0.7022  -0.5237   2.2072   2.3788
     2.5439   2.6950   2.9425   3.1150   3.4580   3.5767   4.3354   4.4835

          k = 0.3232 0.3732 0.1108 (  8425 PWs)   bands (ev):

   -33.8714 -33.8650 -16.8852 -16.6969 -15.1962 -15.1131 -15.0131 -14.8909
   -14.8769 -14.7616 -13.6364 -13.5042 -13.4046 -13.3303  -2.9686  -2.8387
    -1.4671  -1.2578  -1.1801  -1.1026  -0.9123  -0.3933   2.2664   2.5135
     2.5572   2.6631   2.8658   3.1674   3.4478   3.6904   4.3288   4.4557

          k =-0.3232 0.1866 0.3876 (  8437 PWs)   bands (ev):

   -33.8709 -33.8655 -16.8731 -16.7122 -15.2026 -15.0934 -14.9301 -14.9086
   -14.8718 -14.8512 -13.5590 -13.5578 -13.3775 -13.3652  -3.0265  -2.9110
    -1.4004  -1.2503  -1.2371  -1.0600  -0.8727  -0.4587   2.3841   2.5497
     2.6672   2.7537   2.9051   3.1880   3.2610   3.7277   4.2817   4.3681

          k = 0.6464 0.7463 0.0554 (  8439 PWs)   bands (ev):

   -33.8698 -33.8665 -16.8664 -16.7314 -15.1874 -15.1206 -14.9259 -14.9083
   -14.8725 -14.8186 -13.6100 -13.5299 -13.3844 -13.3532  -2.9884  -2.8457
    -1.4111  -1.3155  -1.2124  -1.0417  -0.7358  -0.5235   2.2735   2.4335
     2.7126   2.7634   2.8816   2.9795   3.3922   3.6520   4.2982   4.4439

          k = 0.4848 0.6531 0.1108 (  8411 PWs)   bands (ev):

   -33.8684 -33.8678 -16.8151 -16.7947 -15.1430 -15.1042 -14.9612 -14.9206
   -14.8663 -14.8328 -13.5811 -13.5429 -13.3890 -13.3626  -2.8847  -2.8664
    -1.4170  -1.3646  -1.1800  -1.0702  -0.5958  -0.5768   2.2371   2.2650
     2.6649   2.7173   2.9102   2.9233   3.5157   3.5816   4.4081   4.4326

          k = 0.3232 0.5598 0.1661 (  8426 PWs)   bands (ev):

   -33.8693 -33.8670 -16.8420 -16.7604 -15.1655 -15.0913 -15.0191 -14.9171
   -14.8498 -14.7883 -13.6197 -13.5124 -13.4071 -13.3411  -2.9116  -2.8350
    -1.4415  -1.3428  -1.1438  -1.1092  -0.6860  -0.5043   2.2037   2.3256
     2.5946   2.6444   2.9286   3.0315   3.5201   3.6015   4.3844   4.4709

          k = 0.6464-0.3732-0.2769 (  8425 PWs)   bands (ev):

   -33.8700 -33.8663 -16.8997 -16.6902 -15.2412 -15.1753 -14.9053 -14.8750
   -14.8607 -14.7487 -13.6748 -13.5789 -13.3342 -13.3261  -3.0349  -2.7554
    -1.4890  -1.2676  -1.1722  -1.0243  -0.7504  -0.5462   2.1959   2.4549
     2.7091   2.7731   2.8584   2.9813   3.3928   3.6618   4.2258   4.5143

          k = 0.4848-0.4665-0.2215 (  8431 PWs)   bands (ev):

   -33.8698 -33.8665 -16.8833 -16.7135 -15.1913 -15.1675 -14.9539 -14.8760
   -14.8639 -14.7622 -13.6729 -13.5203 -13.3901 -13.3177  -2.9854  -2.7695
    -1.4741  -1.3075  -1.1647  -1.0517  -0.7218  -0.5163   2.1689   2.3952
     2.6223   2.7389   2.8944   2.9995   3.4494   3.6385   4.2854   4.5150

          k = 0.4848-0.2799-0.1661 (  8426 PWs)   bands (ev):

   -33.8708 -33.8655 -16.9033 -16.6789 -15.2054 -15.1963 -14.9262 -14.9109
   -14.8576 -14.7323 -13.6746 -13.5293 -13.3731 -13.3228  -3.0100  -2.7682
    -1.4979  -1.2591  -1.1556  -1.0658  -0.8470  -0.4659   2.2029   2.4881
     2.5463   2.7328   2.8772   3.2134   3.3332   3.6856   4.2578   4.5060

          k = 0.0000-0.0000 0.3323 (  8453 PWs)   bands (ev):

   -33.8726 -33.8641 -16.8204 -16.7469 -15.1324 -15.1324 -14.9621 -14.9621
   -14.8596 -14.8196 -13.6133 -13.6133 -13.3129 -13.3129  -3.1503  -3.0090
    -1.2870  -1.2870  -1.1835  -1.1835  -1.1311  -0.2469   2.5783   2.5783
     2.6684   2.6684   3.1440   3.1440   3.7233   3.7233   4.0775   4.3641

          k =-0.1616-0.0933 0.3876 (  8449 PWs)   bands (ev):

   -33.8714 -33.8652 -16.8186 -16.7574 -15.1571 -15.0593 -15.0493 -14.9089
   -14.8659 -14.8295 -13.6110 -13.5133 -13.4065 -13.3154  -3.1008  -3.0101
    -1.2934  -1.2614  -1.2197  -1.1868  -0.9608  -0.3643   2.5671   2.5854
     2.6381   2.7097   3.0009   3.2550   3.5146   3.6775   4.1735   4.3384

          k = 0.8079 0.4665 0.0554 (  8438 PWs)   bands (ev):

   -33.8695 -33.8669 -16.7999 -16.7925 -15.1815 -15.0613 -15.0328 -14.8955
   -14.8540 -14.8215 -13.5865 -13.4996 -13.4478 -13.3297  -3.0280  -2.9212
    -1.3764  -1.2344  -1.1913  -1.1892  -0.7560  -0.5109   2.4303   2.5152
     2.6683   2.7408   2.8464   3.3029   3.3405   3.5577   4.2770   4.3790

          k = 0.6464 0.3732 0.1108 (  8431 PWs)   bands (ev):

   -33.8689 -33.8674 -16.8660 -16.7297 -15.2110 -15.1312 -14.9624 -14.9113
   -14.8417 -14.7651 -13.6139 -13.5654 -13.3704 -13.3424  -3.0049  -2.7903
    -1.4891  -1.2326  -1.1460  -1.1303  -0.6680  -0.5871   2.2370   2.4435
     2.5830   2.7294   2.9211   3.1731   3.3627   3.5726   4.2777   4.4795

          k =-0.1616 0.0933 0.4430 (  8457 PWs)   bands (ev):

   -33.8706 -33.8660 -16.8214 -16.7566 -15.1488 -15.0430 -15.0409 -14.9488
   -14.8518 -14.8448 -13.5684 -13.4923 -13.4133 -13.3616  -3.0811  -3.0464
    -1.3071  -1.2384  -1.2344  -1.1538  -0.8875  -0.4400   2.5553   2.6036
     2.6410   2.6786   3.1064   3.2879   3.3947   3.6675   4.1980   4.2952

          k = 0.8079 0.6531 0.1108 (  8447 PWs)   bands (ev):

   -33.8694 -33.8671 -16.8149 -16.7760 -15.1392 -15.1183 -14.9613 -14.9239
   -14.8686 -14.8473 -13.5412 -13.5222 -13.4065 -13.3801  -3.0075  -3.0010
    -1.3172  -1.3057  -1.1962  -1.1341  -0.7443  -0.5457   2.4810   2.5041
     2.6837   2.7464   2.9784   3.1500   3.4096   3.5795   4.2923   4.3125

          k = 0.6464 0.5598 0.1661 (  8437 PWs)   bands (ev):

   -33.8684 -33.8679 -16.8335 -16.7694 -15.1666 -15.1060 -14.9701 -14.8759
   -14.8646 -14.8506 -13.5661 -13.5470 -13.3979 -13.3610  -2.9739  -2.8665
    -1.4243  -1.3036  -1.1364  -1.1281  -0.6279  -0.6081   2.3051   2.3979
     2.7073   2.7718   2.8693   3.0118   3.4617   3.5451   4.3208   4.4214

          k = 0.8079-0.4665-0.2215 (  8453 PWs)   bands (ev):

   -33.8690 -33.8674 -16.8429 -16.7498 -15.2040 -15.0544 -14.9996 -14.8888
   -14.8710 -14.8285 -13.5724 -13.5229 -13.4199 -13.3480  -3.0399  -2.9175
    -1.4023  -1.2276  -1.2009  -1.1149  -0.6937  -0.6004   2.3934   2.5140
     2.7286   2.7589   2.9097   3.1224   3.3728   3.5941   4.2640   4.3719

          k = 0.0000-0.0000 0.4984 (  8468 PWs)   bands (ev):

   -33.8699 -33.8668 -16.7996 -16.7733 -15.0849 -15.0849 -15.0250 -15.0250
   -14.8430 -14.8288 -13.5087 -13.5087 -13.4023 -13.4023  -3.1332  -3.0853
    -1.2493  -1.2493  -1.2125  -1.2125  -0.8137  -0.4996   2.6072   2.6072
     2.6380   2.6380   3.3147   3.3147   3.5212   3.5212   4.1546   4.2551

          k = 0.9695 0.5598 0.1661 (  8451 PWs)   bands (ev):

   -33.8687 -33.8679 -16.7913 -16.7893 -15.1346 -15.0868 -15.0115 -14.9596
   -14.8493 -14.8362 -13.5271 -13.4762 -13.4443 -13.3853  -3.0879  -3.0579
    -1.2887  -1.2393  -1.2122  -1.1874  -0.6959  -0.6086   2.5651   2.5895
     2.6463   2.6735   3.1717   3.3058   3.4484   3.5090   4.2217   4.2606

     highest occupied level (ev):     4.5270

!    total energy              =    -367.40921527 Ry
     estimated scf accuracy    <          3.5E-10 Ry

     The total energy is the sum of the following terms:
     one-electron contribution =    -142.93406414 Ry
     hartree contribution      =     101.01574787 Ry
     xc contribution           =     -75.16412111 Ry
     ewald contribution        =    -250.32677790 Ry

     convergence has been achieved in   8 iterations

     Forces acting on atoms (cartesian axes, Ry/au):

     atom    1 type  1   force =    -0.00000000   -0.00000000   -0.00000000
     atom    2 type  1   force =     0.00000000    0.00000000    0.00000000
     atom    3 type  2   force =     0.00000000    0.00000000   -0.00000000
     atom    4 type  2   force =    -0.00000000   -0.00000000   -0.00000000
     atom    5 type  3   force =    -0.00148107    0.00256529    0.00000000
     atom    6 type  3   force =     0.00296215   -0.00000000    0.00000000
     atom    7 type  3   force =    -0.00148107   -0.00256529   -0.00000000
     atom    8 type  3   force =    -0.00296215    0.00000000   -0.00000000
     atom    9 type  3   force =     0.00148107    0.00256529    0.00000000
     atom   10 type  3   force =     0.00148107   -0.00256529   -0.00000000

     Total force =     0.007256     Total SCF correction =     0.000016


     Computing stress (Cartesian axis) and pressure

          total   stress  (Ry/bohr**3)                   (kbar)     P=      -26.39
  -0.00036462   0.00000000   0.00000000          -53.64        0.00        0.00
   0.00000000  -0.00036462  -0.00000000            0.00      -53.64       -0.00
   0.00000000  -0.00000000   0.00019097            0.00       -0.00       28.09

     Energy error            =      3.8E-04 Ry
     Gradient error          =      3.0E-03 Ry/Bohr

     number of scf cycles    =   3
     number of bfgs steps    =   2

     energy             old  =    -367.4088373197 Ry
     energy             new  =    -367.4092152736 Ry

     CASE: energy            _new < energy            _old

     new trust radius        =       0.0022031921 bohr
     new conv_thr            =       0.0000000003 Ry


ATOMIC_POSITIONS (crystal)
Ca            0.5000000000        0.5000000000        0.5000000000
Ca            0.0000000000        0.0000000000       -0.0000000000
C             0.2500000000        0.2500000000        0.2500000000
C             0.7500000000        0.7500000000        0.7500000000
O             0.4948085786        1.0051914214        0.2500000000
O             1.0051914214        0.2500000000        0.4948085786
O             0.2500000000        0.4948085786        1.0051914214
O            -0.0051914214        0.7500000000        0.5051914214
O             0.7500000000        0.5051914214       -0.0051914214
O             0.5051914214       -0.0051914214        0.7500000000



     Writing config-only to output data dir ./CCO_rand1.save/
     NEW-OLD atomic charge density approx. for the potential

     Check: negative core charge=   -0.000003

     total cpu time spent up to now is     4657.0 secs

     Self-consistent Calculation

     iteration #  1     ecut=    70.00 Ry     beta= 0.70
     CG style diagonalization
     ethr =  1.00E-06,  avg # of iterations =  3.0

     Threshold (ethr) on eigenvalues was too large:
     Diagonalizing with lowered threshold

     CG style diagonalization
     c_bands:  1 eigenvalues not converged
     c_bands:  1 eigenvalues not converged
     ethr =  2.08E-08,  avg # of iterations =  4.4

     total cpu time spent up to now is     4973.6 secs

     total energy              =    -367.40922796 Ry
     estimated scf accuracy    <       0.00001780 Ry

     iteration #  2     ecut=    70.00 Ry     beta= 0.70
     CG style diagonalization
     ethr =  2.78E-08,  avg # of iterations =  4.1

     total cpu time spent up to now is     5132.1 secs

     total energy              =    -367.40923324 Ry
     estimated scf accuracy    <       0.00000836 Ry

     iteration #  3     ecut=    70.00 Ry     beta= 0.70
     CG style diagonalization
     ethr =  1.31E-08,  avg # of iterations =  3.6

     total cpu time spent up to now is     5273.0 secs

     total energy              =    -367.40923516 Ry
     estimated scf accuracy    <       0.00000016 Ry

     iteration #  4     ecut=    70.00 Ry     beta= 0.70
     CG style diagonalization
     ethr =  2.45E-10,  avg # of iterations =  4.3

     total cpu time spent up to now is     5441.9 secs

     total energy              =    -367.40923528 Ry
     estimated scf accuracy    <       0.00000011 Ry

     iteration #  5     ecut=    70.00 Ry     beta= 0.70
     CG style diagonalization
     ethr =  1.70E-10,  avg # of iterations =  3.5

     total cpu time spent up to now is     5578.7 secs

     total energy              =    -367.40923530 Ry
     estimated scf accuracy    <          5.0E-09 Ry

     iteration #  6     ecut=    70.00 Ry     beta= 0.70
     CG style diagonalization
     ethr =  7.84E-12,  avg # of iterations =  4.1

     total cpu time spent up to now is     5736.9 secs

     total energy              =    -367.40923530 Ry
     estimated scf accuracy    <          5.0E-10 Ry

     iteration #  7     ecut=    70.00 Ry     beta= 0.70
     CG style diagonalization
     ethr =  7.83E-13,  avg # of iterations =  4.0

     total cpu time spent up to now is     5893.6 secs

     End of self-consistent calculation

          k = 0.0000 0.0000 0.0000 (  8415 PWs)   bands (ev):

   -33.8790 -33.8653 -16.8518 -16.7334 -15.1752 -15.1752 -14.8957 -14.8957
   -14.8820 -14.8191 -13.7288 -13.7288 -13.2412 -13.2412  -3.1432  -2.8877
    -1.4794  -1.3290  -1.3290  -1.1619  -1.1619  -0.0460   2.5470   2.5470
     2.7070   2.7070   2.9935   2.9935   3.9280   3.9280   4.0192   4.4923

          k =-0.1616-0.0933 0.0554 (  8423 PWs)   bands (ev):

   -33.8783 -33.8660 -16.8659 -16.7242 -15.1733 -15.1251 -14.9477 -14.9031
   -14.8738 -14.8528 -13.6994 -13.6390 -13.3093 -13.2588  -3.0787  -2.9104
    -1.4353  -1.3153  -1.2807  -1.1648  -1.1592  -0.1298   2.5414   2.5639
     2.7080   2.7923   2.8569   2.9429   3.8228   3.8419   4.1526   4.4568

          k =-0.3232-0.1866 0.1108 (  8427 PWs)   bands (ev):

   -33.8763 -33.8678 -16.8771 -16.7257 -15.1637 -15.0687 -15.0546 -14.9490
   -14.8491 -14.8073 -13.6285 -13.5096 -13.4363 -13.3124  -2.9508  -2.9292
    -1.4316  -1.2799  -1.1848  -1.1628  -1.0461  -0.3026   2.5016   2.5038
     2.6117   2.6293   2.9521   3.0084   3.6466   3.6597   4.3408   4.3959

          k =-0.4848-0.2799 0.1661 (  8434 PWs)   bands (ev):

   -33.8735 -33.8704 -16.8445 -16.7758 -15.1110 -15.0804 -15.0691 -15.0191
   -14.8194 -14.7799 -13.5485 -13.4803 -13.4646 -13.3970  -2.8986  -2.8792
    -1.4314  -1.3484  -1.1583  -1.1265  -0.7617  -0.4995   2.3231   2.3866
     2.5594   2.5931   3.0766   3.1252   3.5044   3.5074   4.3909   4.4170

          k =-0.1616 0.0933 0.1108 (  8435 PWs)   bands (ev):

   -33.8781 -33.8662 -16.8669 -16.7244 -15.1491 -15.1467 -14.9255 -14.8979
   -14.8851 -14.8766 -13.6646 -13.6547 -13.2999 -13.2808  -3.0758  -2.9241
    -1.4013  -1.3124  -1.3016  -1.1673  -1.1401  -0.1469   2.5523   2.5539
     2.7042   2.7558   2.9071   2.9577   3.7568   3.8814   4.1493   4.4432

          k =-0.3232-0.0000 0.1661 (  8432 PWs)   bands (ev):

   -33.8767 -33.8674 -16.8795 -16.7214 -15.1542 -15.1231 -14.9655 -14.9405
   -14.8718 -14.8386 -13.6185 -13.5659 -13.3856 -13.3144  -2.9780  -2.9470
    -1.3925  -1.2876  -1.2552  -1.1231  -1.0705  -0.2800   2.4835   2.5700
     2.6305   2.7133   2.8571   3.0420   3.5797   3.7747   4.3009   4.3910

          k =-0.4848-0.0933 0.2215 (  8431 PWs)   bands (ev):

   -33.8743 -33.8696 -16.8586 -16.7605 -15.1522 -15.1015 -15.0097 -14.9767
   -14.8454 -14.7888 -13.5743 -13.5427 -13.4141 -13.3631  -2.9126  -2.8973
    -1.4005  -1.3369  -1.2138  -1.1044  -0.8259  -0.4386   2.3361   2.4427
     2.5755   2.6152   2.9740   3.1145   3.4596   3.6259   4.3873   4.4103

          k = 0.4848 0.4665-0.1108 (  8430 PWs)   bands (ev):

   -33.8723 -33.8715 -16.8340 -16.7928 -15.1389 -15.0899 -15.0491 -14.9745
   -14.8195 -14.7935 -13.5784 -13.5104 -13.4304 -13.3799  -2.9015  -2.8482
    -1.4467  -1.3381  -1.1687  -1.1070  -0.6490  -0.5761   2.2668   2.3317
     2.5529   2.6203   3.0197   3.1038   3.4976   3.5403   4.3964   4.4461

          k = 0.3232 0.3732-0.0554 (  8438 PWs)   bands (ev):

   -33.8750 -33.8689 -16.8847 -16.7265 -15.1779 -15.0992 -15.0414 -14.9330
   -14.8601 -14.7668 -13.6079 -13.5399 -13.3877 -13.3626  -2.9392  -2.8589
    -1.4715  -1.2482  -1.1891  -1.1245  -0.9207  -0.3937   2.2919   2.4985
     2.5614   2.6151   2.9143   3.1363   3.5237   3.6364   4.3648   4.4428

          k = 0.1616 0.2799 0.0000 (  8443 PWs)   bands (ev):

   -33.8772 -33.8669 -16.8860 -16.7104 -15.1440 -15.1393 -14.9676 -14.9307
   -14.8856 -14.8299 -13.6312 -13.5744 -13.3776 -13.3027  -2.9705  -2.9351
    -1.4328  -1.2619  -1.2454  -1.1336  -1.1265  -0.2433   2.4735   2.5750
     2.6352   2.7530   2.8077   2.9945   3.6665   3.7735   4.3039   4.4061

          k =-0.3232 0.1866 0.2215 (  8436 PWs)   bands (ev):

   -33.8761 -33.8680 -16.8999 -16.7036 -15.1773 -15.1373 -14.9407 -14.8915
   -14.8783 -14.8677 -13.6002 -13.5479 -13.3911 -13.3460  -2.9897  -2.9058
    -1.4050  -1.2685  -1.2665  -1.0712  -1.0056  -0.3577   2.3988   2.5510
     2.6493   2.7298   2.8207   3.1680   3.3946   3.7920   4.3269   4.3674

          k =-0.4848 0.0933 0.2769 (  8430 PWs)   bands (ev):

   -33.8747 -33.8693 -16.8974 -16.7190 -15.2027 -15.1276 -14.9649 -14.9039
   -14.8765 -14.7869 -13.6469 -13.5080 -13.4163 -13.3369  -2.9803  -2.8301
    -1.4214  -1.3054  -1.2428  -1.0401  -0.8409  -0.4552   2.2627   2.4872
     2.6021   2.7183   2.8711   3.1176   3.3700   3.7099   4.3083   4.4626

          k = 0.4848 0.6531-0.0554 (  8428 PWs)   bands (ev):

   -33.8727 -33.8711 -16.8453 -16.7887 -15.1680 -15.0808 -14.9973 -14.9344
   -14.8608 -14.8097 -13.6154 -13.5193 -13.4185 -13.3534  -2.8958  -2.8441
    -1.4146  -1.3512  -1.2383  -1.0456  -0.6389  -0.5547   2.2181   2.2988
     2.6213   2.6854   2.9341   2.9687   3.4907   3.6196   4.3962   4.4607

          k = 0.3232 0.5598 0.0000 (  8417 PWs)   bands (ev):

   -33.8732 -33.8707 -16.8590 -16.7692 -15.1620 -15.1067 -15.0407 -14.8816
   -14.8767 -14.7858 -13.6275 -13.5277 -13.4050 -13.3500  -2.9107  -2.8254
    -1.4831  -1.2409  -1.2289  -1.0910  -0.7256  -0.4926   2.1987   2.3365
     2.5690   2.6486   2.9254   3.0607   3.5526   3.5711   4.3887   4.4813

          k =-0.4848 0.2799 0.3323 (  8436 PWs)   bands (ev):

   -33.8744 -33.8695 -16.9256 -16.6862 -15.2422 -15.2026 -14.8904 -14.8841
   -14.8692 -14.7416 -13.7044 -13.5722 -13.3524 -13.3175  -3.0311  -2.7424
    -1.4841  -1.2820  -1.2023  -0.9945  -0.8164  -0.5160   2.1854   2.4769
     2.6616   2.7684   2.8672   3.0039   3.3828   3.7124   4.2230   4.5301

          k = 0.4848 0.8396 0.0000 (  8432 PWs)   bands (ev):

   -33.8737 -33.8701 -16.9056 -16.7183 -15.2010 -15.1873 -14.9093 -14.9008
   -14.8679 -14.7627 -13.6938 -13.5439 -13.3777 -13.3220  -2.9917  -2.7530
    -1.4497  -1.3354  -1.2185  -0.9962  -0.7296  -0.5304   2.1567   2.3987
     2.7243   2.7393   2.8790   2.8874   3.4508   3.6726   4.2702   4.5321

          k = 0.0000-0.0000 0.1661 (  8462 PWs)   bands (ev):

   -33.8784 -33.8660 -16.8475 -16.7408 -15.1650 -15.1650 -14.9153 -14.9153
   -14.8769 -14.8202 -13.6990 -13.6990 -13.2617 -13.2617  -3.1460  -2.9244
    -1.3839  -1.3182  -1.3182  -1.1680  -1.1680  -0.0989   2.5560   2.5560
     2.6952   2.6952   3.0329   3.0329   3.8729   3.8729   4.0355   4.4579

          k =-0.1616-0.0933 0.2215 (  8434 PWs)   bands (ev):

   -33.8773 -33.8670 -16.8542 -16.7415 -15.1776 -15.0917 -15.0067 -14.8897
   -14.8763 -14.8384 -13.6822 -13.5898 -13.3495 -13.2740  -3.0900  -2.9472
    -1.3561  -1.3108  -1.2152  -1.1893  -1.1361  -0.2059   2.5518   2.5784
     2.6681   2.7596   2.8836   3.0742   3.7093   3.7957   4.1588   4.4173

          k =-0.3232-0.1866 0.2769 (  8432 PWs)   bands (ev):

   -33.8751 -33.8690 -16.8461 -16.7662 -15.1576 -15.0938 -15.0340 -14.9378
   -14.8334 -14.8223 -13.6138 -13.5007 -13.4552 -13.3204  -2.9911  -2.9191
    -1.3522  -1.3276  -1.1964  -1.1771  -0.9165  -0.3783   2.4879   2.5482
     2.6087   2.6089   2.9240   3.1444   3.5001   3.6345   4.3132   4.3956

          k = 0.6464 0.3732-0.0554 (  8428 PWs)   bands (ev):

   -33.8724 -33.8715 -16.8306 -16.7939 -15.1569 -15.0809 -15.0388 -14.9822
   -14.8152 -14.7930 -13.5429 -13.5402 -13.4408 -13.3739  -2.9464  -2.8382
    -1.4463  -1.3096  -1.1746  -1.1278  -0.6650  -0.5796   2.3063   2.4033
     2.5408   2.6434   3.0077   3.2420   3.3690   3.5354   4.3528   4.4401

          k = 0.4848 0.2799 0.0000 (  8427 PWs)   bands (ev):

   -33.8743 -33.8696 -16.8876 -16.7263 -15.1665 -15.1468 -15.0005 -14.9634
   -14.8437 -14.7507 -13.6211 -13.4925 -13.4221 -13.3681  -2.9576  -2.8134
    -1.4960  -1.2403  -1.1804  -1.1121  -0.8424  -0.4621   2.2508   2.4466
     2.5286   2.6703   2.9418   3.2442   3.4010   3.6075   4.3296   4.4701

          k = 0.3232 0.1866 0.0554 (  8425 PWs)   bands (ev):

   -33.8767 -33.8674 -16.8961 -16.7028 -15.1620 -15.1271 -14.9938 -14.9258
   -14.8665 -14.8234 -13.6242 -13.5274 -13.4125 -13.3203  -2.9541  -2.9192
    -1.4406  -1.2719  -1.2121  -1.1259  -1.0709  -0.2979   2.4361   2.5040
     2.6746   2.7020   2.8016   3.0894   3.5638   3.7647   4.3573   4.3703

          k =-0.1616 0.0933 0.2769 (  8448 PWs)   bands (ev):

   -33.8768 -33.8675 -16.8566 -16.7416 -15.1590 -15.1011 -14.9819 -14.9121
   -14.8744 -14.8629 -13.6315 -13.5907 -13.3376 -13.3216  -3.0800  -2.9798
    -1.3268  -1.2722  -1.2720  -1.1380  -1.1159  -0.2554   2.5499   2.5886
     2.6547   2.7174   2.9750   3.1049   3.6024   3.8177   4.1638   4.3825

          k =-0.3232-0.0000 0.3323 (  8442 PWs)   bands (ev):

   -33.8753 -33.8689 -16.8599 -16.7508 -15.1550 -15.1109 -14.9795 -14.9179
   -14.8773 -14.8456 -13.5859 -13.5445 -13.4046 -13.3462  -2.9938  -2.9736
    -1.3179  -1.2919  -1.2837  -1.1144  -0.9364  -0.3874   2.4839   2.5600
     2.6099   2.7546   2.8813   3.1720   3.4121   3.7144   4.2953   4.3547

          k = 0.6464 0.5598 0.0000 (  8426 PWs)   bands (ev):

   -33.8731 -33.8708 -16.8233 -16.8042 -15.1532 -15.0924 -15.0107 -14.9372
   -14.8465 -14.8239 -13.5795 -13.5083 -13.4497 -13.3580  -2.9382  -2.8865
    -1.4046  -1.2785  -1.2623  -1.0940  -0.7134  -0.5270   2.3559   2.3854
     2.6040   2.6985   2.9375   3.1253   3.4093   3.5823   4.3670   4.4055

          k = 0.4848 0.4665 0.0554 (  8420 PWs)   bands (ev):

   -33.8731 -33.8708 -16.8709 -16.7549 -15.1742 -15.1229 -15.0224 -14.9087
   -14.8478 -14.7765 -13.6386 -13.4844 -13.4463 -13.3433  -2.9484  -2.7994
    -1.4925  -1.2510  -1.1884  -1.1037  -0.7097  -0.5313   2.2076   2.3794
     2.5444   2.6949   2.9434   3.1159   3.4588   3.5779   4.3405   4.4886

          k = 0.3232 0.3732 0.1108 (  8425 PWs)   bands (ev):

   -33.8752 -33.8688 -16.8985 -16.7114 -15.1990 -15.1162 -15.0164 -14.8947
   -14.8804 -14.7664 -13.6432 -13.5114 -13.4119 -13.3380  -2.9635  -2.8347
    -1.4705  -1.2611  -1.1838  -1.1054  -0.9186  -0.4018   2.2668   2.5137
     2.5578   2.6632   2.8668   3.1680   3.4485   3.6914   4.3340   4.4608

          k =-0.3232 0.1866 0.3876 (  8437 PWs)   bands (ev):

   -33.8747 -33.8693 -16.8865 -16.7265 -15.2054 -15.0967 -14.9337 -14.9121
   -14.8753 -14.8556 -13.5660 -13.5648 -13.3851 -13.3728  -3.0218  -2.9073
    -1.4029  -1.2534  -1.2412  -1.0629  -0.8792  -0.4673   2.3846   2.5507
     2.6674   2.7535   2.9060   3.1888   3.2619   3.7283   4.2870   4.3734

          k = 0.6464 0.7463 0.0554 (  8439 PWs)   bands (ev):

   -33.8736 -33.8703 -16.8797 -16.7457 -15.1903 -15.1239 -14.9295 -14.9122
   -14.8760 -14.8230 -13.6168 -13.5368 -13.3919 -13.3608  -2.9836  -2.8416
    -1.4137  -1.3188  -1.2167  -1.0447  -0.7427  -0.5316   2.2741   2.4344
     2.7128   2.7633   2.8825   2.9802   3.3933   3.6528   4.3035   4.4490

          k = 0.4848 0.6531 0.1108 (  8411 PWs)   bands (ev):

   -33.8722 -33.8716 -16.8288 -16.8085 -15.1460 -15.1074 -14.9649 -14.9249
   -14.8699 -14.8368 -13.5879 -13.5499 -13.3965 -13.3702  -2.8800  -2.8619
    -1.4204  -1.3678  -1.1838  -1.0734  -0.6032  -0.5845   2.2377   2.2656
     2.6652   2.7174   2.9112   2.9243   3.5167   3.5825   4.4132   4.4377

          k = 0.3232 0.5598 0.1661 (  8426 PWs)   bands (ev):

   -33.8731 -33.8708 -16.8556 -16.7744 -15.1685 -15.0944 -15.0225 -14.9206
   -14.8538 -14.7929 -13.6265 -13.5195 -13.4144 -13.3487  -2.9067  -2.8306
    -1.4449  -1.3464  -1.1472  -1.1123  -0.6932  -0.5122   2.2042   2.3261
     2.5949   2.6447   2.9297   3.0324   3.5209   3.6024   4.3895   4.4759

          k = 0.6464-0.3732-0.2769 (  8425 PWs)   bands (ev):

   -33.8738 -33.8701 -16.9128 -16.7050 -15.2439 -15.1782 -14.9089 -14.8784
   -14.8641 -14.7540 -13.6814 -13.5858 -13.3418 -13.3339  -3.0300  -2.7513
    -1.4915  -1.2713  -1.1765  -1.0274  -0.7575  -0.5540   2.1964   2.4561
     2.7097   2.7727   2.8589   2.9822   3.3938   3.6625   4.2312   4.5195

          k = 0.4848-0.4665-0.2215 (  8431 PWs)   bands (ev):

   -33.8736 -33.8703 -16.8965 -16.7281 -15.1943 -15.1704 -14.9575 -14.8795
   -14.8674 -14.7672 -13.6795 -13.5272 -13.3976 -13.3254  -2.9804  -2.7652
    -1.4770  -1.3112  -1.1689  -1.0548  -0.7289  -0.5242   2.1694   2.3962
     2.6228   2.7388   2.8950   3.0004   3.4503   3.6394   4.2906   4.5201

          k = 0.4848-0.2799-0.1661 (  8426 PWs)   bands (ev):

   -33.8746 -33.8693 -16.9164 -16.6937 -15.2083 -15.1991 -14.9296 -14.9145
   -14.8612 -14.7374 -13.6813 -13.5363 -13.3806 -13.3305  -3.0048  -2.7641
    -1.5008  -1.2627  -1.1598  -1.0688  -0.8536  -0.4742   2.2034   2.4889
     2.5470   2.7325   2.8779   3.2142   3.3338   3.6865   4.2632   4.5111

          k = 0.0000-0.0000 0.3323 (  8453 PWs)   bands (ev):

   -33.8764 -33.8679 -16.8346 -16.7607 -15.1352 -15.1352 -14.9654 -14.9654
   -14.8635 -14.8246 -13.6202 -13.6202 -13.3206 -13.3206  -3.1470  -3.0046
    -1.2894  -1.2894  -1.1860  -1.1860  -1.1382  -0.2565   2.5787   2.5787
     2.6688   2.6688   3.1444   3.1444   3.7238   3.7238   4.0834   4.3697

          k =-0.1616-0.0933 0.3876 (  8449 PWs)   bands (ev):

   -33.8752 -33.8690 -16.8326 -16.7712 -15.1600 -15.0625 -15.0522 -14.9123
   -14.8699 -14.8343 -13.6179 -13.5204 -13.4140 -13.3230  -3.0973  -3.0058
    -1.2958  -1.2648  -1.2223  -1.1894  -0.9673  -0.3733   2.5676   2.5855
     2.6384   2.7102   3.0015   3.2556   3.5153   3.6781   4.1790   4.3439

          k = 0.8079 0.4665 0.0554 (  8438 PWs)   bands (ev):

   -33.8733 -33.8708 -16.8135 -16.8065 -15.1844 -15.0645 -15.0360 -14.8992
   -14.8577 -14.8263 -13.5934 -13.5067 -13.4552 -13.3373  -3.0240  -2.9168
    -1.3791  -1.2385  -1.1940  -1.1921  -0.7627  -0.5192   2.4309   2.5156
     2.6683   2.7410   2.8472   3.3038   3.3413   3.5587   4.2821   4.3844

          k = 0.6464 0.3732 0.1108 (  8431 PWs)   bands (ev):

   -33.8727 -33.8712 -16.8793 -16.7442 -15.2138 -15.1342 -14.9658 -14.9147
   -14.8454 -14.7703 -13.6207 -13.5723 -13.3780 -13.3500  -3.0002  -2.7860
    -1.4920  -1.2365  -1.1491  -1.1337  -0.6757  -0.5945   2.2375   2.4444
     2.5835   2.7292   2.9217   3.1739   3.3637   3.5737   4.2828   4.4848

          k =-0.1616 0.0933 0.4430 (  8457 PWs)   bands (ev):

   -33.8745 -33.8698 -16.8353 -16.7705 -15.1517 -15.0463 -15.0440 -14.9520
   -14.8560 -14.8493 -13.5754 -13.4994 -13.4208 -13.3692  -3.0776  -3.0422
    -1.3097  -1.2411  -1.2370  -1.1565  -0.8947  -0.4487   2.5557   2.6043
     2.6410   2.6789   3.1071   3.2885   3.3954   3.6681   4.2037   4.3008

          k = 0.8079 0.6531 0.1108 (  8447 PWs)   bands (ev):

   -33.8732 -33.8709 -16.8287 -16.7899 -15.1422 -15.1214 -14.9646 -14.9277
   -14.8725 -14.8515 -13.5482 -13.5293 -13.4139 -13.3875  -3.0036  -2.9967
    -1.3200  -1.3085  -1.1996  -1.1370  -0.7515  -0.5539   2.4815   2.5047
     2.6839   2.7466   2.9792   3.1508   3.4104   3.5803   4.2977   4.3179

          k = 0.6464 0.5598 0.1661 (  8437 PWs)   bands (ev):

   -33.8722 -33.8717 -16.8469 -16.7835 -15.1696 -15.1091 -14.9738 -14.8794
   -14.8689 -14.8546 -13.5730 -13.5539 -13.4054 -13.3685  -2.9694  -2.8622
    -1.4273  -1.3070  -1.1399  -1.1315  -0.6355  -0.6155   2.3056   2.3987
     2.7075   2.7717   2.8701   3.0128   3.4628   3.5461   4.3259   4.4266

          k = 0.8079-0.4665-0.2215 (  8453 PWs)   bands (ev):

   -33.8728 -33.8712 -16.8564 -16.7640 -15.2069 -15.0578 -15.0031 -14.8922
   -14.8747 -14.8332 -13.5793 -13.5299 -13.4274 -13.3556  -3.0355  -2.9135
    -1.4050  -1.2308  -1.2042  -1.1180  -0.7013  -0.6081   2.3939   2.5148
     2.7285   2.7590   2.9105   3.1232   3.3738   3.5948   4.2693   4.3772

          k = 0.0000-0.0000 0.4984 (  8468 PWs)   bands (ev):

   -33.8737 -33.8706 -16.8136 -16.7872 -15.0879 -15.0879 -15.0281 -15.0281
   -14.8474 -14.8335 -13.5159 -13.5159 -13.4098 -13.4098  -3.1296  -3.0814
    -1.2518  -1.2518  -1.2150  -1.2150  -0.8213  -0.5082   2.6075   2.6075
     2.6383   2.6383   3.3153   3.3153   3.5217   3.5217   4.1604   4.2608

          k = 0.9695 0.5598 0.1661 (  8451 PWs)   bands (ev):

   -33.8725 -33.8717 -16.8051 -16.8032 -15.1376 -15.0899 -15.0146 -14.9628
   -14.8536 -14.8408 -13.5342 -13.4835 -13.4515 -13.3927  -3.0841  -3.0540
    -1.2912  -1.2420  -1.2149  -1.1901  -0.7036  -0.6167   2.5656   2.5899
     2.6466   2.6738   3.1723   3.3065   3.4490   3.5096   4.2273   4.2662

     highest occupied level (ev):     4.5321

!    total energy              =    -367.40923530 Ry
     estimated scf accuracy    <          1.1E-10 Ry

     The total energy is the sum of the following terms:
     one-electron contribution =    -143.10113299 Ry
     hartree contribution      =     101.09802920 Ry
     xc contribution           =     -75.17244859 Ry
     ewald contribution        =    -250.23368292 Ry

     convergence has been achieved in   7 iterations

     Forces acting on atoms (cartesian axes, Ry/au):

     atom    1 type  1   force =     0.00000000    0.00000000    0.00000000
     atom    2 type  1   force =     0.00000000    0.00000000    0.00000000
     atom    3 type  2   force =    -0.00000000    0.00000000   -0.00000000
     atom    4 type  2   force =     0.00000000   -0.00000000    0.00000000
     atom    5 type  3   force =    -0.00002565    0.00004443    0.00000000
     atom    6 type  3   force =     0.00005131   -0.00000000   -0.00000000
     atom    7 type  3   force =    -0.00002565   -0.00004443   -0.00000000
     atom    8 type  3   force =    -0.00005131    0.00000000    0.00000000
     atom    9 type  3   force =     0.00002565    0.00004443    0.00000000
     atom   10 type  3   force =     0.00002565   -0.00004443   -0.00000000

     Total force =     0.000126     Total SCF correction =     0.000029
     SCF correction compared to forces is large: reduce conv_thr to get better values


     Computing stress (Cartesian axis) and pressure

          total   stress  (Ry/bohr**3)                   (kbar)     P=      -24.39
  -0.00034311   0.00000000   0.00000000          -50.47        0.00        0.00
  -0.00000000  -0.00034311  -0.00000000           -0.00      -50.47       -0.00
   0.00000000  -0.00000000   0.00018884            0.00       -0.00       27.78

     Energy error            =      2.0E-05 Ry
     Gradient error          =      5.1E-05 Ry/Bohr

     bfgs converged in   4 scf cycles and   3 bfgs steps
     (criteria: energy <  1.0E-04 Ry, force <  1.0E-03 Ry/Bohr)

     End of BFGS Geometry Optimization

     Final energy             =    -367.4092352980 Ry

     File ./CCO_rand1.bfgs deleted, as requested
Begin final coordinates

ATOMIC_POSITIONS (crystal)
Ca            0.5000000000        0.5000000000        0.5000000000
Ca            0.0000000000        0.0000000000       -0.0000000000
C             0.2500000000        0.2500000000        0.2500000000
C             0.7500000000        0.7500000000        0.7500000000
O             0.4948085786        1.0051914214        0.2500000000
O             1.0051914214        0.2500000000        0.4948085786
O             0.2500000000        0.4948085786        1.0051914214
O            -0.0051914214        0.7500000000        0.5051914214
O             0.7500000000        0.5051914214       -0.0051914214
O             0.5051914214       -0.0051914214        0.7500000000
End final coordinates



     Writing all to output data dir ./CCO_rand1.save/
 
     init_run     :     38.23s CPU     39.27s WALL (       1 calls)
     electrons    :   5654.54s CPU   5729.91s WALL (       4 calls)
     update_pot   :      2.43s CPU      2.45s WALL (       3 calls)
     forces       :     20.69s CPU     21.13s WALL (       4 calls)
     stress       :    134.73s CPU    135.52s WALL (       4 calls)

     Called by init_run:
     wfcinit      :     34.94s CPU     35.47s WALL (       1 calls)
     potinit      :      0.47s CPU      0.58s WALL (       1 calls)
     hinit0       :      2.07s CPU      2.24s WALL (       1 calls)

     Called by electrons:
     c_bands      :   5180.43s CPU   5249.03s WALL (      33 calls)
     sum_band     :    442.83s CPU    447.28s WALL (      33 calls)
     v_of_rho     :     13.30s CPU     13.42s WALL (      36 calls)
     newd         :     20.90s CPU     23.13s WALL (      36 calls)
     mix_rho      :      0.62s CPU      0.67s WALL (      33 calls)

     Called by c_bands:
     init_us_2    :     57.51s CPU     57.64s WALL (    3300 calls)
     init_us_2:cp :     57.37s CPU     57.57s WALL (    3300 calls)
     ccgdiagg     :   4460.46s CPU   4522.92s WALL (    1481 calls)
     wfcrot       :    722.62s CPU    727.23s WALL (    1305 calls)

     Called by *cgdiagg:
     h_psi        :   3875.29s CPU   3912.55s WALL (  162623 calls)
     s_psi        :    726.25s CPU    744.25s WALL (  323941 calls)

     Called by h_psi:
     h_psi:calbec :    373.74s CPU    379.40s WALL (  162623 calls)
     vloc_psi     :   3107.44s CPU   3132.83s WALL (  162623 calls)
     add_vuspsi   :    376.14s CPU    384.90s WALL (  162623 calls)
     hs_1psi      :   3563.95s CPU   3602.30s WALL (  161318 calls)
     s_1psi       :    711.39s CPU    724.00s WALL (  161318 calls)

     General routines
     calbec       :    735.51s CPU    754.77s WALL (  326273 calls)
     fft          :      3.30s CPU      3.34s WALL (     500 calls)
     ffts         :      0.22s CPU      0.22s WALL (      33 calls)
     fftw         :   3042.57s CPU   3053.93s WALL (  454380 calls)
 
     Parallel routines
 
     PWSCF        :      1h37m CPU      1h38m WALL

 
   This run was terminated on:   6:42:12   4May2022            

=------------------------------------------------------------------------------=
   JOB DONE.
=------------------------------------------------------------------------------=
