
     Program PWSCF v.6.4.1 starts on 23Apr2022 at 19:30:50 

     This program is part of the open-source Quantum ESPRESSO suite
     for quantum simulation of materials; please cite
         "P. Giannozzi et al., J. Phys.:Condens. Matter 21 395502 (2009);
         "P. Giannozzi et al., J. Phys.:Condens. Matter 29 465901 (2017);
          URL http://www.quantum-espresso.org", 
     in publications or presentations arising from this work. More details at
     http://www.quantum-espresso.org/quote

     Parallel version (MPI & OpenMP), running on      68 processor cores
     Number of MPI processes:                68
     Threads/MPI process:                     1

     MPI processes distributed on     1 nodes
     R & G space division:  proc/nbgrp/npool/nimage =      68
     Waiting for input...
     Reading input from standard input

     Current dimensions of program PWSCF are:
     Max number of different atomic species (ntypx) = 10
     Max number of k-points (npk) =  40000
     Max angular momentum in pseudopotentials (lmaxx) =  3

     Subspace diagonalization in iterative solution of the eigenvalue problem:
     one sub-group per band group will be used
     scalapack distributed-memory algorithm (size of sub-group:  5*  5 procs)

 
     Parallelization info
     --------------------
     sticks:   dense  smooth     PW     G-vecs:    dense   smooth      PW
     Min         131      52     14                 8194     2067     304
     Max         132      53     15                 8200     2073     311
     Sum        8947    3571   1003               557409   140735   20875
 


     bravais-lattice index     =            5
     lattice parameter (alat)  =      12.0000  a.u.
     unit-cell volume          =    1221.8805 (a.u.)^3
     number of atoms/cell      =           10
     number of atomic types    =            3
     number of electrons       =        64.00
     number of Kohn-Sham states=           32
     kinetic-energy cutoff     =      90.0000  Ry
     charge density cutoff     =     900.0000  Ry
     convergence threshold     =      1.0E-08
     mixing beta               =       0.7000
     number of iterations used =            8  plain     mixing
     Exchange-correlation      = SLA  PW   PBE  PBE ( 1  4  3  4 0 0)
     nstep                     =           50


     celldm(1)=  12.000000  celldm(2)=   0.000000  celldm(3)=   0.000000
     celldm(4)=   0.500000  celldm(5)=   0.000000  celldm(6)=   0.000000

     crystal axes: (cart. coord. in units of alat)
               a(1) = (   0.500000  -0.288675   0.816497 )  
               a(2) = (   0.000000   0.577350   0.816497 )  
               a(3) = (  -0.500000  -0.288675   0.816497 )  

     reciprocal axes: (cart. coord. in units 2 pi/alat)
               b(1) = (  1.000000 -0.577350  0.408248 )  
               b(2) = (  0.000000  1.154701  0.408248 )  
               b(3) = ( -1.000000 -0.577350  0.408248 )  


     PseudoPot. # 1 for Ca read from file:
     ./Ca_PBE.UPF
     MD5 check sum: 403a4c14b9e4d4dfdc3024c9a3812218
     Pseudo is Ultrasoft + core correction, Zval = 10.0
     Generated by new atomic code, or converted to UPF format
     Using radial grid of  845 points,  6 beta functions with: 
                l(1) =   0
                l(2) =   0
                l(3) =   1
                l(4) =   1
                l(5) =   2
                l(6) =   2
     Q(r) pseudized with  8 coefficients,  rinner =    1.500   1.500   1.500
                                                       1.500   1.500

     PseudoPot. # 2 for C  read from file:
     ./C_PBE.UPF
     MD5 check sum: d1aef80898a10debaa0f26306b886e00
     Pseudo is Ultrasoft + core correction, Zval =  4.0
     Generated by new atomic code, or converted to UPF format
     Using radial grid of  721 points,  4 beta functions with: 
                l(1) =   0
                l(2) =   0
                l(3) =   1
                l(4) =   1
     Q(r) pseudized with  8 coefficients,  rinner =    1.100   1.100   1.100


     PseudoPot. # 3 for O  read from file:
     ./O_PBE.UPF
     MD5 check sum: 734c27235a0248c51dbae37a1fbe46ec
     Pseudo is Ultrasoft + core correction, Zval =  6.0
     Generated by new atomic code, or converted to UPF format
     Using radial grid of  737 points,  5 beta functions with: 
                l(1) =   0
                l(2) =   0
                l(3) =   1
                l(4) =   1
                l(5) =   2
     Q(r) pseudized with  8 coefficients,  rinner =    0.900   0.900   0.900
                                                       0.900   0.900

     atomic species   valence    mass     pseudopotential
        Ca            10.00    40.07800     Ca( 1.00)
        C              4.00    12.01070     C ( 1.00)
        O              6.00    16.00000     O ( 1.00)

     12 Sym. Ops., with inversion, found ( 6 have fractional translation)



   Cartesian axes

     site n.     atom                  positions (alat units)
         1           Ca  tau(   1) = (   0.0000000  -0.0000000   1.2247449  )
         2           Ca  tau(   2) = (   0.0000000   0.0000000   0.0000000  )
         3           C   tau(   3) = (   0.0000000  -0.0000000   0.6123724  )
         4           C   tau(   4) = (  -0.0000000  -0.0000000   1.8371173  )
         5           O   tau(   5) = (   0.1293055   0.3533865   1.4288690  )
         6           O   tau(   6) = (   0.2413889  -0.2886751   1.4288690  )
         7           O   tau(   7) = (  -0.3706945  -0.0647114   1.4288690  )
         8           O   tau(   8) = (  -0.2413889   0.2886751   1.0206207  )
         9           O   tau(   9) = (   0.3706945   0.0647114   1.0206207  )
        10           O   tau(  10) = (  -0.1293055  -0.3533865   1.0206207  )

     number of k points=   116

     Number of k-points >= 100: set verbosity='high' to print them.

     Dense  grid:   557409 G-vectors     FFT dimensions: ( 120, 120, 120)

     Smooth grid:   140735 G-vectors     FFT dimensions: (  80,  80,  80)

     Estimated max dynamical RAM per process >      75.57 MB

     Estimated total dynamical RAM >       5.02 GB

     Check: negative core charge=   -0.000001

     Initial potential from superposition of free atoms

     starting charge   63.98899, renormalised to   64.00000
     Starting wfcs are   52 randomized atomic wfcs

     total cpu time spent up to now is       26.7 secs

     Self-consistent Calculation

     iteration #  1     ecut=    90.00 Ry     beta= 0.70
     CG style diagonalization
     ethr =  1.00E-02,  avg # of iterations =  2.1

     total cpu time spent up to now is       67.7 secs

     total energy              =    -365.08311961 Ry
     Harris-Foulkes estimate   =    -366.87208551 Ry
     estimated scf accuracy    <       2.42812758 Ry

     iteration #  2     ecut=    90.00 Ry     beta= 0.70
     CG style diagonalization
     ethr =  3.79E-03,  avg # of iterations =  4.8

     total cpu time spent up to now is      149.6 secs

     total energy              =    -364.96759416 Ry
     Harris-Foulkes estimate   =    -368.36437463 Ry
     estimated scf accuracy    <       9.76076607 Ry

     iteration #  3     ecut=    90.00 Ry     beta= 0.70
     CG style diagonalization
     ethr =  3.79E-03,  avg # of iterations =  4.3

     total cpu time spent up to now is      222.9 secs

     total energy              =    -366.36707763 Ry
     Harris-Foulkes estimate   =    -366.39617492 Ry
     estimated scf accuracy    <       0.05947811 Ry

     iteration #  4     ecut=    90.00 Ry     beta= 0.70
     CG style diagonalization
     ethr =  9.29E-05,  avg # of iterations =  4.3

     total cpu time spent up to now is      296.3 secs

     total energy              =    -366.40934310 Ry
     Harris-Foulkes estimate   =    -366.41244394 Ry
     estimated scf accuracy    <       0.01035561 Ry

     iteration #  5     ecut=    90.00 Ry     beta= 0.70
     CG style diagonalization
     ethr =  1.62E-05,  avg # of iterations =  3.8

     total cpu time spent up to now is      361.7 secs

     total energy              =    -366.41227752 Ry
     Harris-Foulkes estimate   =    -366.41228769 Ry
     estimated scf accuracy    <       0.00020607 Ry

     iteration #  6     ecut=    90.00 Ry     beta= 0.70
     CG style diagonalization
     ethr =  3.22E-07,  avg # of iterations =  5.0

     total cpu time spent up to now is      446.3 secs

     total energy              =    -366.41252457 Ry
     Harris-Foulkes estimate   =    -366.41257685 Ry
     estimated scf accuracy    <       0.00012339 Ry

     iteration #  7     ecut=    90.00 Ry     beta= 0.70
     CG style diagonalization
     ethr =  1.93E-07,  avg # of iterations =  3.8

     total cpu time spent up to now is      511.3 secs

     total energy              =    -366.41255904 Ry
     Harris-Foulkes estimate   =    -366.41256146 Ry
     estimated scf accuracy    <       0.00001117 Ry

     iteration #  8     ecut=    90.00 Ry     beta= 0.70
     CG style diagonalization
     ethr =  1.74E-08,  avg # of iterations =  3.7

     total cpu time spent up to now is      575.0 secs

     total energy              =    -366.41256039 Ry
     Harris-Foulkes estimate   =    -366.41256160 Ry
     estimated scf accuracy    <       0.00000386 Ry

     iteration #  9     ecut=    90.00 Ry     beta= 0.70
     CG style diagonalization
     ethr =  6.04E-09,  avg # of iterations =  3.5

     total cpu time spent up to now is      635.1 secs

     total energy              =    -366.41256124 Ry
     Harris-Foulkes estimate   =    -366.41256126 Ry
     estimated scf accuracy    <       0.00000005 Ry

     iteration # 10     ecut=    90.00 Ry     beta= 0.70
     CG style diagonalization
     ethr =  7.71E-11,  avg # of iterations =  5.2

     total cpu time spent up to now is      723.4 secs

     total energy              =    -366.41256133 Ry
     Harris-Foulkes estimate   =    -366.41256134 Ry
     estimated scf accuracy    <       0.00000001 Ry

     iteration # 11     ecut=    90.00 Ry     beta= 0.70
     CG style diagonalization
     ethr =  2.31E-11,  avg # of iterations =  3.8

     total cpu time spent up to now is      787.6 secs

     End of self-consistent calculation

     Number of k-points >= 100: set verbosity='high' to print the bands.

     highest occupied level (ev):     1.4848

!    total energy              =    -366.41256133 Ry
     Harris-Foulkes estimate   =    -366.41256134 Ry
     estimated scf accuracy    <          3.1E-09 Ry

     The total energy is the sum of the following terms:

     one-electron contribution =    -166.43270564 Ry
     hartree contribution      =     105.51862754 Ry
     xc contribution           =     -72.64504794 Ry
     ewald contribution        =    -232.85343531 Ry

     convergence has been achieved in  11 iterations

     Forces acting on atoms (cartesian axes, Ry/au):

     atom    1 type  1   force =     0.00000000    0.00000000    0.00000000
     atom    2 type  1   force =    -0.00000000   -0.00000000    0.00000000
     atom    3 type  2   force =     0.00000000    0.00000000   -0.00000000
     atom    4 type  2   force =    -0.00000000    0.00000000   -0.00000000
     atom    5 type  3   force =    -0.12154322    0.21051903    0.00000000
     atom    6 type  3   force =     0.24308644    0.00000000    0.00000000
     atom    7 type  3   force =    -0.12154322   -0.21051903   -0.00000000
     atom    8 type  3   force =    -0.24308644   -0.00000000   -0.00000000
     atom    9 type  3   force =     0.12154322    0.21051903    0.00000000
     atom   10 type  3   force =     0.12154322   -0.21051903   -0.00000000

     Total force =     0.595438     Total SCF correction =     0.000078


     Computing stress (Cartesian axis) and pressure

          total   stress  (Ry/bohr**3)                   (kbar)     P= -286.90
  -0.00282796   0.00000000   0.00000000       -416.01      0.00      0.00
  -0.00000000  -0.00282796  -0.00000000         -0.00   -416.01     -0.00
  -0.00000000  -0.00000000  -0.00019498         -0.00     -0.00    -28.68


     number of scf cycles    =   2
     number of bfgs steps    =   1

     enthalpy old            =    -367.3230364732 Ry
     enthalpy new            =    -366.4117307166 Ry

     CASE: enthalpy_new > enthalpy_old


 %%%%%%%%%%%%%%%%%%%%%%%%%%%%%%%%%%%%%%%%%%%%%%%%%%%%%%%%%%%%%%%%%%%%%%%%%%%%%%
     Error in routine bfgs (1):
     dE0s is positive which should never happen
 %%%%%%%%%%%%%%%%%%%%%%%%%%%%%%%%%%%%%%%%%%%%%%%%%%%%%%%%%%%%%%%%%%%%%%%%%%%%%%

     stopping ...
                                                                                                                                                                                                                                                                                                                                                                                                                                                                                                                                                                                                                                                                                                                                                                                                                                                                                                                                                                                                                                                                                                                                                                                                                                                                                                                                                                                                                                                                                                                                                                                                                                                                                                                                                                                                                                                                                                                                                                                                                                                                                                                                                                                                                                                                                                                                                                                                                                                                                                                                                                                                                                                                                                                                                                                                                                                                                                                                                                                                                                                                                                                                                                                                                                                                                                                                                                                                                                                                                                                                                                                                                                                                                                                                                                                                                                                                                                                                                                                                                                                                                                                                                                                                                                                                                                                                                                                                                                                                                                                                                                                                                                                                                                                                                                                                                                                                                                                                                                                                                                                                                                                                                                                                                                                                                                                                                                                                                                                                                                                                                                                                                                                                                                                                                                                                                                                                                                                                                                                                                                                                                                                                                                                                                                                                                                                                                                                                                                                                                                                                                                                                                                                                                                                                                                                                                                                                                                                                                                                                                                                                                                                                                                                                                                                                                                                                                                                                                                                                                                                                                                                                                                                                                                                                                                                                                                                                                                                                                                                                                                                                                                                                                                                                                                                                                                                                                                                                                                                                                                                                                                                                                                                                                                                                                                                                                                                                                                                                                                                                                                                                                                                                                                                                                                                                                                                                                                                                                                                                                                                                                                                                                                                                                                                                                                                                                                                                                                                                                                                                                                                                                                                                                                                                                                                                                                                                                                                                                                                                                                                                                                                                                                                                                                                                                                                                                                                                                                                                                                                                                                                                                                                                                                                                                                                                                                                                                                                                                                                                                                                                                                                                                                                                                                                                                                                                                                                                                                                                                                                                                                                                                                                                                                                                                                                                                                                                                                                                                                                                                                                                                                                                                                                                                                                                                                                                                                                                                                                                                                                                                                                                                                                                                                                                                                                                                                                                                                                                                                                                                                                                                                                                                                                                                                                                                                                                                                                                                                                                                                                                                                                                                                                                                                                                                                                                                                                                                                                                                                                                                                                                                                                                                                                                                                                                                                                                                                                                                                                                                                                                                                                                                                                                                                                                                                                                                                                                                                                                                                                                                                                                                                                                                                                                                                                                                                                                                                                                                                                                                                                                                                                                                                                                                                                                                                                                                                                                                                                                                                                                                                                                                                                                                                                                                                                                                                                                                                                                                                                                                                                                                                                                                                                                                                                                                                                                                                                                                                                                                                                                                                                                                                                                                                                                                                                                                                                                                                                                                                                                                                                                                                                                                                                                                                                                                                                                                                                                                                                                                                                                                                                                                                                                                                                                                                                                                                                                                                                                                                                                                                                                                                                                                                                                                                                                                                                                                                                                                                                                                                                                                                                                                                                                                                                                                                                                                                                                                                                                                                                                                                                                                                                                                                                                                                                                                                                                                                                                                                                                                                                                                                                                                                                                                                                                                                                                                                                                                                                                                                                                                                                                                                                                                                                                                                                                                                                                                                                                                                                                                                                                                                                                                                                                                                                                                                                                                                                                                                                                                                                                                                                                                                                                                                                                                                                                                                                                                                                                                                                                                                                                                                                                                                                                                                                                                                                                                                                                                                                                                                                                                                                                                                                                                                                                                                                                                                                                                                                                                                                                                                                                                                                                                                                                                                                                                                                                                                                                                                                                                                                                                                                                                                                                                                                                                                                                                                                                                                                                                                                                                                                                                                                                                                                                                                                                                                                                                                                                                                                                                                                                                                                                                                                                                                                                                                                                                                                                                                                                                                                                                                                                                                                                                                                                                                                                                                                                                                                                                                                                                                                                                                                                                                                                                                                                                                                                                                                                                                                                                                                                                                                                                                                                                                                                                                                                                                                                                                                                                                                                                                                                                                                                                                                                                                                                                                                                                                                                                                                                                                                                                                                                                                                                                                                                                                                                                                                                                                                                                                                                                                                                                                                                                                                                                                                                                                                                                                                                                                                                        ethr =  2.25E-08,  avg # of iterations =  3.5

     total cpu time spent up to now is     4614.4 secs

     total energy              =    -367.32370001 Ry
     Harris-Foulkes estimate   =    -367.32370106 Ry
     estimated scf accuracy    <       0.00000298 Ry

     iteration # 19     ecut=    90.00 Ry     beta= 0.70
     CG style diagonalization
     ethr =  4.66E-09,  avg # of iterations =  3.7

     total cpu time spent up to now is     4678.1 secs

     total energy              =    -367.32370004 Ry
     Harris-Foulkes estimate   =    -367.32370051 Ry
     estimated scf accuracy    <       0.00000119 Ry

     iteration # 20     ecut=    90.00 Ry     beta= 0.70
     CG style diagonalization
     ethr =  1.86E-09,  avg # of iterations =  3.5

     total cpu time spent up to now is     4737.6 secs

     total energy              =    -367.32370012 Ry
     Harris-Foulkes estimate   =    -367.32370017 Ry
     estimated scf accuracy    <       0.00000012 Ry

     iteration # 21     ecut=    90.00 Ry     beta= 0.70
     CG style diagonalization
     ethr =  1.85E-10,  avg # of iterations =  3.7

     total cpu time spent up to now is     4801.2 secs

     End of self-consistent calculation

     Number of k-points >= 100: set verbosity='high' to print the bands.

     highest occupied level (ev):     3.5966

!    total energy              =    -367.32370014 Ry
     Harris-Foulkes estimate   =    -367.32370015 Ry
     estimated scf accuracy    <          3.9E-09 Ry

     The total energy is the sum of the following terms:

     one-electron contribution =    -165.20815934 Ry
     hartree contribution      =     109.13514098 Ry
     xc contribution           =     -74.74616961 Ry
     ewald contribution        =    -236.50451217 Ry

     convergence has been achieved in  21 iterations

     Forces acting on atoms (cartesian axes, Ry/au):

     atom    1 type  1   force =     0.00000000    0.00000000    0.00000000
     atom    2 type  1   force =    -0.00000000   -0.00000000    0.00000000
     atom    3 type  2   force =    -0.00000000    0.00000000    0.00000000
     atom    4 type  2   force =     0.00000000    0.00000000    0.00000000
     atom    5 type  3   force =    -0.00321003    0.00555993    0.00000000
     atom    6 type  3   force =     0.00642006   -0.00000000    0.00000000
     atom    7 type  3   force =    -0.00321003   -0.00555993   -0.00000000
     atom    8 type  3   force =    -0.00642006    0.00000000   -0.00000000
     atom    9 type  3   force =     0.00321003    0.00555993    0.00000000
     atom   10 type  3   force =     0.00321003   -0.00555993   -0.00000000

     Total force =     0.015726     Total SCF correction =     0.000256


     Computing stress (Cartesian axis) and pressure

          total   stress  (Ry/bohr**3)                   (kbar)     P= -103.18
  -0.00099344   0.00000000  -0.00000000       -146.14      0.00     -0.00
   0.00000000  -0.00099344  -0.00000000          0.00   -146.14     -0.00
  -0.00000000  -0.00000000  -0.00011727         -0.00     -0.00    -17.25


     BFGS Geometry Optimization

     number of scf cycles    =   1
     number of bfgs steps    =   0

     enthalpy new            =    -367.3230364732 Ry

     new trust radius        =       0.1553092856 bohr
     new conv_thr            =       0.0000000100 Ry

     new unit-cell volume =    925.63209 a.u.^3 (   137.16452 Ang^3 )
     density =      2.42338 g/cm^3

CELL_PARAMETERS (alat= 12.00000000)
   0.437376086  -0.252519201   0.808339819
   0.000000000   0.505038402   0.808339819
  -0.437376086  -0.252519201   0.808339819

ATOMIC_POSITIONS (crystal)
Ca       0.500000000   0.500000000   0.500000000
Ca      -0.000000000  -0.000000000   0.000000000
C        0.250000000   0.250000000   0.250000000
C        0.750000000   0.750000000   0.750000000
O        0.480073669   1.019926331   0.250000000
O        1.019926331   0.250000000   0.480073669
O        0.250000000   0.480073669   1.019926331
O       -0.019926331   0.750000000   0.519926331
O        0.750000000   0.519926331  -0.019926331
O        0.519926331  -0.019926331   0.750000000



     Writing output data file CCO.save/
     NEW-OLD atomic charge density approx. for the potential
     extrapolated charge   60.49774, renormalised to   64.00000

     total cpu time spent up to now is     4811.4 secs

     Self-consistent Calculation

     iteration #  1     ecut=    90.00 Ry     beta= 0.70
     CG style diagonalization
     c_bands:  1 eigenvalues not converged
     c_bands:  4 eigenvalues not converged
     c_bands:  3 eigenvalues not converged
     c_bands:  2 eigenvalues not converged
     c_bands:  3 eigenvalues not converged
     c_bands:  2 eigenvalues not converged
     c_bands:  5 eigenvalues not converged
     c_bands:  4 eigenvalues not converged
     c_bands:  3 eigenvalues not converged
     c_bands:  2 eigenvalues not converged
     c_bands:  4 eigenvalues not converged
     c_bands:  3 eigenvalues not converged
     c_bands:  1 eigenvalues not converged
     c_bands:  4 eigenvalues not converged
     c_bands:  4 eigenvalues not converged
     c_bands:  5 eigenvalues not converged
     c_bands:  5 eigenvalues not converged
     c_bands:  4 eigenvalues not converged
     c_bands:  4 eigenvalues not converged
     c_bands:  5 eigenvalues not converged
     c_bands:  4 eigenvalues not converged
     c_bands:  4 eigenvalues not converged
     c_bands:  4 eigenvalues not converged
     c_bands:  4 eigenvalues not converged
     c_bands:  5 eigenvalues not converged
     c_bands:  4 eigenvalues not converged
     c_bands:  2 eigenvalues not converged
     c_bands:  2 eigenvalues not converged
     c_bands:  5 eigenvalues not converged
     c_bands:  5 eigenvalues not converged
     c_bands:  5 eigenvalues not converged
     c_bands:  2 eigenvalues not converged
     c_bands:  4 eigenvalues not converged
     c_bands:  3 eigenvalues not converged
     c_bands:  5 eigenvalues not converged
     c_bands:  5 eigenvalues not converged
     c_bands:  5 eigenvalues not converged
     c_bands:  5 eigenvalues not converged
     c_bands:  4 eigenvalues not converged
     c_bands:  5 eigenvalues not converged
     c_bands:  3 eigenvalues not converged
     c_bands:  5 eigenvalues not converged
     c_bands:  4 eigenvalues not converged
     c_bands:  2 eigenvalues not converged
     c_bands:  5 eigenvalues not converged
     c_bands:  5 eigenvalues not converged
     c_bands:  5 eigenvalues not converged
     c_bands:  5 eigenvalues not converged
     c_bands:  5 eigenvalues not converged
     c_bands:  4 eigenvalues not converged
     c_bands:  2 eigenvalues not converged
     c_bands:  1 eigenvalues not converged
     c_bands:  5 eigenvalues not converged
     c_bands:  1 eigenvalues not converged
     c_bands:  4 eigenvalues not converged
     ethr =  1.00E-06,  avg # of iterations = 14.5

     total cpu time spent up to now is     5054.6 secs

     total energy              =    -366.61152345 Ry
     Harris-Foulkes estimate   =    -374.19255703 Ry
     estimated scf accuracy    <       0.55266823 Ry

     iteration #  2     ecut=    90.00 Ry     beta= 0.70
     CG style diagonalization
     ethr =  8.64E-04,  avg # of iterations =  5.1

     total cpu time spent up to now is     5141.8 secs

     total energy              =    -367.26094701 Ry
     Harris-Foulkes estimate   =    -367.95313161 Ry
     estimated scf accuracy    <       1.99572642 Ry

     iteration #  3     ecut=    90.00 Ry     beta= 0.70
     CG style diagonalization
     ethr =  8.64E-04,  avg # of iterations =  3.9

     total cpu time spent up to now is     5208.5 secs

     total energy              =    -367.36478161 Ry
     Harris-Foulkes estimate   =    -367.41775445 Ry
     estimated scf accuracy    <       0.21587422 Ry

     iteration #  4     ecut=    90.00 Ry     beta= 0.70
     CG style diagonalization
     ethr =  3.37E-04,  avg # of iterations =  3.0

     total cpu time spent up to now is     5259.9 secs

     total energy              =    -367.34603763 Ry
     Harris-Foulkes estimate   =    -367.37318795 Ry
     estimated scf accuracy    <       0.09193885 Ry

     iteration #  5     ecut=    90.00 Ry     beta= 0.70
     CG style diagonalization
     ethr =  1.44E-04,  avg # of iterations =  3.3

     total cpu time spent up to now is     5316.1 secs

     total energy              =    -367.35226604 Ry
     Harris-Foulkes estimate   =    -367.35594555 Ry
     estimated scf accuracy    <       0.01265804 Ry

     iteration #  6     ecut=    90.00 Ry     beta= 0.70
     CG style diagonalization
     ethr =  1.98E-05,  avg # of iterations =  3.4

     total cpu time spent up to now is     5374.2 secs

     total energy              =    -367.35358656 Ry
     Harris-Foulkes estimate   =    -367.35367119 Ry
     estimated scf accuracy    <       0.00298155 Ry

     iteration #  7     ecut=    90.00 Ry     beta= 0.70
     CG style diagonalization
     ethr =  4.66E-06,  avg # of iterations =  3.2

     total cpu time spent up to now is     5428.5 secs

     total energy              =    -367.35308179 Ry
     Harris-Foulkes estimate   =    -367.35377186 Ry
     estimated scf accuracy    <       0.00282980 Ry

     iteration #  8     ecut=    90.00 Ry     beta= 0.70
     CG style diagonalization
     ethr =  4.42E-06,  avg # of iterations =  3.1

     total cpu time spent up to now is     5481.6 secs

     total energy              =    -367.35268418 Ry
     Harris-Foulkes estimate   =    -367.35322343 Ry
     estimated scf accuracy    <       0.00100292 Ry

     iteration #  9     ecut=    90.00 Ry     beta= 0.70
     CG style diagonalization
     ethr =  1.57E-06,  avg # of iterations =  3.8

     total cpu time spent up to now is     5546.9 secs

     total energy              =    -367.35297143 Ry
     Harris-Foulkes estimate   =    -367.35299479 Ry
     estimated scf accuracy    <       0.00010400 Ry

     iteration # 10     ecut=    90.00 Ry     beta= 0.70
     CG style diagonalization
     ethr =  1.62E-07,  avg # of iterations =  3.7

     total cpu time spent up to now is     5609.6 secs

     total energy              =    -367.35299087 Ry
     Harris-Foulkes estimate   =    -367.35299951 Ry
     estimated scf accuracy    <       0.00001690 Ry

     iteration # 11     ecut=    90.00 Ry     beta= 0.70
     CG style diagonalization
     ethr =  2.64E-08,  avg # of iterations =  3.7

     total cpu time spent up to now is     5672.0 secs

     total energy              =    -367.35299276 Ry
     Harris-Foulkes estimate   =    -367.35299346 Ry
     estimated scf accuracy    <       0.00000120 Ry

     iteration # 12     ecut=    90.00 Ry     beta= 0.70
     CG style diagonalization
     ethr =  1.87E-09,  avg # of iterations =  4.0

     total cpu time spent up to now is     5740.4 secs

     total energy              =    -367.35299317 Ry
     Harris-Foulkes estimate   =    -367.35299318 Ry
     estimated scf accuracy    <       0.00000007 Ry

     iteration # 13     ecut=    90.00 Ry     beta= 0.70
     CG style diagonalization
     ethr =  1.12E-10,  avg # of iterations =  3.9

     total cpu time spent up to now is     5806.4 secs

     total energy              =    -367.35299319 Ry
     Harris-Foulkes estimate   =    -367.35299319 Ry
     estimated scf accuracy    <       0.00000002 Ry

     iteration # 14     ecut=    90.00 Ry     beta= 0.70
     CG style diagonalization
     ethr =  3.01E-11,  avg # of iterations =  3.3

     total cpu time spent up to now is     5862.1 secs

     total energy              =    -367.35299319 Ry
     Harris-Foulkes estimate   =    -367.35299319 Ry
     estimated scf accuracy    <       0.00000001 Ry

     iteration # 15     ecut=    90.00 Ry     beta= 0.70
     CG style diagonalization
     ethr =  1.73E-11,  avg # of iterations =  3.1

     total cpu time spent up to now is     5915.2 secs

     End of self-consistent calculation

     Number of k-points >= 100: set verbosity='high' to print the bands.

     highest occupied level (ev):     4.0905

!    total energy              =    -367.35299318 Ry
     Harris-Foulkes estimate   =    -367.35299319 Ry
     estimated scf accuracy    <          3.3E-09 Ry

     The total energy is the sum of the following terms:

     one-electron contribution =    -161.24337949 Ry
     hartree contribution      =     108.27702804 Ry
     xc contribution           =     -75.13151481 Ry
     ewald contribution        =    -239.25512692 Ry

     convergence has been achieved in  15 iterations

     Forces acting on atoms (cartesian axes, Ry/au):

     atom    1 type  1   force =     0.00000000    0.00000000   -0.00000000
     atom    2 type  1   force =     0.00000000    0.00000000   -0.00000000
     atom    3 type  2   force =    -0.00000000    0.00000000   -0.00000000
     atom    4 type  2   force =     0.00000000   -0.00000000   -0.00000000
     atom    5 type  3   force =     0.03899588   -0.06754284   -0.00000000
     atom    6 type  3   force =    -0.07799176    0.00000000    0.00000000
     atom    7 type  3   force =     0.03899588    0.06754284    0.00000000
     atom    8 type  3   force =     0.07799176   -0.00000000   -0.00000000
     atom    9 type  3   force =    -0.03899588   -0.06754284   -0.00000000
     atom   10 type  3   force =    -0.03899588    0.06754284    0.00000000

     Total force =     0.191040     Total SCF correction =     0.000099


     Computing stress (Cartesian axis) and pressure

          total   stress  (Ry/bohr**3)                   (kbar)     P=  -25.58
  -0.00023293   0.00000000  -0.00000000        -34.26      0.00     -0.00
   0.00000000  -0.00023293  -0.00000000          0.00    -34.26     -0.00
   0.00000000  -0.00000000  -0.00005592          0.00     -0.00     -8.23


     number of scf cycles    =   2
     number of bfgs steps    =   1

     enthalpy old            =    -367.3230364732 Ry
     enthalpy new            =    -367.3523639523 Ry

     CASE: enthalpy_new < enthalpy_old

     new trust radius        =       0.2077058816 bohr
     new conv_thr            =       0.0000000078 Ry

     new unit-cell volume =    859.39743 a.u.^3 (   127.34956 Ang^3 )
     density =      2.61016 g/cm^3

CELL_PARAMETERS (alat= 12.00000000)
   0.422446264  -0.243899464   0.804482759
   0.000000000   0.487798928   0.804482759
  -0.422446264  -0.243899464   0.804482759

ATOMIC_POSITIONS (crystal)
Ca       0.500000000   0.500000000   0.500000000
Ca       0.000000000   0.000000000  -0.000000000
C        0.250000000   0.250000000   0.250000000
C        0.750000000   0.750000000   0.750000000
O        0.487939834   1.012060166   0.250000000
O        1.012060166   0.250000000   0.487939834
O        0.250000000   0.487939834   1.012060166
O       -0.012060166   0.750000000   0.512060166
O        0.750000000   0.512060166  -0.012060166
O        0.512060166  -0.012060166   0.750000000



     Writing output data file CCO.save/
     NEW-OLD atomic charge density approx. for the potential
     extrapolated charge   59.06830, renormalised to   64.00000

     total cpu time spent up to now is     5924.5 secs

     Self-consistent Calculation

     iteration #  1     ecut=    90.00 Ry     beta= 0.70
     CG style diagonalization
     c_bands:  2 eigenvalues not converged
     c_bands:  4 eigenvalues not converged
     c_bands:  4 eigenvalues not converged
     c_bands:  4 eigenvalues not converged
     c_bands:  4 eigenvalues not converged
     c_bands:  4 eigenvalues not converged
     c_bands:  4 eigenvalues not converged
     c_bands:  5 eigenvalues not converged
     c_bands:  4 eigenvalues not converged
     c_bands:  5 eigenvalues not converged
     c_bands:  5 eigenvalues not converged
     c_bands:  5 eigenvalues not converged
     c_bands:  4 eigenvalues not converged
     c_bands:  5 eigenvalues not converged
     c_bands:  5 eigenvalues not converged
     c_bands:  4 eigenvalues not converged
     c_bands:  5 eigenvalues not converged
     c_bands:  2 eigenvalues not converged
     c_bands:  5 eigenvalues not converged
     c_bands:  2 eigenvalues not converged
     c_bands:  5 eigenvalues not converged
     ethr =  1.00E-06,  avg # of iterations = 16.1

     total cpu time spent up to now is     6191.6 secs

     total energy              =    -366.23109854 Ry
     Harris-Foulkes estimate   =    -376.22750802 Ry
     estimated scf accuracy    <       0.78466073 Ry

     iteration #  2     ecut=    90.00 Ry     beta= 0.70
     CG style diagonalization
     ethr =  1.23E-03,  avg # of iterations =  5.2

     total cpu time spent up to now is     6279.1 secs

     total energy              =    -367.30299336 Ry
     Harris-Foulkes estimate   =    -368.31152048 Ry
     estimated scf accuracy    <       2.96035119 Ry

     iteration #  3     ecut=    90.00 Ry     beta= 0.70
     CG style diagonalization
     ethr =  1.23E-03,  avg # of iterations =  3.8

     total cpu time spent up to now is     6344.7 secs

     total energy              =    -367.42172584 Ry
     Harris-Foulkes estimate   =    -367.51337091 Ry
     estimated scf accuracy    <       0.36857102 Ry

     iteration #  4     ecut=    90.00 Ry     beta= 0.70
     CG style diagonalization
     ethr =  5.76E-04,  avg # of iterations =  3.0

     total cpu time spent up to now is     6395.8 secs

     total energy              =    -367.38593505 Ry
     Harris-Foulkes estimate   =    -367.43424814 Ry
     estimated scf accuracy    <       0.16617969 Ry

     iteration #  5     ecut=    90.00 Ry     beta= 0.70
     CG style diagonalization
     ethr =  2.60E-04,  avg # of iterations =  3.3

     total cpu time spent up to now is     6451.9 secs

     total energy              =    -367.39309041 Ry
     Harris-Foulkes estimate   =    -367.40133882 Ry
     estimated scf accuracy    <       0.02642702 Ry

     iteration #  6     ecut=    90.00 Ry     beta= 0.70
     CG style diagonalization
     ethr =  4.13E-05,  avg # of iterations =  3.3

     total cpu time spent up to now is     6508.1 secs

     total energy              =    -367.39490568 Ry
     Harris-Foulkes estimate   =    -367.39562708 Ry
     estimated scf accuracy    <       0.00636752 Ry

     iteration #  7     ecut=    90.00 Ry     beta= 0.70
     CG style diagonalization
     ethr =  9.95E-06,  avg # of iterations =  3.3

     total cpu time spent up to now is     6563.5 secs

     total energy              =    -367.39432258 Ry
     Harris-Foulkes estimate   =    -367.39538552 Ry
     estimated scf accuracy    <       0.00435469 Ry

     iteration #  8     ecut=    90.00 Ry     beta= 0.70
     CG style diagonalization
     ethr =  6.80E-06,  avg # of iterations =  3.3

     total cpu time spent up to now is     6619.2 secs

     total energy              =    -367.39411708 Ry
     Harris-Foulkes estimate   =    -367.39467951 Ry
     estimated scf accuracy    <       0.00103900 Ry

     iteration #  9     ecut=    90.00 Ry     beta= 0.70
     CG style diagonalization
     ethr =  1.62E-06,  avg # of iterations =  3.8

     total cpu time spent up to now is     6684.3 secs

     total energy              =    -367.39441747 Ry
     Harris-Foulkes estimate   =    -367.39441689 Ry
     estimated scf accuracy    <       0.00007205 Ry

     iteration # 10     ecut=    90.00 Ry     beta= 0.70
     CG style diagonalization
     ethr =  1.13E-07,  avg # of iterations =  3.8

     total cpu time spent up to now is     6749.2 secs

     total energy              =    -367.39441458 Ry
     Harris-Foulkes estimate   =    -367.39443971 Ry
     estimated scf accuracy    <       0.00004074 Ry

     iteration # 11     ecut=    90.00 Ry     beta= 0.70
     CG style diagonalization
     ethr =  6.37E-08,  avg # of iterations =  3.8

     total cpu time spent up to now is     6814.2 secs

     total energy              =    -367.39442331 Ry
     Harris-Foulkes estimate   =    -367.39442564 Ry
     estimated scf accuracy    <       0.00000417 Ry

     iteration # 12     ecut=    90.00 Ry     beta= 0.70
     CG style diagonalization
     ethr =  6.51E-09,  avg # of iterations =  4.0

     total cpu time spent up to now is     6882.4 secs

     total energy              =    -367.39442504 Ry
     Harris-Foulkes estimate   =    -367.39442539 Ry
     estimated scf accuracy    <       0.00000096 Ry

     iteration # 13     ecut=    90.00 Ry     beta= 0.70
     CG style diagonalization
     ethr =  1.51E-09,  avg # of iterations =  3.7

     total cpu time spent up to now is     6945.0 secs

     total energy              =    -367.39442509 Ry
     Harris-Foulkes estimate   =    -367.39442517 Ry
     estimated scf accuracy    <       0.00000019 Ry

     iteration # 14     ecut=    90.00 Ry     beta= 0.70
     CG style diagonalization
     ethr =  2.97E-10,  avg # of iterations =  4.0

     total cpu time spent up to now is     7012.9 secs

     total energy              =    -367.39442512 Ry
     Harris-Foulkes estimate   =    -367.39442513 Ry
     estimated scf accuracy    <       0.00000007 Ry

     iteration # 15     ecut=    90.00 Ry     beta= 0.70
     CG style diagonalization
     ethr =  1.03E-10,  avg # of iterations =  3.0

     total cpu time spent up to now is     7064.3 secs

     total energy              =    -367.39442512 Ry
     Harris-Foulkes estimate   =    -367.39442513 Ry
     estimated scf accuracy    <       0.00000004 Ry

     iteration # 16     ecut=    90.00 Ry     beta= 0.70
     CG style diagonalization
     ethr =  6.52E-11,  avg # of iterations =  3.1

     total cpu time spent up to now is     7116.6 secs

     total energy              =    -367.39442511 Ry
     Harris-Foulkes estimate   =    -367.39442512 Ry
     estimated scf accuracy    <       0.00000002 Ry

     iteration # 17     ecut=    90.00 Ry     beta= 0.70
     CG style diagonalization
     ethr =  2.50E-11,  avg # of iterations =  3.6

     total cpu time spent up to now is     7177.7 secs

     End of self-consistent calculation

     Number of k-points >= 100: set verbosity='high' to print the bands.

     highest occupied level (ev):     4.6193

!    total energy              =    -367.39442511 Ry
     Harris-Foulkes estimate   =    -367.39442511 Ry
     estimated scf accuracy    <          1.1E-10 Ry

     The total energy is the sum of the following terms:

     one-electron contribution =    -147.69085656 Ry
     hartree contribution      =     103.19791920 Ry
     xc contribution           =     -75.32017621 Ry
     ewald contribution        =    -247.58131155 Ry

     convergence has been achieved in  17 iterations

     Forces acting on atoms (cartesian axes, Ry/au):

     atom    1 type  1   force =    -0.00000000    0.00000000   -0.00000000
     atom    2 type  1   force =    -0.00000000    0.00000000   -0.00000000
     atom    3 type  2   force =    -0.00000000    0.00000000    0.00000000
     atom    4 type  2   force =     0.00000000    0.00000000    0.00000000
     atom    5 type  3   force =     0.03424572   -0.05931533   -0.00000000
     atom    6 type  3   force =    -0.06849144    0.00000000    0.00000000
     atom    7 type  3   force =     0.03424572    0.05931533    0.00000000
     atom    8 type  3   force =     0.06849144   -0.00000000   -0.00000000
     atom    9 type  3   force =    -0.03424572   -0.05931533   -0.00000000
     atom   10 type  3   force =    -0.03424572    0.05931533    0.00000000

     Total force =     0.167769     Total SCF correction =     0.000010


     Computing stress (Cartesian axis) and pressure

          total   stress  (Ry/bohr**3)                   (kbar)     P=   13.54
   0.00007041  -0.00000000   0.00000000         10.36     -0.00      0.00
  -0.00000000   0.00007041   0.00000000         -0.00     10.36      0.00
  -0.00000000   0.00000000   0.00013534         -0.00      0.00     19.91


     number of scf cycles    =   3
     number of bfgs steps    =   2

     enthalpy old            =    -367.3523639523 Ry
     enthalpy new            =    -367.3938409083 Ry

     CASE: enthalpy_new < enthalpy_old

     new trust radius        =       0.2140931579 bohr
     new conv_thr            =       0.0000000068 Ry

     new unit-cell volume =    799.19527 a.u.^3 (   118.42852 Ang^3 )
     density =      2.80678 g/cm^3

CELL_PARAMETERS (alat= 12.00000000)
   0.407020480  -0.234993384   0.805909028
   0.000000000   0.469986767   0.805909028
  -0.407020480  -0.234993384   0.805909028

ATOMIC_POSITIONS (crystal)
Ca       0.500000000   0.500000000   0.500000000
Ca      -0.000000000  -0.000000000   0.000000000
C        0.250000000   0.250000000   0.250000000
C        0.750000000   0.750000000   0.750000000
O        0.499544983   1.000455017   0.250000000
O        1.000455017   0.250000000   0.499544983
O        0.250000000   0.499544983   1.000455017
O       -0.000455017   0.750000000   0.500455017
O        0.750000000   0.500455017  -0.000455017
O        0.500455017  -0.000455017   0.750000000



     Writing output data file CCO.save/
     NEW-OLD atomic charge density approx. for the potential
     extrapolated charge   59.17981, renormalised to   64.00000

     total cpu time spent up to now is     7186.7 secs

     Self-consistent Calculation

     iteration #  1     ecut=    90.00 Ry     beta= 0.70
     CG style diagonalization
     c_bands:  2 eigenvalues not converged
     c_bands:  3 eigenvalues not converged
     c_bands:  4 eigenvalues not converged
     c_bands:  4 eigenvalues not converged
     c_bands:  5 eigenvalues not converged
     c_bands:  1 eigenvalues not converged
     c_bands:  4 eigenvalues not converged
     c_bands:  5 eigenvalues not converged
     c_bands:  4 eigenvalues not converged
     c_bands:  5 eigenvalues not converged
     c_bands:  5 eigenvalues not converged
     c_bands:  5 eigenvalues not converged
     c_bands:  2 eigenvalues not converged
     c_bands:  4 eigenvalues not converged
     c_bands:  3 eigenvalues not converged
     c_bands:  4 eigenvalues not converged
     c_bands:  2 eigenvalues not converged
     c_bands:  4 eigenvalues not converged
     c_bands:  5 eigenvalues not converged
     c_bands:  3 eigenvalues not converged
     c_bands:  2 eigenvalues not converged
     ethr =  1.00E-06,  avg # of iterations = 16.2

     total cpu time spent up to now is     7455.1 secs

     total energy              =    -366.43441822 Ry
     Harris-Foulkes estimate   =    -375.15741685 Ry
     estimated scf accuracy    <       0.63230405 Ry

     iteration #  2     ecut=    90.00 Ry     beta= 0.70
     CG style diagonalization
     ethr =  9.88E-04,  avg # of iterations =  5.2

     total cpu time spent up to now is     7543.0 secs

     total energy              =    -367.37281265 Ry
     Harris-Foulkes estimate   =    -368.15555505 Ry
     estimated scf accuracy    <       2.29355203 Ry

     iteration #  3     ecut=    90.00 Ry     beta= 0.70
     CG style diagonalization
     ethr =  9.88E-04,  avg # of iterations =  3.8

     total cpu time spent up to now is     7606.9 secs

     total energy              =    -367.44270383 Ry
     Harris-Foulkes estimate   =    -367.52205468 Ry
     estimated scf accuracy    <       0.31016920 Ry

     iteration #  4     ecut=    90.00 Ry     beta= 0.70
     CG style diagonalization
     ethr =  4.85E-04,  avg # of iterations =  3.0

     total cpu time spent up to now is     7658.1 secs

     total energy              =    -367.39697192 Ry
     Harris-Foulkes estimate   =    -367.45225596 Ry
     estimated scf accuracy    <       0.13832791 Ry

     iteration #  5     ecut=    90.00 Ry     beta= 0.70
     CG style diagonalization
     ethr =  2.16E-04,  avg # of iterations =  3.6

     total cpu time spent up to now is     7718.8 secs

     total energy              =    -367.41513077 Ry
     Harris-Foulkes estimate   =    -367.41634277 Ry
     estimated scf accuracy    <       0.00392776 Ry

     iteration #  6     ecut=    90.00 Ry     beta= 0.70
     CG style diagonalization
     ethr =  6.14E-06,  avg # of iterations =  3.9

     total cpu time spent up to now is     7785.4 secs

     total energy              =    -367.41608825 Ry
     Harris-Foulkes estimate   =    -367.41621036 Ry
     estimated scf accuracy    <       0.00313050 Ry

     iteration #  7     ecut=    90.00 Ry     beta= 0.70
     CG style diagonalization
     ethr =  4.89E-06,  avg # of iterations =  3.0

     total cpu time spent up to now is     7836.7 secs

     total energy              =    -367.41527678 Ry
     Harris-Foulkes estimate   =    -367.41616666 Ry
     estimated scf accuracy    <       0.00254154 Ry

     iteration #  8     ecut=    90.00 Ry     beta= 0.70
     CG style diagonalization
     ethr =  3.97E-06,  avg # of iterations =  3.3

     total cpu time spent up to now is     7892.8 secs

     total energy              =    -367.41531778 Ry
     Harris-Foulkes estimate   =    -367.41549275 Ry
     estimated scf accuracy    <       0.00033808 Ry

     iteration #  9     ecut=    90.00 Ry     beta= 0.70
     CG style diagonalization
     ethr =  5.28E-07,  avg # of iterations =  3.8

     total cpu time spent up to now is     7957.8 secs

     total energy              =    -367.41542772 Ry
     Harris-Foulkes estimate   =    -367.41543181 Ry
     estimated scf accuracy    <       0.00002222 Ry

     iteration # 10     ecut=    90.00 Ry     beta= 0.70
     CG style diagonalization
     ethr =  3.47E-08,  avg # of iterations =  3.7

     total cpu time spent up to now is     8021.1 secs

     total energy              =    -367.41543133 Ry
     Harris-Foulkes estimate   =    -367.41543368 Ry
     estimated scf accuracy    <       0.00000470 Ry

     iteration # 11     ecut=    90.00 Ry     beta= 0.70
     CG style diagonalization
     ethr =  7.35E-09,  avg # of iterations =  3.9

     total cpu time spent up to now is     8086.7 secs

     total energy              =    -367.41543231 Ry
     Harris-Foulkes estimate   =    -367.41543245 Ry
     estimated scf accuracy    <       0.00000027 Ry

     iteration # 12     ecut=    90.00 Ry     beta= 0.70
     CG style diagonalization
     ethr =  4.27E-10,  avg # of iterations =  4.4

     total cpu time spent up to now is     8161.0 secs

     total energy              =    -367.41543244 Ry
     Harris-Foulkes estimate   =    -367.41543252 Ry
     estimated scf accuracy    <       0.00000015 Ry

     iteration # 13     ecut=    90.00 Ry     beta= 0.70
     CG style diagonalization
     ethr =  2.33E-10,  avg # of iterations =  3.8

     total cpu time spent up to now is     8224.8 secs

     total energy              =    -367.41543247 Ry
     Harris-Foulkes estimate   =    -367.41543247 Ry
     estimated scf accuracy    <       0.00000001 Ry

     iteration # 14     ecut=    90.00 Ry     beta= 0.70
     CG style diagonalization
     ethr =  1.71E-11,  avg # of iterations =  3.8

     total cpu time spent up to now is     8289.9 secs

     End of self-consistent calculation

     Number of k-points >= 100: set verbosity='high' to print the bands.

     highest occupied level (ev):     5.1474

!    total energy              =    -367.41543247 Ry
     Harris-Foulkes estimate   =    -367.41543247 Ry
     estimated scf accuracy    <          1.5E-09 Ry

     The total energy is the sum of the following terms:

     one-electron contribution =    -132.73212224 Ry
     hartree contribution      =      97.53350230 Ry
     xc contribution           =     -75.42720158 Ry
     ewald contribution        =    -256.78961095 Ry

     convergence has been achieved in  14 iterations

     Forces acting on atoms (cartesian axes, Ry/au):

     atom    1 type  1   force =     0.00000000    0.00000000    0.00000000
     atom    2 type  1   force =     0.00000000    0.00000000    0.00000000
     atom    3 type  2   force =    -0.00000000   -0.00000000   -0.00000000
     atom    4 type  2   force =     0.00000000   -0.00000000   -0.00000000
     atom    5 type  3   force =     0.00607700   -0.01052567   -0.00000000
     atom    6 type  3   force =    -0.01215400   -0.00000000    0.00000000
     atom    7 type  3   force =     0.00607700    0.01052567    0.00000000
     atom    8 type  3   force =     0.01215400    0.00000000   -0.00000000
     atom    9 type  3   force =    -0.00607700   -0.01052567   -0.00000000
     atom   10 type  3   force =    -0.00607700    0.01052567    0.00000000

     Total force =     0.029771     Total SCF correction =     0.000100


     Computing stress (Cartesian axis) and pressure

          total   stress  (Ry/bohr**3)                   (kbar)     P=   41.85
   0.00019683  -0.00000000   0.00000000         28.95     -0.00      0.00
  -0.00000000   0.00019683   0.00000000         -0.00     28.95      0.00
   0.00000000   0.00000000   0.00045977          0.00      0.00     67.63


     number of scf cycles    =   4
     number of bfgs steps    =   3

     enthalpy old            =    -367.3938409083 Ry
     enthalpy new            =    -367.4148891881 Ry

     CASE: enthalpy_new < enthalpy_old

     new trust radius        =       0.0502455359 bohr
     new conv_thr            =       0.0000000012 Ry

     new unit-cell volume =    814.77219 a.u.^3 (   120.73678 Ang^3 )
     density =      2.75312 g/cm^3

CELL_PARAMETERS (alat= 12.00000000)
   0.409153910  -0.236225120   0.813070908
   0.000000000   0.472450240   0.813070908
  -0.409153910  -0.236225120   0.813070908

ATOMIC_POSITIONS (crystal)
Ca       0.500000000   0.500000000   0.500000000
Ca      -0.000000000  -0.000000000   0.000000000
C        0.250000000   0.250000000   0.250000000
C        0.750000000   0.750000000   0.750000000
O        0.499632583   1.000367417   0.250000000
O        1.000367417   0.250000000   0.499632583
O        0.250000000   0.499632583   1.000367417
O       -0.000367417   0.750000000   0.500367417
O        0.750000000   0.500367417  -0.000367417
O        0.500367417  -0.000367417   0.750000000



     Writing output data file CCO.save/
     NEW-OLD atomic charge density approx. for the potential
     extrapolated charge   65.22335, renormalised to   64.00000

     total cpu time spent up to now is     8299.0 secs

     Self-consistent Calculation

     iteration #  1     ecut=    90.00 Ry     beta= 0.70
     CG style diagonalization
     c_bands:  1 eigenvalues not converged
     c_bands:  3 eigenvalues not converged
     c_bands:  3 eigenvalues not converged
     c_bands:  2 eigenvalues not converged
     c_bands:  2 eigenvalues not converged
     c_bands:  5 eigenvalues not converged
     c_bands:  3 eigenvalues not converged
     c_bands:  2 eigenvalues not converged
     c_bands:  2 eigenvalues not converged
     c_bands:  2 eigenvalues not converged
     c_bands:  3 eigenvalues not converged
     c_bands:  3 eigenvalues not converged
     c_bands:  5 eigenvalues not converged
     c_bands:  4 eigenvalues not converged
     c_bands:  2 eigenvalues not converged
     c_bands:  1 eigenvalues not converged
     c_bands:  2 eigenvalues not converged
     c_bands:  2 eigenvalues not converged
     c_bands:  4 eigenvalues not converged
     c_bands:  2 eigenvalues not converged
     c_bands:  2 eigenvalues not converged
     c_bands:  5 eigenvalues not converged
     c_bands:  2 eigenvalues not converged
     c_bands:  1 eigenvalues not converged
     c_bands:  2 eigenvalues not converged
     c_bands:  2 eigenvalues not converged
     c_bands:  3 eigenvalues not converged
     c_bands:  2 eigenvalues not converged
     c_bands:  2 eigenvalues not converged
     c_bands:  1 eigenvalues not converged
     c_bands:  2 eigenvalues not converged
     c_bands:  4 eigenvalues not converged
     c_bands:  3 eigenvalues not converged
     c_bands:  1 eigenvalues not converged
     c_bands:  5 eigenvalues not converged
     c_bands:  5 eigenvalues not converged
     c_bands:  2 eigenvalues not converged
     c_bands:  3 eigenvalues not converged
     c_bands:  4 eigenvalues not converged
     c_bands:  4 eigenvalues not converged
     c_bands:  3 eigenvalues not converged
     c_bands:  3 eigenvalues not converged
     c_bands:  5 eigenvalues not converged
     c_bands:  4 eigenvalues not converged
     c_bands:  5 eigenvalues not converged
     c_bands:  1 eigenvalues not converged
     c_bands:  5 eigenvalues not converged
     c_bands:  4 eigenvalues not converged
     c_bands:  2 eigenvalues not converged
     c_bands:  2 eigenvalues not converged
     c_bands:  1 eigenvalues not converged
     c_bands:  3 eigenvalues not converged
     c_bands:  4 eigenvalues not converged
     c_bands:  3 eigenvalues not converged
     c_bands:  2 eigenvalues not converged
     c_bands:  2 eigenvalues not converged
     c_bands:  2 eigenvalues not converged
     c_bands:  4 eigenvalues not converged
     c_bands:  3 eigenvalues not converged
     c_bands:  3 eigenvalues not converged
     c_bands:  3 eigenvalues not converged
     c_bands:  4 eigenvalues not converged
     c_bands:  2 eigenvalues not converged
     c_bands:  1 eigenvalues not converged
     c_bands:  3 eigenvalues not converged
     c_bands:  2 eigenvalues not converged
     c_bands:  1 eigenvalues not converged
     c_bands:  4 eigenvalues not converged
     c_bands:  3 eigenvalues not converged
     c_bands:  4 eigenvalues not converged
     c_bands:  4 eigenvalues not converged
     c_bands:  2 eigenvalues not converged
     c_bands:  5 eigenvalues not converged
     c_bands:  3 eigenvalues not converged
     c_bands:  4 eigenvalues not converged
     c_bands:  3 eigenvalues not converged
     c_bands:  4 eigenvalues not converged
     c_bands:  2 eigenvalues not converged
     c_bands:  2 eigenvalues not converged
     c_bands:  5 eigenvalues not converged
     c_bands:  5 eigenvalues not converged
     c_bands:  3 eigenvalues not converged
     c_bands:  3 eigenvalues not converged
     c_bands:  2 eigenvalues not converged
     c_bands:  3 eigenvalues not converged
     c_bands:  2 eigenvalues not converged
     c_bands:  3 eigenvalues not converged
     c_bands:  3 eigenvalues not converged
     c_bands:  3 eigenvalues not converged
     c_bands:  5 eigenvalues not converged
     c_bands:  5 eigenvalues not converged
     c_bands:  4 eigenvalues not converged
     c_bands:  2 eigenvalues not converged
     c_bands:  4 eigenvalues not converged
     c_bands:  4 eigenvalues not converged
     c_bands:  1 eigenvalues not converged
     c_bands:  3 eigenvalues not converged
     c_bands:  4 eigenvalues not converged
     ethr =  1.00E-06,  avg # of iterations = 10.4

     total cpu time spent up to now is     8475.8 secs

     total energy              =    -367.33659398 Ry
     Harris-Foulkes estimate   =    -365.40570521 Ry
     estimated scf accuracy    <       0.05530847 Ry

     iteration #  2     ecut=    90.00 Ry     beta= 0.70
     CG style diagonalization
     ethr =  8.64E-05,  avg # of iterations =  5.0

     total cpu time spent up to now is     8560.4 secs

     total energy              =    -367.41480479 Ry
     Harris-Foulkes estimate   =    -367.47561602 Ry
     estimated scf accuracy    <       0.17804170 Ry

     iteration #  3     ecut=    90.00 Ry     beta= 0.70
     CG style diagonalization
     ethr =  8.64E-05,  avg # of iterations =  3.8

     total cpu time spent up to now is     8624.5 secs

     total energy              =    -367.42172057 Ry
     Harris-Foulkes estimate   =    -367.42702054 Ry
     estimated scf accuracy    <       0.02382649 Ry

     iteration #  4     ecut=    90.00 Ry     beta= 0.70
     CG style diagonalization
     ethr =  3.72E-05,  avg # of iterations =  3.0

     total cpu time spent up to now is     8675.4 secs

     total energy              =    -367.41993489 Ry
     Harris-Foulkes estimate   =    -367.42238234 Ry
     estimated scf accuracy    <       0.01144117 Ry

     iteration #  5     ecut=    90.00 Ry     beta= 0.70
     CG style diagonalization
     ethr =  1.79E-05,  avg # of iterations =  3.0

     total cpu time spent up to now is     8726.6 secs

     total energy              =    -367.41833005 Ry
     Harris-Foulkes estimate   =    -367.42030964 Ry
     estimated scf accuracy    <       0.00486624 Ry

     iteration #  6     ecut=    90.00 Ry     beta= 0.70
[...]

     iteration # 11     ecut=    90.00 Ry     beta= 0.70
     CG style diagonalization
     ethr =  1.51E-12,  avg # of iterations =  3.6

     total cpu time spent up to now is    14484.0 secs

     total energy              =    -367.43634910 Ry
     Harris-Foulkes estimate   =    -367.43634910 Ry
     estimated scf accuracy    <          1.5E-10 Ry

     iteration # 12     ecut=    90.00 Ry     beta= 0.70
     CG style diagonalization
     ethr =  2.32E-13,  avg # of iterations =  3.8

     total cpu time spent up to now is    14547.7 secs

     End of self-consistent calculation

     Number of k-points >= 100: set verbosity='high' to print the bands.

     highest occupied level (ev):     4.4776

!    total energy              =    -367.43634910 Ry
     Harris-Foulkes estimate   =    -367.43634910 Ry
     estimated scf accuracy    <          4.0E-11 Ry

     The total energy is the sum of the following terms:

     one-electron contribution =    -148.34913260 Ry
     hartree contribution      =     103.53225780 Ry
     xc contribution           =     -75.26757581 Ry
     ewald contribution        =    -247.35189848 Ry

     convergence has been achieved in  12 iterations

     Forces acting on atoms (cartesian axes, Ry/au):

     atom    1 type  1   force =    -0.00000000   -0.00000000   -0.00000000
     atom    2 type  1   force =    -0.00000000   -0.00000000    0.00000000
     atom    3 type  2   force =    -0.00000000    0.00000000    0.00000000
     atom    4 type  2   force =    -0.00000000    0.00000000    0.00000000
     atom    5 type  3   force =     0.00002223   -0.00003851   -0.00000000
     atom    6 type  3   force =    -0.00004447   -0.00000000    0.00000000
     atom    7 type  3   force =     0.00002223    0.00003851    0.00000000
     atom    8 type  3   force =     0.00004447    0.00000000   -0.00000000
     atom    9 type  3   force =    -0.00002223   -0.00003851   -0.00000000
     atom   10 type  3   force =    -0.00002223    0.00003851    0.00000000

     Total force =     0.000109     Total SCF correction =     0.000004


     Computing stress (Cartesian axis) and pressure

          total   stress  (Ry/bohr**3)                   (kbar)     P=    0.11
   0.00000085   0.00000000  -0.00000000          0.12      0.00     -0.00
   0.00000000   0.00000085   0.00000000          0.00      0.12      0.00
  -0.00000000   0.00000000   0.00000045         -0.00      0.00      0.07


     bfgs converged in  11 scf cycles and  10 bfgs steps
     (criteria: energy <  1.0E-04 Ry, force <  1.0E-03Ry/Bohr, cell <  5.0E-01kbar)

     End of BFGS Geometry Optimization

     Final enthalpy =    -367.4357675936 Ry
Begin final coordinates
     new unit-cell volume =    855.42675 a.u.^3 (   126.76117 Ang^3 )
     density =      2.62227 g/cm^3

CELL_PARAMETERS (alat= 12.00000000)
   0.397351394  -0.229410934   0.905105048
   0.000000000   0.458821868   0.905105048
  -0.397351394  -0.229410934   0.905105048

ATOMIC_POSITIONS (crystal)
Ca       0.500000000   0.500000000   0.500000000
Ca       0.000000000  -0.000000000  -0.000000000
C        0.250000000   0.250000000   0.250000000
C        0.750000000   0.750000000   0.750000000
O        0.507003431   0.992996569   0.250000000
O        0.992996569   0.250000000   0.507003431
O        0.250000000   0.507003431   0.992996569
O        0.007003431   0.750000000   0.492996569
O        0.750000000   0.492996569   0.007003431
O        0.492996569   0.007003431   0.750000000
End final coordinates



     Writing output data file CCO.save/

     A final scf calculation at the relaxed structure.
     The G-vectors are recalculated for the final unit cell
     Results may differ from those at the preceding step.
 
     Parallelization info
     --------------------
     sticks:   dense  smooth     PW     G-vecs:    dense   smooth      PW
     Min         112      44     12                 5734     1446     221
     Max         113      45     13                 5738     1453     226
     Sum        7655    3051    879               390061    98627   15269
 


     bravais-lattice index     =            5
     lattice parameter (alat)  =      12.0000  a.u.
     unit-cell volume          =     855.4268 (a.u.)^3
     number of atoms/cell      =           10
     number of atomic types    =            3
     number of electrons       =        64.00
     number of Kohn-Sham states=           32
     kinetic-energy cutoff     =      90.0000  Ry
     charge density cutoff     =     900.0000  Ry
     convergence threshold     =      1.0E-10
     mixing beta               =       0.7000
     number of iterations used =            8  plain     mixing
     Exchange-correlation      = SLA  PW   PBE  PBE ( 1  4  3  4 0 0)

     celldm(1)=  12.000000  celldm(2)=   0.000000  celldm(3)=   0.000000
     celldm(4)=   0.500000  celldm(5)=   0.000000  celldm(6)=   0.000000

     crystal axes: (cart. coord. in units of alat)
               a(1) = (   0.397351  -0.229411   0.905105 )  
               a(2) = (   0.000000   0.458822   0.905105 )  
               a(3) = (  -0.397351  -0.229411   0.905105 )  

     reciprocal axes: (cart. coord. in units 2 pi/alat)
               b(1) = (  1.258332 -0.726498  0.368281 )  
               b(2) = ( -0.000000  1.452997  0.368281 )  
               b(3) = ( -1.258332 -0.726498  0.368281 )  


     PseudoPot. # 1 for Ca read from file:
     ./Ca_PBE.UPF
     MD5 check sum: 403a4c14b9e4d4dfdc3024c9a3812218
     Pseudo is Ultrasoft + core correction, Zval = 10.0
     Generated by new atomic code, or converted to UPF format
     Using radial grid of  845 points,  6 beta functions with: 
                l(1) =   0
                l(2) =   0
                l(3) =   1
                l(4) =   1
                l(5) =   2
                l(6) =   2
     Q(r) pseudized with  8 coefficients,  rinner =    1.500   1.500   1.500
                                                       1.500   1.500

     PseudoPot. # 2 for C  read from file:
     ./C_PBE.UPF
     MD5 check sum: d1aef80898a10debaa0f26306b886e00
     Pseudo is Ultrasoft + core correction, Zval =  4.0
     Generated by new atomic code, or converted to UPF format
     Using radial grid of  721 points,  4 beta functions with: 
                l(1) =   0
                l(2) =   0
                l(3) =   1
                l(4) =   1
     Q(r) pseudized with  8 coefficients,  rinner =    1.100   1.100   1.100


     PseudoPot. # 3 for O  read from file:
     ./O_PBE.UPF
     MD5 check sum: 734c27235a0248c51dbae37a1fbe46ec
     Pseudo is Ultrasoft + core correction, Zval =  6.0
     Generated by new atomic code, or converted to UPF format
     Using radial grid of  737 points,  5 beta functions with: 
                l(1) =   0
                l(2) =   0
                l(3) =   1
                l(4) =   1
                l(5) =   2
     Q(r) pseudized with  8 coefficients,  rinner =    0.900   0.900   0.900
                                                       0.900   0.900

     atomic species   valence    mass     pseudopotential
        Ca            10.00    40.07800     Ca( 1.00)
        C              4.00    12.01070     C ( 1.00)
        O              6.00    16.00000     O ( 1.00)

     12 Sym. Ops., with inversion, found ( 6 have fractional translation)



   Cartesian axes

     site n.     atom                  positions (alat units)
         1           Ca  tau(   1) = (  -0.0000000  -0.0000000   1.3576576  )
         2           Ca  tau(   2) = (   0.0000000  -0.0000000  -0.0000000  )
         3           C   tau(   3) = (  -0.0000000  -0.0000000   0.6788288  )
         4           C   tau(   4) = (   0.0000000  -0.0000000   2.0364864  )
         5           O   tau(   5) = (   0.1021207   0.2819437   1.5839338  )
         6           O   tau(   6) = (   0.1931101  -0.2294109   1.5839338  )
         7           O   tau(   7) = (  -0.2952307  -0.0525327   1.5839338  )
         8           O   tau(   8) = (  -0.1931101   0.2294109   1.1313813  )
         9           O   tau(   9) = (   0.2952307   0.0525327   1.1313813  )
        10           O   tau(  10) = (  -0.1021207  -0.2819437   1.1313813  )

     number of k points=   116

     Number of k-points >= 100: set verbosity='high' to print them.

     Dense  grid:   390061 G-vectors     FFT dimensions: ( 120, 120, 120)

     Smooth grid:    98627 G-vectors     FFT dimensions: (  80,  80,  80)

     Estimated max dynamical RAM per process >      61.95 MB

     Estimated total dynamical RAM >       4.11 GB

     Check: negative core charge=   -0.000001

     Initial potential from superposition of free atoms

     starting charge   63.98899, renormalised to   64.00000
     Starting wfcs are   52 randomized atomic wfcs

     total cpu time spent up to now is    14577.3 secs

     Self-consistent Calculation

     iteration #  1     ecut=    90.00 Ry     beta= 0.70
     CG style diagonalization
     c_bands:  5 eigenvalues not converged
     c_bands:  4 eigenvalues not converged
     c_bands:  5 eigenvalues not converged
     c_bands:  5 eigenvalues not converged
     c_bands:  2 eigenvalues not converged
     c_bands:  2 eigenvalues not converged
     c_bands:  4 eigenvalues not converged
     c_bands:  5 eigenvalues not converged
     c_bands:  5 eigenvalues not converged
     c_bands:  3 eigenvalues not converged
     c_bands:  5 eigenvalues not converged
     c_bands:  5 eigenvalues not converged
     c_bands:  3 eigenvalues not converged
     c_bands:  5 eigenvalues not converged
     c_bands:  4 eigenvalues not converged
     c_bands:  5 eigenvalues not converged
     c_bands:  5 eigenvalues not converged
     c_bands:  5 eigenvalues not converged
     c_bands:  5 eigenvalues not converged
     c_bands:  5 eigenvalues not converged
     c_bands:  5 eigenvalues not converged
     c_bands:  5 eigenvalues not converged
     c_bands:  5 eigenvalues not converged
     c_bands:  3 eigenvalues not converged
     c_bands:  5 eigenvalues not converged
     c_bands:  5 eigenvalues not converged
     c_bands:  4 eigenvalues not converged
     c_bands:  2 eigenvalues not converged
     c_bands:  5 eigenvalues not converged
     c_bands:  3 eigenvalues not converged
     c_bands:  4 eigenvalues not converged
     c_bands:  5 eigenvalues not converged
     c_bands:  5 eigenvalues not converged
     c_bands:  4 eigenvalues not converged
     c_bands:  5 eigenvalues not converged
     c_bands:  5 eigenvalues not converged
     c_bands:  4 eigenvalues not converged
     c_bands:  5 eigenvalues not converged
     c_bands:  4 eigenvalues not converged
     c_bands:  5 eigenvalues not converged
     c_bands:  5 eigenvalues not converged
     c_bands:  2 eigenvalues not converged
     c_bands:  4 eigenvalues not converged
     c_bands:  2 eigenvalues not converged
     c_bands:  2 eigenvalues not converged
     c_bands:  4 eigenvalues not converged
     c_bands:  5 eigenvalues not converged
     c_bands:  5 eigenvalues not converged
     c_bands:  5 eigenvalues not converged
     c_bands:  4 eigenvalues not converged
     c_bands:  3 eigenvalues not converged
     c_bands:  4 eigenvalues not converged
     c_bands:  3 eigenvalues not converged
     ethr =  1.00E-06,  avg # of iterations = 14.1

     total cpu time spent up to now is    14794.8 secs

     total energy              =    -366.73121019 Ry
     Harris-Foulkes estimate   =    -367.90875832 Ry
     estimated scf accuracy    <       1.69093383 Ry

     iteration #  2     ecut=    90.00 Ry     beta= 0.70
     CG style diagonalization
     ethr =  2.64E-03,  avg # of iterations =  4.3

     total cpu time spent up to now is    14862.7 secs

     total energy              =    -367.11903869 Ry
     Harris-Foulkes estimate   =    -367.87986082 Ry
     estimated scf accuracy    <       1.55591020 Ry

     iteration #  3     ecut=    90.00 Ry     beta= 0.70
     CG style diagonalization
     ethr =  2.43E-03,  avg # of iterations =  3.8

     total cpu time spent up to now is    14922.2 secs

     total energy              =    -367.42282056 Ry
     Harris-Foulkes estimate   =    -367.42570029 Ry
     estimated scf accuracy    <       0.01275853 Ry

     iteration #  4     ecut=    90.00 Ry     beta= 0.70
     CG style diagonalization
     ethr =  1.99E-05,  avg # of iterations =  4.3

     total cpu time spent up to now is    14990.6 secs

     total energy              =    -367.43519586 Ry
     Harris-Foulkes estimate   =    -367.43625309 Ry
     estimated scf accuracy    <       0.00291894 Ry

     iteration #  5     ecut=    90.00 Ry     beta= 0.70
     CG style diagonalization
     ethr =  4.56E-06,  avg # of iterations =  3.6

     total cpu time spent up to now is    15046.7 secs

     total energy              =    -367.43555251 Ry
     Harris-Foulkes estimate   =    -367.43559605 Ry
     estimated scf accuracy    <       0.00017625 Ry

     iteration #  6     ecut=    90.00 Ry     beta= 0.70
     CG style diagonalization
     ethr =  2.75E-07,  avg # of iterations =  3.9

     total cpu time spent up to now is    15107.6 secs

     total energy              =    -367.43558577 Ry
     Harris-Foulkes estimate   =    -367.43558785 Ry
     estimated scf accuracy    <       0.00000624 Ry

     iteration #  7     ecut=    90.00 Ry     beta= 0.70
     CG style diagonalization
     ethr =  9.75E-09,  avg # of iterations =  4.4

     total cpu time spent up to now is    15176.3 secs

     total energy              =    -367.43558866 Ry
     Harris-Foulkes estimate   =    -367.43559003 Ry
     estimated scf accuracy    <       0.00000254 Ry

     iteration #  8     ecut=    90.00 Ry     beta= 0.70
     CG style diagonalization
     ethr =  3.97E-09,  avg # of iterations =  4.0

     total cpu time spent up to now is    15238.4 secs

     total energy              =    -367.43558928 Ry
     Harris-Foulkes estimate   =    -367.43558939 Ry
     estimated scf accuracy    <       0.00000020 Ry

     iteration #  9     ecut=    90.00 Ry     beta= 0.70
     CG style diagonalization
     ethr =  3.16E-10,  avg # of iterations =  4.0

     total cpu time spent up to now is    15301.7 secs

     total energy              =    -367.43558936 Ry
     Harris-Foulkes estimate   =    -367.43558937 Ry
     estimated scf accuracy    <       0.00000002 Ry

     iteration # 10     ecut=    90.00 Ry     beta= 0.70
     CG style diagonalization
     ethr =  3.77E-11,  avg # of iterations =  3.9

     total cpu time spent up to now is    15363.5 secs

     total energy              =    -367.43558937 Ry
     Harris-Foulkes estimate   =    -367.43558937 Ry
     estimated scf accuracy    <          2.7E-10 Ry

     iteration # 11     ecut=    90.00 Ry     beta= 0.70
     CG style diagonalization
     ethr =  4.15E-13,  avg # of iterations =  4.8

     total cpu time spent up to now is    15439.3 secs

     total energy              =    -367.43558937 Ry
     Harris-Foulkes estimate   =    -367.43558937 Ry
     estimated scf accuracy    <          2.7E-10 Ry

     iteration # 12     ecut=    90.00 Ry     beta= 0.70
     CG style diagonalization
     ethr =  4.15E-13,  avg # of iterations =  3.2

     total cpu time spent up to now is    15489.7 secs

     End of self-consistent calculation

     Number of k-points >= 100: set verbosity='high' to print the bands.

     highest occupied level (ev):     4.4779

!    total energy              =    -367.43558937 Ry
     Harris-Foulkes estimate   =    -367.43558937 Ry
     estimated scf accuracy    <          6.6E-11 Ry

     The total energy is the sum of the following terms:

     one-electron contribution =    -148.34782368 Ry
     hartree contribution      =     103.53158461 Ry
     xc contribution           =     -75.26745181 Ry
     ewald contribution        =    -247.35189848 Ry

     convergence has been achieved in  12 iterations

     Forces acting on atoms (cartesian axes, Ry/au):

     atom    1 type  1   force =     0.00000000    0.00000000   -0.00000000
     atom    2 type  1   force =    -0.00000000   -0.00000000    0.00000000
     atom    3 type  2   force =    -0.00000000    0.00000000    0.00000000
     atom    4 type  2   force =     0.00000000   -0.00000000    0.00000000
     atom    5 type  3   force =     0.00003778   -0.00006544   -0.00000000
     atom    6 type  3   force =    -0.00007557   -0.00000000    0.00000000
     atom    7 type  3   force =     0.00003778    0.00006544    0.00000000
     atom    8 type  3   force =     0.00007557    0.00000000   -0.00000000
     atom    9 type  3   force =    -0.00003778   -0.00006544   -0.00000000
     atom   10 type  3   force =    -0.00003778    0.00006544    0.00000000

     Total force =     0.000185     Total SCF correction =     0.000001


     Computing stress (Cartesian axis) and pressure

          total   stress  (Ry/bohr**3)                   (kbar)     P=   -0.26
  -0.00000266  -0.00000000   0.00000000         -0.39     -0.00      0.00
  -0.00000000  -0.00000266  -0.00000000         -0.00     -0.39     -0.00
   0.00000000  -0.00000000   0.00000011          0.00     -0.00      0.02


     Writing output data file CCO.save/
 
     init_run     :     39.54s CPU     45.61s WALL (       2 calls)
     electrons    :  13770.98s CPU  15316.14s WALL (      15 calls)
     update_pot   :     11.89s CPU     12.03s WALL (      13 calls)
     forces       :     29.25s CPU     30.81s WALL (      15 calls)
     stress       :     78.64s CPU     80.31s WALL (      15 calls)

     Called by init_run:
     wfcinit      :     36.10s CPU     40.52s WALL (       2 calls)
     potinit      :      0.50s CPU      0.64s WALL (       2 calls)
     hinit0       :      1.36s CPU      2.10s WALL (       2 calls)

     Called by electrons:
     c_bands      :  12789.67s CPU  14260.92s WALL (     205 calls)
     sum_band     :    942.35s CPU   1006.84s WALL (     205 calls)
     v_of_rho     :     18.01s CPU     18.46s WALL (     220 calls)
     newd         :     18.41s CPU     24.72s WALL (     220 calls)
     mix_rho      :      2.45s CPU      2.77s WALL (     205 calls)

     Called by c_bands:
     init_us_2    :     32.34s CPU     36.38s WALL (   51272 calls)
     ccgdiagg     :  10484.44s CPU  11645.63s WALL (   24378 calls)
     wfcrot       :   2314.22s CPU   2608.52s WALL (   22870 calls)

     Called by sum_band:
     sum_band:bec :      5.85s CPU      6.34s WALL (   23780 calls)
     addusdens    :     17.40s CPU     23.64s WALL (     205 calls)

     Called by *cgdiagg:
     h_psi        :   9247.82s CPU   9989.97s WALL ( 2657497 calls)
     s_psi        :    858.39s CPU   1050.97s WALL ( 5292124 calls)
     cdiaghg      :    466.20s CPU    645.72s WALL (   22870 calls)

     Called by h_psi:
     h_psi:pot    :   9140.30s CPU   9863.09s WALL ( 2657497 calls)
     h_psi:calbec :    794.65s CPU    869.14s WALL ( 2657497 calls)
     vloc_psi     :   7734.54s CPU   8316.69s WALL ( 2657497 calls)
     add_vuspsi   :    476.91s CPU    560.56s WALL ( 2657497 calls)
     hs_1psi      :   8176.74s CPU   8918.93s WALL ( 2634627 calls)
     s_1psi       :   1294.52s CPU   1518.20s WALL ( 2634627 calls)

     General routines
     calbec       :   1377.49s CPU   1604.89s WALL ( 5324604 calls)
     fft          :     16.72s CPU     17.62s WALL (    3218 calls)
     ffts         :      0.95s CPU      1.00s WALL (     425 calls)
     fftw         :   7963.64s CPU   8533.32s WALL ( 7503174 calls)
     interpolate  :      1.76s CPU      1.83s WALL (     220 calls)
 
     Parallel routines
     fft_scatt_xy :    649.97s CPU    696.05s WALL ( 7506817 calls)
     fft_scatt_yz :   4822.70s CPU   5194.94s WALL ( 7506817 calls)
 
     PWSCF        :      3h52m CPU      4h18m WALL

 
   This run was terminated on:  22:32:54  23Apr2022            

=------------------------------------------------------------------------------=
   JOB DONE.
=------------------------------------------------------------------------------=
