
     Program PWSCF v.7.0 starts on 20Feb2022 at 10:12:16 

     This program is part of the open-source Quantum ESPRESSO suite
     for quantum simulation of materials; please cite
         "P. Giannozzi et al., J. Phys.:Condens. Matter 21 395502 (2009);
         "P. Giannozzi et al., J. Phys.:Condens. Matter 29 465901 (2017);
         "P. Giannozzi et al., J. Chem. Phys. 152 154105 (2020);
          URL http://www.quantum-espresso.org", 
     in publications or presentations arising from this work. More details at
     http://www.quantum-espresso.org/quote

     Parallel version (MPI), running on     1 processors

     MPI processes distributed on     1 nodes
     88011 MiB available memory on the printing compute node when the environment starts
 
     Waiting for input...
     Reading input from standard input

     Current dimensions of program PWSCF are:
     Max number of different atomic species (ntypx) = 10
     Max number of k-points (npk) =  40000
     Max angular momentum in pseudopotentials (lmaxx) =  4

     Subspace diagonalization in iterative solution of the eigenvalue problem:
     a serial algorithm will be used

 
     G-vector sticks info
     --------------------
     sticks:   dense  smooth     PW     G-vecs:    dense   smooth      PW
     Sum        1333     439    151                31951     6183    1139
 
     Using Slab Decomposition
 


     bravais-lattice index     =            2
     lattice parameter (alat)  =       8.9724  a.u.
     unit-cell volume          =     180.5784 (a.u.)^3
     number of atoms/cell      =            2
     number of atomic types    =            2
     number of electrons       =         8.00
     number of Kohn-Sham states=            4
     kinetic-energy cutoff     =      40.0000  Ry
     charge density cutoff     =     480.0000  Ry
     scf convergence threshold =      1.0E-08
     mixing beta               =       0.7000
     number of iterations used =            8  plain     mixing
     energy convergence thresh.=      1.0E-04
     force convergence thresh. =      1.0E-03
     press convergence thresh. =      5.0E-01
     Exchange-correlation= SLA  PZ   NOGX NOGC
                           (   1   1   0   0   0   0   0)
     nstep                     =           50


     celldm(1)=   8.972400  celldm(2)=   0.000000  celldm(3)=   0.000000
     celldm(4)=   0.000000  celldm(5)=   0.000000  celldm(6)=   0.000000

     crystal axes: (cart. coord. in units of alat)
               a(1) = (  -0.500000   0.000000   0.500000 )  
               a(2) = (   0.000000   0.500000   0.500000 )  
               a(3) = (  -0.500000   0.500000   0.000000 )  

     reciprocal axes: (cart. coord. in units 2 pi/alat)
               b(1) = ( -1.000000 -1.000000  1.000000 )  
               b(2) = (  1.000000  1.000000  1.000000 )  
               b(3) = ( -1.000000  1.000000 -1.000000 )  


     PseudoPot. # 1 for B  read from file:
     ../pseudo_dir/B_LDA.UPF
     MD5 check sum: a9970de764dbc07c3a3d9583c605c3b2
     Pseudo is Ultrasoft + core correction, Zval =  3.0
     Generated by new atomic code, or converted to UPF format
     Using radial grid of  781 points,  4 beta functions with: 
                l(1) =   0
                l(2) =   0
                l(3) =   1
                l(4) =   1
     Q(r) pseudized with  8 coefficients,  rinner =    1.100   1.100   1.100


     PseudoPot. # 2 for As read from file:
     ../pseudo_dir/As_LDA.UPF
     MD5 check sum: 6d2e8cbe4ed9d0db7c6ef7a361cc050d
     Pseudo is Ultrasoft + core correction, Zval =  5.0
     Generated by new atomic code, or converted to UPF format
     Using radial grid of  875 points,  6 beta functions with: 
                l(1) =   0
                l(2) =   0
                l(3) =   1
                l(4) =   1
                l(5) =   2
                l(6) =   2
     Q(r) pseudized with  8 coefficients,  rinner =    1.300   1.300   1.300
                                                       1.300   1.300

     atomic species   valence    mass     pseudopotential
        B              3.00    10.81100     B ( 1.00)
        As             5.00    74.92160     As( 1.00)

     24 Sym. Ops. (no inversion) found



   Cartesian axes

     site n.     atom                  positions (alat units)
         1           B   tau(   1) = (   0.0000000   0.0000000   0.0000000  )
         2           As  tau(   2) = (  -0.2500000   0.2500000   0.2500000  )

     number of k points=    29
                       cart. coord. in units 2pi/alat
        k(    1) = (   0.0000000   0.0000000   0.0000000), wk =   0.0039062
        k(    2) = (  -0.1250000   0.1250000  -0.1250000), wk =   0.0312500
        k(    3) = (  -0.2500000   0.2500000  -0.2500000), wk =   0.0312500
        k(    4) = (  -0.3750000   0.3750000  -0.3750000), wk =   0.0312500
        k(    5) = (   0.5000000  -0.5000000   0.5000000), wk =   0.0156250
        k(    6) = (   0.0000000   0.2500000   0.0000000), wk =   0.0234375
        k(    7) = (  -0.1250000   0.3750000  -0.1250000), wk =   0.0937500
        k(    8) = (  -0.2500000   0.5000000  -0.2500000), wk =   0.0937500
        k(    9) = (   0.6250000  -0.3750000   0.6250000), wk =   0.0937500
        k(   10) = (   0.5000000  -0.2500000   0.5000000), wk =   0.0937500
        k(   11) = (   0.3750000  -0.1250000   0.3750000), wk =   0.0937500
        k(   12) = (   0.2500000   0.0000000   0.2500000), wk =   0.0468750
        k(   13) = (   0.0000000   0.5000000   0.0000000), wk =   0.0234375
        k(   14) = (  -0.1250000   0.6250000  -0.1250000), wk =   0.0937500
        k(   15) = (   0.7500000  -0.2500000   0.7500000), wk =   0.0937500
        k(   16) = (   0.6250000  -0.1250000   0.6250000), wk =   0.0937500
        k(   17) = (   0.5000000   0.0000000   0.5000000), wk =   0.0468750
        k(   18) = (   0.0000000   0.7500000   0.0000000), wk =   0.0234375
        k(   19) = (   0.8750000  -0.1250000   0.8750000), wk =   0.0937500
        k(   20) = (   0.7500000   0.0000000   0.7500000), wk =   0.0468750
        k(   21) = (   0.0000000  -1.0000000   0.0000000), wk =   0.0117188
        k(   22) = (  -0.2500000   0.5000000   0.0000000), wk =   0.0937500
        k(   23) = (   0.6250000  -0.3750000   0.8750000), wk =   0.1875000
        k(   24) = (   0.5000000  -0.2500000   0.7500000), wk =   0.0937500
        k(   25) = (   0.7500000  -0.2500000   1.0000000), wk =   0.0937500
        k(   26) = (   0.6250000  -0.1250000   0.8750000), wk =   0.1875000
        k(   27) = (   0.5000000   0.0000000   0.7500000), wk =   0.0937500
        k(   28) = (  -0.2500000  -1.0000000   0.0000000), wk =   0.0468750
        k(   29) = (  -0.5000000  -1.0000000   0.0000000), wk =   0.0234375

     Dense  grid:    31951 G-vectors     FFT dimensions: (  45,  45,  45)

     Smooth grid:     6183 G-vectors     FFT dimensions: (  25,  25,  25)

     Estimated max dynamical RAM per process >     127.06 MB

     Initial potential from superposition of free atoms

     starting charge       7.9996, renormalised to       8.0000
     Starting wfcs are    8 randomized atomic wfcs

     total cpu time spent up to now is        7.2 secs

     Self-consistent Calculation

     iteration #  1     ecut=    40.00 Ry     beta= 0.70
     CG style diagonalization
     ethr =  1.00E-02,  avg # of iterations =  2.7

     total cpu time spent up to now is        8.2 secs

     total energy              =     -46.14982637 Ry
     estimated scf accuracy    <       0.14908030 Ry

     iteration #  2     ecut=    40.00 Ry     beta= 0.70
     CG style diagonalization
     ethr =  1.86E-03,  avg # of iterations =  4.2

     total cpu time spent up to now is        9.5 secs

     total energy              =     -46.18359169 Ry
     estimated scf accuracy    <       0.03798718 Ry

     iteration #  3     ecut=    40.00 Ry     beta= 0.70
     CG style diagonalization
     ethr =  4.75E-04,  avg # of iterations =  4.1

     total cpu time spent up to now is       10.6 secs

     total energy              =     -46.19184358 Ry
     estimated scf accuracy    <       0.00037202 Ry

     iteration #  4     ecut=    40.00 Ry     beta= 0.70
     CG style diagonalization
     ethr =  4.65E-06,  avg # of iterations =  4.5

     total cpu time spent up to now is       11.8 secs

     total energy              =     -46.19209882 Ry
     estimated scf accuracy    <       0.00006483 Ry

     iteration #  5     ecut=    40.00 Ry     beta= 0.70
     CG style diagonalization
     ethr =  8.10E-07,  avg # of iterations =  4.1

     total cpu time spent up to now is       13.0 secs

     total energy              =     -46.19211457 Ry
     estimated scf accuracy    <       0.00000127 Ry

     iteration #  6     ecut=    40.00 Ry     beta= 0.70
     CG style diagonalization
     ethr =  1.59E-08,  avg # of iterations =  5.9

     total cpu time spent up to now is       14.5 secs

     total energy              =     -46.19211706 Ry
     estimated scf accuracy    <       0.00000019 Ry

     iteration #  7     ecut=    40.00 Ry     beta= 0.70
     CG style diagonalization
     ethr =  2.40E-09,  avg # of iterations =  4.4

     total cpu time spent up to now is       15.7 secs

     total energy              =     -46.19211713 Ry
     estimated scf accuracy    <       0.00000002 Ry

     iteration #  8     ecut=    40.00 Ry     beta= 0.70
     CG style diagonalization
     ethr =  2.43E-10,  avg # of iterations =  4.5

     total cpu time spent up to now is       16.9 secs

     End of self-consistent calculation

          k = 0.0000 0.0000 0.0000 (   749 PWs)   bands (ev):

    -6.9458   8.6166   8.6166   8.6166

          k =-0.1250 0.1250-0.1250 (   779 PWs)   bands (ev):

    -6.6865   6.6387   8.1706   8.1706

          k =-0.2500 0.2500-0.2500 (   778 PWs)   bands (ev):

    -5.9311   3.6291   7.4516   7.4516

          k =-0.3750 0.3750-0.3750 (   769 PWs)   bands (ev):

    -4.8078   1.0135   6.9487   6.9487

          k = 0.5000-0.5000 0.5000 (   778 PWs)   bands (ev):

    -4.0303  -0.2762   6.7750   6.7750

          k = 0.0000 0.2500 0.0000 (   777 PWs)   bands (ev):

    -6.5996   7.1938   7.4300   7.4300

          k =-0.1250 0.3750-0.1250 (   781 PWs)   bands (ev):

    -6.0068   4.6263   6.6789   6.9668

          k =-0.2500 0.5000-0.2500 (   783 PWs)   bands (ev):

    -4.9845   1.9319   6.1747   6.2694

          k = 0.6250-0.3750 0.6250 (   773 PWs)   bands (ev):

    -3.9403   0.0794   5.5551   6.2817

          k = 0.5000-0.2500 0.5000 (   778 PWs)   bands (ev):

    -4.2282   0.5366   5.2882   6.6953

          k = 0.3750-0.1250 0.3750 (   781 PWs)   bands (ev):

    -5.3655   2.7910   5.4622   7.4079

          k = 0.2500 0.0000 0.2500 (   775 PWs)   bands (ev):

    -6.2603   5.3433   6.3208   8.1301

          k = 0.0000 0.5000 0.0000 (   769 PWs)   bands (ev):

    -5.5830   4.5404   5.8638   5.8638

          k =-0.1250 0.6250-0.1250 (   775 PWs)   bands (ev):

    -4.7084   2.6680   4.9023   5.3974

          k = 0.7500-0.2500 0.7500 (   768 PWs)   bands (ev):

    -3.6283   0.8564   3.8051   5.3881

          k = 0.6250-0.1250 0.6250 (   773 PWs)   bands (ev):

    -3.4035   0.5653   3.1647   5.8317

          k = 0.5000 0.0000 0.5000 (   784 PWs)   bands (ev):

    -4.3928   1.9441   3.4274   6.6203

          k = 0.0000 0.7500 0.0000 (   777 PWs)   bands (ev):

    -4.0091   1.7929   4.8267   4.8267

          k = 0.8750-0.1250 0.8750 (   766 PWs)   bands (ev):

    -3.0968   0.6697   3.7414   4.7120

          k = 0.7500 0.0000 0.7500 (   762 PWs)   bands (ev):

    -2.7591   0.4837   2.5206   5.0738

          k = 0.0000-1.0000 0.0000 (   774 PWs)   bands (ev):

    -2.7287   0.0879   4.4703   4.4703

          k =-0.2500 0.5000 0.0000 (   776 PWs)   bands (ev):

    -5.2711   3.4042   4.8305   6.5666

          k = 0.6250-0.3750 0.8750 (   775 PWs)   bands (ev):

    -4.1886   1.4049   4.1133   5.8307

          k = 0.5000-0.2500 0.7500 (   764 PWs)   bands (ev):

    -3.4551   0.2588   3.9983   5.4841

          k = 0.7500-0.2500 1.0000 (   763 PWs)   bands (ev):

    -3.7758   1.5546   3.8949   4.6613

          k = 0.6250-0.1250 0.8750 (   762 PWs)   bands (ev):

    -2.9226   0.6480   2.9271   4.3928

          k = 0.5000 0.0000 0.7500 (   769 PWs)   bands (ev):

    -3.2157   0.9470   2.6851   4.9272

          k =-0.2500-1.0000 0.0000 (   770 PWs)   bands (ev):

    -2.6459   0.3039   3.7062   3.8140

          k =-0.5000-1.0000 0.0000 (   772 PWs)   bands (ev):

    -2.5571   0.5943   2.9991   3.2914

     highest occupied level (ev):     8.6166

!    total energy              =     -46.19211713 Ry
     estimated scf accuracy    <          8.9E-09 Ry

     The total energy is the sum of the following terms:
     one-electron contribution =       6.79721899 Ry
     hartree contribution      =       1.23117046 Ry
     xc contribution           =     -34.16529398 Ry
     ewald contribution        =     -20.05521261 Ry

     convergence has been achieved in   8 iterations

     Forces acting on atoms (cartesian axes, Ry/au):

     atom    1 type  1   force =     0.00000000    0.00000000    0.00000000
     atom    2 type  2   force =    -0.00000000    0.00000000   -0.00000000

     Total force =     0.000000     Total SCF correction =     0.000000


     Computing stress (Cartesian axis) and pressure

          total   stress  (Ry/bohr**3)                   (kbar)     P=        0.03
   0.00000021  -0.00000000   0.00000000            0.03       -0.00        0.00
   0.00000000   0.00000021   0.00000000            0.00        0.03        0.00
  -0.00000000   0.00000000   0.00000021           -0.00        0.00        0.03


     BFGS Geometry Optimization
     Energy error            =      0.0E+00 Ry
     Gradient error          =      1.4E-32 Ry/Bohr
     Cell gradient error     =      3.1E-02 kbar

     bfgs converged in   1 scf cycles and   0 bfgs steps
     (criteria: energy <  1.0E-04 Ry, force <  1.0E-03Ry/Bohr, cell <  5.0E-01kbar)

     End of BFGS Geometry Optimization

     Final enthalpy           =     -46.1921171335 Ry
Begin final coordinates
     new unit-cell volume =    180.57844 a.u.^3 (    26.75896 Ang^3 )
     density =      5.32017 g/cm^3

CELL_PARAMETERS (alat=  8.97240000)
  -0.500000000   0.000000000   0.500000000
   0.000000000   0.500000000   0.500000000
  -0.500000000   0.500000000   0.000000000

ATOMIC_POSITIONS (crystal)
B             0.0000000000        0.0000000000        0.0000000000
As            0.2500000000        0.2500000000        0.2500000000
End final coordinates



     Writing config-only to output data dir ./q2_b_1.save/

     Final scf calculation at the relaxed structure.
     The G-vectors are recalculated for the final unit cell
     Results may differ from those at the preceding step.
 
     G-vector sticks info
     --------------------
     sticks:   dense  smooth     PW     G-vecs:    dense   smooth      PW
     Sum        1333     439    151                31951     6183    1139
 
     Using Slab Decomposition
 


     bravais-lattice index     =            2
     lattice parameter (alat)  =       8.9724  a.u.
     unit-cell volume          =     180.5784 (a.u.)^3
     number of atoms/cell      =            2
     number of atomic types    =            2
     number of electrons       =         8.00
     number of Kohn-Sham states=            4
     kinetic-energy cutoff     =      40.0000  Ry
     charge density cutoff     =     480.0000  Ry
     scf convergence threshold =      1.0E-08
     mixing beta               =       0.7000
     number of iterations used =            8  plain     mixing
     press convergence thresh. =      5.0E-01
     Exchange-correlation= SLA  PZ   NOGX NOGC
                           (   1   1   0   0   0   0   0)

     celldm(1)=   8.972400  celldm(2)=   0.000000  celldm(3)=   0.000000
     celldm(4)=   0.000000  celldm(5)=   0.000000  celldm(6)=   0.000000

     crystal axes: (cart. coord. in units of alat)
               a(1) = (  -0.500000   0.000000   0.500000 )  
               a(2) = (   0.000000   0.500000   0.500000 )  
               a(3) = (  -0.500000   0.500000   0.000000 )  

     reciprocal axes: (cart. coord. in units 2 pi/alat)
               b(1) = ( -1.000000 -1.000000  1.000000 )  
               b(2) = (  1.000000  1.000000  1.000000 )  
               b(3) = ( -1.000000  1.000000 -1.000000 )  


     PseudoPot. # 1 for B  read from file:
     ../pseudo_dir/B_LDA.UPF
     MD5 check sum: a9970de764dbc07c3a3d9583c605c3b2
     Pseudo is Ultrasoft + core correction, Zval =  3.0
     Generated by new atomic code, or converted to UPF format
     Using radial grid of  781 points,  4 beta functions with: 
                l(1) =   0
                l(2) =   0
                l(3) =   1
                l(4) =   1
     Q(r) pseudized with  8 coefficients,  rinner =    1.100   1.100   1.100


     PseudoPot. # 2 for As read from file:
     ../pseudo_dir/As_LDA.UPF
     MD5 check sum: 6d2e8cbe4ed9d0db7c6ef7a361cc050d
     Pseudo is Ultrasoft + core correction, Zval =  5.0
     Generated by new atomic code, or converted to UPF format
     Using radial grid of  875 points,  6 beta functions with: 
                l(1) =   0
                l(2) =   0
                l(3) =   1
                l(4) =   1
                l(5) =   2
                l(6) =   2
     Q(r) pseudized with  8 coefficients,  rinner =    1.300   1.300   1.300
                                                       1.300   1.300

     atomic species   valence    mass     pseudopotential
        B              3.00    10.81100     B ( 1.00)
        As             5.00    74.92160     As( 1.00)

     24 Sym. Ops. (no inversion) found



   Cartesian axes

     site n.     atom                  positions (alat units)
         1           B   tau(   1) = (   0.0000000   0.0000000   0.0000000  )
         2           As  tau(   2) = (  -0.2500000   0.2500000   0.2500000  )

     number of k points=    29
                       cart. coord. in units 2pi/alat
        k(    1) = (   0.0000000   0.0000000   0.0000000), wk =   0.0039062
        k(    2) = (  -0.1250000   0.1250000  -0.1250000), wk =   0.0312500
        k(    3) = (  -0.2500000   0.2500000  -0.2500000), wk =   0.0312500
        k(    4) = (  -0.3750000   0.3750000  -0.3750000), wk =   0.0312500
        k(    5) = (   0.5000000  -0.5000000   0.5000000), wk =   0.0156250
        k(    6) = (   0.0000000   0.2500000   0.0000000), wk =   0.0234375
        k(    7) = (  -0.1250000   0.3750000  -0.1250000), wk =   0.0937500
        k(    8) = (  -0.2500000   0.5000000  -0.2500000), wk =   0.0937500
        k(    9) = (   0.6250000  -0.3750000   0.6250000), wk =   0.0937500
        k(   10) = (   0.5000000  -0.2500000   0.5000000), wk =   0.0937500
        k(   11) = (   0.3750000  -0.1250000   0.3750000), wk =   0.0937500
        k(   12) = (   0.2500000   0.0000000   0.2500000), wk =   0.0468750
        k(   13) = (   0.0000000   0.5000000   0.0000000), wk =   0.0234375
        k(   14) = (  -0.1250000   0.6250000  -0.1250000), wk =   0.0937500
        k(   15) = (   0.7500000  -0.2500000   0.7500000), wk =   0.0937500
        k(   16) = (   0.6250000  -0.1250000   0.6250000), wk =   0.0937500
        k(   17) = (   0.5000000   0.0000000   0.5000000), wk =   0.0468750
        k(   18) = (   0.0000000   0.7500000   0.0000000), wk =   0.0234375
        k(   19) = (   0.8750000  -0.1250000   0.8750000), wk =   0.0937500
        k(   20) = (   0.7500000   0.0000000   0.7500000), wk =   0.0468750
        k(   21) = (   0.0000000  -1.0000000   0.0000000), wk =   0.0117188
        k(   22) = (  -0.2500000   0.5000000   0.0000000), wk =   0.0937500
        k(   23) = (   0.6250000  -0.3750000   0.8750000), wk =   0.1875000
        k(   24) = (   0.5000000  -0.2500000   0.7500000), wk =   0.0937500
        k(   25) = (   0.7500000  -0.2500000   1.0000000), wk =   0.0937500
        k(   26) = (   0.6250000  -0.1250000   0.8750000), wk =   0.1875000
        k(   27) = (   0.5000000   0.0000000   0.7500000), wk =   0.0937500
        k(   28) = (  -0.2500000  -1.0000000   0.0000000), wk =   0.0468750
        k(   29) = (  -0.5000000  -1.0000000   0.0000000), wk =   0.0234375

     Dense  grid:    31951 G-vectors     FFT dimensions: (  45,  45,  45)

     Smooth grid:     6183 G-vectors     FFT dimensions: (  25,  25,  25)

     Estimated max dynamical RAM per process >     127.55 MB

     Initial potential from superposition of free atoms

     starting charge       7.9996, renormalised to       8.0000
     Starting wfcs are    8 randomized atomic wfcs

     total cpu time spent up to now is       29.1 secs

     Self-consistent Calculation

     iteration #  1     ecut=    40.00 Ry     beta= 0.70
     CG style diagonalization
     ethr =  1.00E-06,  avg # of iterations =  8.1

     total cpu time spent up to now is       31.0 secs

     total energy              =     -46.14553273 Ry
     estimated scf accuracy    <       0.15807005 Ry

     iteration #  2     ecut=    40.00 Ry     beta= 0.70
     CG style diagonalization
     ethr =  1.98E-03,  avg # of iterations =  4.1

     total cpu time spent up to now is       32.2 secs

     total energy              =     -46.18209605 Ry
     estimated scf accuracy    <       0.04794264 Ry

     iteration #  3     ecut=    40.00 Ry     beta= 0.70
     CG style diagonalization
     ethr =  5.99E-04,  avg # of iterations =  4.1

     total cpu time spent up to now is       33.5 secs

     total energy              =     -46.19192619 Ry
     estimated scf accuracy    <       0.00035775 Ry

     iteration #  4     ecut=    40.00 Ry     beta= 0.70
     CG style diagonalization
     ethr =  4.47E-06,  avg # of iterations =  4.2

     total cpu time spent up to now is       34.7 secs

     total energy              =     -46.19210959 Ry
     estimated scf accuracy    <       0.00002671 Ry

     iteration #  5     ecut=    40.00 Ry     beta= 0.70
     CG style diagonalization
     ethr =  3.34E-07,  avg # of iterations =  4.0

     total cpu time spent up to now is       35.9 secs

     total energy              =     -46.19211630 Ry
     estimated scf accuracy    <       0.00000017 Ry

     iteration #  6     ecut=    40.00 Ry     beta= 0.70
     CG style diagonalization
     ethr =  2.15E-09,  avg # of iterations =  6.8

     total cpu time spent up to now is       37.6 secs

     total energy              =     -46.19211714 Ry
     estimated scf accuracy    <       0.00000002 Ry

     iteration #  7     ecut=    40.00 Ry     beta= 0.70
     CG style diagonalization
     ethr =  2.83E-10,  avg # of iterations =  3.4

     total cpu time spent up to now is       38.7 secs

     End of self-consistent calculation

          k = 0.0000 0.0000 0.0000 (   749 PWs)   bands (ev):

    -6.9459   8.6167   8.6167   8.6167

          k =-0.1250 0.1250-0.1250 (   779 PWs)   bands (ev):

    -6.6866   6.6387   8.1706   8.1706

          k =-0.2500 0.2500-0.2500 (   778 PWs)   bands (ev):

    -5.9312   3.6291   7.4517   7.4517

          k =-0.3750 0.3750-0.3750 (   769 PWs)   bands (ev):

    -4.8078   1.0135   6.9488   6.9488

          k = 0.5000-0.5000 0.5000 (   778 PWs)   bands (ev):

    -4.0304  -0.2761   6.7751   6.7751

          k = 0.0000 0.2500 0.0000 (   777 PWs)   bands (ev):

    -6.5997   7.1939   7.4301   7.4301

          k =-0.1250 0.3750-0.1250 (   781 PWs)   bands (ev):

    -6.0069   4.6263   6.6789   6.9668

          k =-0.2500 0.5000-0.2500 (   783 PWs)   bands (ev):

    -4.9845   1.9319   6.1747   6.2694

          k = 0.6250-0.3750 0.6250 (   773 PWs)   bands (ev):

    -3.9404   0.0794   5.5552   6.2817

          k = 0.5000-0.2500 0.5000 (   778 PWs)   bands (ev):

    -4.2283   0.5366   5.2883   6.6954

          k = 0.3750-0.1250 0.3750 (   781 PWs)   bands (ev):

    -5.3655   2.7910   5.4623   7.4080

          k = 0.2500 0.0000 0.2500 (   775 PWs)   bands (ev):

    -6.2604   5.3433   6.3208   8.1302

          k = 0.0000 0.5000 0.0000 (   769 PWs)   bands (ev):

    -5.5831   4.5405   5.8639   5.8639

          k =-0.1250 0.6250-0.1250 (   775 PWs)   bands (ev):

    -4.7085   2.6681   4.9023   5.3974

          k = 0.7500-0.2500 0.7500 (   768 PWs)   bands (ev):

    -3.6285   0.8564   3.8052   5.3881

          k = 0.6250-0.1250 0.6250 (   773 PWs)   bands (ev):

    -3.4036   0.5654   3.1647   5.8318

          k = 0.5000 0.0000 0.5000 (   784 PWs)   bands (ev):

    -4.3929   1.9441   3.4274   6.6203

          k = 0.0000 0.7500 0.0000 (   777 PWs)   bands (ev):

    -4.0092   1.7929   4.8267   4.8267

          k = 0.8750-0.1250 0.8750 (   766 PWs)   bands (ev):

    -3.0969   0.6697   3.7414   4.7121

          k = 0.7500 0.0000 0.7500 (   762 PWs)   bands (ev):

    -2.7592   0.4838   2.5207   5.0739

          k = 0.0000-1.0000 0.0000 (   774 PWs)   bands (ev):

    -2.7288   0.0880   4.4703   4.4703

          k =-0.2500 0.5000 0.0000 (   776 PWs)   bands (ev):

    -5.2712   3.4042   4.8306   6.5666

          k = 0.6250-0.3750 0.8750 (   775 PWs)   bands (ev):

    -4.1887   1.4049   4.1133   5.8307

          k = 0.5000-0.2500 0.7500 (   764 PWs)   bands (ev):

    -3.4553   0.2588   3.9983   5.4842

          k = 0.7500-0.2500 1.0000 (   763 PWs)   bands (ev):

    -3.7759   1.5547   3.8949   4.6613

          k = 0.6250-0.1250 0.8750 (   762 PWs)   bands (ev):

    -2.9228   0.6481   2.9271   4.3928

          k = 0.5000 0.0000 0.7500 (   769 PWs)   bands (ev):

    -3.2159   0.9471   2.6851   4.9272

          k =-0.2500-1.0000 0.0000 (   770 PWs)   bands (ev):

    -2.6461   0.3040   3.7062   3.8140

          k =-0.5000-1.0000 0.0000 (   772 PWs)   bands (ev):

    -2.5573   0.5944   2.9991   3.2914

     highest occupied level (ev):     8.6167

!    total energy              =     -46.19211714 Ry
     estimated scf accuracy    <          9.1E-09 Ry

     The total energy is the sum of the following terms:
     one-electron contribution =       6.79725776 Ry
     hartree contribution      =       1.23113916 Ry
     xc contribution           =     -34.16530144 Ry
     ewald contribution        =     -20.05521261 Ry

     convergence has been achieved in   7 iterations

     Forces acting on atoms (cartesian axes, Ry/au):

     atom    1 type  1   force =    -0.00000000    0.00000000    0.00000000
     atom    2 type  2   force =     0.00000000    0.00000000    0.00000000

     Total force =     0.000000     Total SCF correction =     0.000000


     Computing stress (Cartesian axis) and pressure

          total   stress  (Ry/bohr**3)                   (kbar)     P=        0.05
   0.00000036   0.00000000  -0.00000000            0.05        0.00       -0.00
   0.00000000   0.00000036   0.00000000            0.00        0.05        0.00
   0.00000000   0.00000000   0.00000036            0.00        0.00        0.05


     Writing all to output data dir ./q2_b_1.save/
 
     init_run     :      9.96s CPU     10.41s WALL (       2 calls)
     electrons    :     17.25s CPU     19.33s WALL (       2 calls)
     forces       :      3.83s CPU      3.90s WALL (       2 calls)
     stress       :      9.29s CPU      9.47s WALL (       2 calls)

     Called by init_run:
     wfcinit      :      0.56s CPU      0.66s WALL (       2 calls)
     potinit      :      0.91s CPU      0.94s WALL (       2 calls)
     hinit0       :      8.04s CPU      8.18s WALL (       2 calls)

     Called by electrons:
     c_bands      :      9.85s CPU     11.10s WALL (      15 calls)
     sum_band     :      4.44s CPU      4.81s WALL (      15 calls)
     v_of_rho     :      0.40s CPU      0.40s WALL (      17 calls)
     newd         :      2.74s CPU      3.13s WALL (      17 calls)
     mix_rho      :      0.10s CPU      0.11s WALL (      15 calls)

     Called by c_bands:
     init_us_2    :      0.98s CPU      1.07s WALL (    1044 calls)
     init_us_2:cp :      0.96s CPU      1.06s WALL (    1044 calls)
     ccgdiagg     :      7.81s CPU      8.58s WALL (     435 calls)
     wfcrot       :      1.92s CPU      2.06s WALL (     435 calls)

     Called by *cgdiagg:
     h_psi        :      7.74s CPU      8.42s WALL (    6942 calls)
     s_psi        :      0.56s CPU      0.62s WALL (   13449 calls)

     Called by h_psi:
     h_psi:calbec :      0.56s CPU      0.63s WALL (    6942 calls)
     vloc_psi     :      6.47s CPU      7.02s WALL (    6942 calls)
     add_vuspsi   :      0.37s CPU      0.41s WALL (    6942 calls)
     hs_1psi      :      6.69s CPU      7.32s WALL (    6507 calls)
     s_1psi       :      0.73s CPU      0.80s WALL (    6507 calls)

     General routines
     calbec       :      0.80s CPU      0.91s WALL (   14174 calls)
     fft          :      0.28s CPU      0.31s WALL (     114 calls)
     ffts         :      0.01s CPU      0.02s WALL (      32 calls)
     fftw         :      6.14s CPU      6.65s WALL (   18698 calls)
     interpolate  :      0.06s CPU      0.06s WALL (      17 calls)
 
     Parallel routines
 
     PWSCF        :     41.16s CPU     45.86s WALL

 
   This run was terminated on:  10:13: 2  20Feb2022            

=------------------------------------------------------------------------------=
   JOB DONE.
=------------------------------------------------------------------------------=
