TACC:  Starting up job 9581714 
TACC:  Starting parallel tasks... 

     Program PWSCF v.6.4.1 starts on  4May2022 at 13:57:20 

     This program is part of the open-source Quantum ESPRESSO suite
     for quantum simulation of materials; please cite
         "P. Giannozzi et al., J. Phys.:Condens. Matter 21 395502 (2009);
         "P. Giannozzi et al., J. Phys.:Condens. Matter 29 465901 (2017);
          URL http://www.quantum-espresso.org", 
     in publications or presentations arising from this work. More details at
     http://www.quantum-espresso.org/quote

     Parallel version (MPI & OpenMP), running on     120 processor cores
     Number of MPI processes:               120
     Threads/MPI process:                     1

     MPI processes distributed on     2 nodes
     R & G space division:  proc/nbgrp/npool/nimage =     120
     Waiting for input...
     Reading input from standard input
Warning: card &CELL ignored
Warning: card  CELL_DYNAMICS = 'BFGS', ignored
Warning: card  PRESS=0.1D0, ignored
Warning: card / ignored

     Current dimensions of program PWSCF are:
     Max number of different atomic species (ntypx) = 10
     Max number of k-points (npk) =  40000
     Max angular momentum in pseudopotentials (lmaxx) =  3

     Subspace diagonalization in iterative solution of the eigenvalue problem:
     one sub-group per band group will be used
     scalapack distributed-memory algorithm (size of sub-group:  7*  7 procs)

 
     Parallelization info
     --------------------
     sticks:   dense  smooth     PW     G-vecs:    dense   smooth      PW
     Min          19      19      5                  560      560      84
     Max          20      20      6                  564      564      90
     Sum        2331    2331    663                67375    67375   10379
 


     bravais-lattice index     =            5
     lattice parameter (alat)  =      11.7517  a.u.
     unit-cell volume          =     852.6732 (a.u.)^3
     number of atoms/cell      =           10
     number of atomic types    =            3
     number of electrons       =        64.00
     number of Kohn-Sham states=           32
     kinetic-energy cutoff     =      70.0000  Ry
     charge density cutoff     =     280.0000  Ry
     convergence threshold     =      1.0E-08
     mixing beta               =       0.7000
     number of iterations used =            8  plain     mixing
     Exchange-correlation      = SLA  PW   PBE  PBE ( 1  4  3  4 0 0)
     nstep                     =           50


     celldm(1)=  11.751700  celldm(2)=   0.000000  celldm(3)=   0.000000
     celldm(4)=   0.654200  celldm(5)=   0.000000  celldm(6)=   0.000000

     crystal axes: (cart. coord. in units of alat)
               a(1) = (   0.415812  -0.240069   0.877192 )  
               a(2) = (   0.000000   0.480139   0.877192 )  
               a(3) = (  -0.415812  -0.240069   0.877192 )  

     reciprocal axes: (cart. coord. in units 2 pi/alat)
               b(1) = (  1.202465 -0.694244  0.380000 )  
               b(2) = ( -0.000000  1.388487  0.380000 )  
               b(3) = ( -1.202465 -0.694244  0.380000 )  


     PseudoPot. # 1 for Ca read from file:
     ./Ca_PBE.UPF
     MD5 check sum: 403a4c14b9e4d4dfdc3024c9a3812218
     Pseudo is Ultrasoft + core correction, Zval = 10.0
     Generated by new atomic code, or converted to UPF format
     Using radial grid of  845 points,  6 beta functions with: 
                l(1) =   0
                l(2) =   0
                l(3) =   1
                l(4) =   1
                l(5) =   2
                l(6) =   2
     Q(r) pseudized with  8 coefficients,  rinner =    1.500   1.500   1.500
                                                       1.500   1.500

     PseudoPot. # 2 for C  read from file:
     ./C_PBE.UPF
     MD5 check sum: d1aef80898a10debaa0f26306b886e00
     Pseudo is Ultrasoft + core correction, Zval =  4.0
     Generated by new atomic code, or converted to UPF format
     Using radial grid of  721 points,  4 beta functions with: 
                l(1) =   0
                l(2) =   0
                l(3) =   1
                l(4) =   1
     Q(r) pseudized with  8 coefficients,  rinner =    1.100   1.100   1.100


     PseudoPot. # 3 for O  read from file:
     ./O_PBE.UPF
     MD5 check sum: 734c27235a0248c51dbae37a1fbe46ec
     Pseudo is Ultrasoft + core correction, Zval =  6.0
     Generated by new atomic code, or converted to UPF format
     Using radial grid of  737 points,  5 beta functions with: 
                l(1) =   0
                l(2) =   0
                l(3) =   1
                l(4) =   1
                l(5) =   2
     Q(r) pseudized with  8 coefficients,  rinner =    0.900   0.900   0.900
                                                       0.900   0.900

     atomic species   valence    mass     pseudopotential
        Ca            10.00    40.07800     Ca( 1.00)
        C              4.00    12.01070     C ( 1.00)
        O              6.00    16.00000     O ( 1.00)

     12 Sym. Ops., with inversion, found ( 6 have fractional translation)



   Cartesian axes

     site n.     atom                  positions (alat units)
         1           Ca  tau(   1) = (   0.0000000  -0.0000000   1.3157887  )
         2           Ca  tau(   2) = (   0.0000000   0.0000000   0.0000000  )
         3           C   tau(   3) = (   0.0000000  -0.0000000   0.6578944  )
         4           C   tau(   4) = (  -0.0000000  -0.0000000   1.9736831  )
         5           O   tau(   5) = (   0.1068709   0.2950331   1.5350869  )
         6           O   tau(   6) = (   0.2020708  -0.2400694   1.5350869  )
         7           O   tau(   7) = (  -0.3089416  -0.0549637   1.5350869  )
         8           O   tau(   8) = (  -0.2020708   0.2400694   1.0964906  )
         9           O   tau(   9) = (   0.3089416   0.0549637   1.0964906  )
        10           O   tau(  10) = (  -0.1068709  -0.2950331   1.0964906  )

     number of k points=    19
                       cart. coord. in units 2pi/alat
        k(    1) = (   0.0000000   0.0000000   0.0000000), wk =   0.0160000
        k(    2) = (  -0.2404930  -0.1388487   0.0760000), wk =   0.0960000
        k(    3) = (  -0.4809861  -0.2776974   0.1520001), wk =   0.0960000
        k(    4) = (  -0.2404930   0.1388487   0.1520001), wk =   0.0960000
        k(    5) = (  -0.4809861  -0.0000000   0.2280001), wk =   0.1920000
        k(    6) = (   0.4809861   0.5553949  -0.0760000), wk =   0.1920000
        k(    7) = (   0.2404930   0.4165462   0.0000000), wk =   0.0960000
        k(    8) = (  -0.4809861   0.2776974   0.3040002), wk =   0.0960000
        k(    9) = (   0.4809861   0.8330923   0.0000000), wk =   0.0960000
        k(   10) = (  -0.0000000  -0.0000000   0.2280001), wk =   0.0320000
        k(   11) = (  -0.2404930  -0.1388487   0.3040002), wk =   0.0960000
        k(   12) = (   0.7214791   0.4165462   0.0000000), wk =   0.0960000
        k(   13) = (   0.4809861   0.2776974   0.0760000), wk =   0.0960000
        k(   14) = (  -0.2404930   0.1388487   0.3800002), wk =   0.0960000
        k(   15) = (   0.7214791   0.6942436   0.0760000), wk =   0.1920000
        k(   16) = (   0.4809861   0.5553949   0.1520001), wk =   0.1920000
        k(   17) = (   0.7214791  -0.4165462  -0.2280001), wk =   0.0960000
        k(   18) = (  -0.0000000  -0.0000000   0.4560003), wk =   0.0320000
        k(   19) = (   0.9619721   0.5553949   0.1520001), wk =   0.0960000

     Dense  grid:    67375 G-vectors     FFT dimensions: (  64,  64,  64)

     Estimated max dynamical RAM per process >      10.78 MB

     Estimated total dynamical RAM >       1.26 GB
     Message from routine sym_rho_init:
     some processors have no G-vectors for symmetrization

     Check: negative core charge=   -0.000003

     Initial potential from superposition of free atoms

     starting charge   63.98899, renormalised to   64.00000
     Starting wfcs are   52 randomized atomic wfcs

     total cpu time spent up to now is        5.4 secs

     Self-consistent Calculation

     iteration #  1     ecut=    70.00 Ry     beta= 0.70
     CG style diagonalization
     ethr =  1.00E-02,  avg # of iterations =  2.6

     total cpu time spent up to now is       10.6 secs

     total energy              =    -366.62019416 Ry
     Harris-Foulkes estimate   =    -367.85459518 Ry
     estimated scf accuracy    <       1.76369440 Ry

     iteration #  2     ecut=    70.00 Ry     beta= 0.70
     CG style diagonalization
     ethr =  2.76E-03,  avg # of iterations =  4.4

     total cpu time spent up to now is       18.9 secs

     total energy              =    -367.04366101 Ry
     Harris-Foulkes estimate   =    -367.96314025 Ry
     estimated scf accuracy    <       1.94256204 Ry

     iteration #  3     ecut=    70.00 Ry     beta= 0.70
     CG style diagonalization
     ethr =  2.76E-03,  avg # of iterations =  3.8

     total cpu time spent up to now is       26.2 secs

     total energy              =    -367.40278438 Ry
     Harris-Foulkes estimate   =    -367.40564663 Ry
     estimated scf accuracy    <       0.01166926 Ry

     iteration #  4     ecut=    70.00 Ry     beta= 0.70
     CG style diagonalization
     ethr =  1.82E-05,  avg # of iterations =  4.5

     total cpu time spent up to now is       34.7 secs

     total energy              =    -367.41430980 Ry
     Harris-Foulkes estimate   =    -367.41584881 Ry
     estimated scf accuracy    <       0.00381071 Ry

     iteration #  5     ecut=    70.00 Ry     beta= 0.70
     CG style diagonalization
     ethr =  5.95E-06,  avg # of iterations =  3.5

     total cpu time spent up to now is       41.4 secs

     total energy              =    -367.41484385 Ry
     Harris-Foulkes estimate   =    -367.41488380 Ry
     estimated scf accuracy    <       0.00018704 Ry

     iteration #  6     ecut=    70.00 Ry     beta= 0.70
     CG style diagonalization
     ethr =  2.92E-07,  avg # of iterations =  4.2

     total cpu time spent up to now is       49.3 secs

     total energy              =    -367.41490224 Ry
     Harris-Foulkes estimate   =    -367.41491695 Ry
     estimated scf accuracy    <       0.00002556 Ry

     iteration #  7     ecut=    70.00 Ry     beta= 0.70
     CG style diagonalization
     ethr =  3.99E-08,  avg # of iterations =  4.1

     total cpu time spent up to now is       57.0 secs

     total energy              =    -367.41491299 Ry
     Harris-Foulkes estimate   =    -367.41491494 Ry
     estimated scf accuracy    <       0.00000404 Ry

     iteration #  8     ecut=    70.00 Ry     beta= 0.70
     CG style diagonalization
     ethr =  6.31E-09,  avg # of iterations =  4.1

     total cpu time spent up to now is       64.7 secs

     total energy              =    -367.41491414 Ry
     Harris-Foulkes estimate   =    -367.41491418 Ry
     estimated scf accuracy    <       0.00000007 Ry

     iteration #  9     ecut=    70.00 Ry     beta= 0.70
     CG style diagonalization
     ethr =  1.06E-10,  avg # of iterations =  4.7

     total cpu time spent up to now is       73.4 secs

     total energy              =    -367.41491422 Ry
     Harris-Foulkes estimate   =    -367.41491422 Ry
     estimated scf accuracy    <       0.00000001 Ry

     iteration # 10     ecut=    70.00 Ry     beta= 0.70
     CG style diagonalization
     ethr =  1.99E-11,  avg # of iterations =  3.7

     total cpu time spent up to now is       80.5 secs

     End of self-consistent calculation

          k = 0.0000 0.0000 0.0000 (  8403 PWs)   bands (ev):

   -33.6469 -33.6329 -16.6008 -16.5835 -15.0589 -15.0589 -14.7028 -14.7028
   -14.6428 -14.5049 -13.6578 -13.6578 -13.1014 -13.1014  -3.3225  -3.1049
    -1.4110  -1.3903  -1.3903  -1.1552  -1.1552   0.0508   2.4292   2.4292
     2.7226   2.7226   2.9737   2.9737   3.7186   3.7186   3.7378   4.1958

          k =-0.2405-0.1388 0.0760 (  8430 PWs)   bands (ev):

   -33.6455 -33.6341 -16.6371 -16.5471 -15.0538 -14.9587 -14.8227 -14.7084
   -14.6410 -14.6015 -13.5873 -13.4518 -13.2415 -13.1375  -3.1990  -3.1304
    -1.3676  -1.3372  -1.2436  -1.1491  -1.1485  -0.1226   2.4765   2.5392
     2.6419   2.6828   2.7941   2.8376   3.5209   3.5533   4.0051   4.1712

          k =-0.4810-0.2777 0.1520 (  8445 PWs)   bands (ev):

   -33.6418 -33.6374 -16.6329 -16.5514 -15.0037 -14.9424 -14.9254 -14.8309
   -14.5899 -14.5499 -13.4479 -13.3594 -13.3239 -13.2532  -3.0906  -3.0516
    -1.4028  -1.3106  -1.1440  -1.1169  -0.7786  -0.4066   2.2449   2.3338
     2.5392   2.5877   2.8689   2.9571   3.2866   3.2991   4.1769   4.2192

          k =-0.2405 0.1388 0.1520 (  8422 PWs)   bands (ev):

   -33.6452 -33.6344 -16.6469 -16.5396 -15.0166 -15.0051 -14.7418 -14.7116
   -14.6678 -14.6547 -13.5189 -13.4939 -13.2086 -13.1827  -3.1839  -3.1556
    -1.3448  -1.3184  -1.2852  -1.1233  -1.1223  -0.1573   2.4830   2.4926
     2.6209   2.6826   2.8021   2.9267   3.4167   3.6181   4.0068   4.1456

          k =-0.4810-0.0000 0.2280 (  8436 PWs)   bands (ev):

   -33.6427 -33.6366 -16.6588 -16.5280 -15.0615 -14.9685 -14.8227 -14.7575
   -14.6310 -14.5769 -13.5221 -13.4125 -13.2671 -13.1999  -3.1364  -3.0513
    -1.3765  -1.2854  -1.2208  -1.0930  -0.8448  -0.3534   2.2624   2.4280
     2.5451   2.6012   2.7701   2.9665   3.2167   3.4580   4.1465   4.2197

          k = 0.4810 0.5554-0.0760 (  8439 PWs)   bands (ev):

   -33.6400 -33.6391 -16.6198 -16.5719 -15.0274 -14.9686 -14.8903 -14.7674
   -14.6088 -14.5654 -13.5020 -13.4068 -13.2805 -13.2089  -3.0696  -3.0086
    -1.4155  -1.2929  -1.1686  -1.0800  -0.5877  -0.5142   2.1723   2.2415
     2.4832   2.5592   2.8066   2.8803   3.3003   3.3388   4.2178   4.2753

          k = 0.2405 0.4165 0.0000 (  8431 PWs)   bands (ev):

   -33.6434 -33.6358 -16.6702 -16.5077 -15.0665 -14.9850 -14.8659 -14.6906
   -14.6682 -14.5492 -13.5212 -13.4397 -13.2355 -13.2066  -3.1415  -3.0354
    -1.4226  -1.2324  -1.1883  -1.1169  -0.9447  -0.3047   2.2615   2.5149
     2.5269   2.5678   2.7002   2.9668   3.3182   3.4441   4.1479   4.2327

          k =-0.4810 0.2777 0.3040 (  8435 PWs)   bands (ev):

   -33.6423 -33.6368 -16.7154 -16.4591 -15.1189 -15.0849 -14.6995 -14.6765
   -14.6600 -14.5254 -13.6189 -13.5157 -13.1854 -13.1506  -3.2214  -2.9191
    -1.4699  -1.2497  -1.1285  -1.0419  -0.7741  -0.4468   2.0813   2.3553
     2.5485   2.7528   2.7616   2.9018   3.1838   3.4769   4.0355   4.3308

          k = 0.4810 0.8331 0.0000 (  8439 PWs)   bands (ev):

   -33.6410 -33.6381 -16.6742 -16.5183 -15.0845 -15.0088 -14.7521 -14.7183
   -14.6640 -14.5633 -13.5943 -13.4435 -13.2333 -13.1629  -3.1362  -2.9401
    -1.4063  -1.3239  -1.1644  -1.0369  -0.6150  -0.4762   2.0577   2.2543
     2.5983   2.6323   2.7424   2.7453   3.2874   3.4127   4.1370   4.3425

          k =-0.0000-0.0000 0.2280 (  8409 PWs)   bands (ev):

   -33.6456 -33.6342 -16.6012 -16.5870 -15.0341 -15.0341 -14.7519 -14.7519
   -14.6270 -14.5156 -13.5898 -13.5898 -13.1455 -13.1455  -3.3207  -3.1518
    -1.3657  -1.3657  -1.2516  -1.1760  -1.1760  -0.0727   2.4585   2.4585
     2.6983   2.6983   3.0302   3.0302   3.6329   3.6329   3.7733   4.1366

          k =-0.2405-0.1388 0.3040 (  8412 PWs)   bands (ev):

   -33.6436 -33.6360 -16.6148 -16.5767 -15.0494 -14.9227 -14.9037 -14.6762
   -14.6618 -14.5651 -13.5612 -13.3871 -13.3119 -13.1572  -3.2250  -3.1458
    -1.3321  -1.3062  -1.2165  -1.1970  -0.9827  -0.2661   2.4524   2.5556
     2.6246   2.6707   2.7782   3.0439   3.3644   3.4810   4.0014   4.1319

          k = 0.7215 0.4165 0.0000 (  8411 PWs)   bands (ev):

   -33.6400 -33.6391 -16.6333 -16.5578 -15.0610 -14.9477 -14.8736 -14.7741
   -14.6147 -14.5414 -13.4852 -13.4301 -13.2934 -13.1985  -3.1488  -3.0014
    -1.4243  -1.2580  -1.1822  -1.1026  -0.6408  -0.5089   2.2037   2.3388
     2.5204   2.6451   2.8100   3.1132   3.1143   3.3023   4.1327   4.2487

          k = 0.4810 0.2777 0.0760 (  8441 PWs)   bands (ev):

   -33.6426 -33.6365 -16.6916 -16.4824 -15.0778 -15.0458 -14.8076 -14.7256
   -14.6434 -14.5142 -13.5692 -13.4139 -13.2577 -13.1815  -3.1738  -2.9624
    -1.4644  -1.2280  -1.1303  -1.1002  -0.8443  -0.3889   2.1337   2.4157
     2.4776   2.6919   2.7287   3.1104   3.1419   3.4241   4.0952   4.2924

          k =-0.2405 0.1388 0.3800 (  8417 PWs)   bands (ev):

   -33.6428 -33.6367 -16.6393 -16.5558 -15.0480 -14.9143 -14.8428 -14.7423
   -14.6343 -14.6131 -13.4953 -13.4032 -13.2805 -13.2187  -3.2046  -3.1819
    -1.3523  -1.2768  -1.2387  -1.1425  -0.9056  -0.3583   2.4551   2.4806
     2.6263   2.6573   2.9049   3.1035   3.2047   3.5254   4.0275   4.0751

          k = 0.7215 0.6942 0.0760 (  8438 PWs)   bands (ev):

   -33.6408 -33.6384 -16.6253 -16.5757 -15.0300 -14.9775 -14.7677 -14.7378
   -14.6658 -14.6282 -13.4876 -13.4246 -13.2648 -13.2211  -3.1185  -3.0865
    -1.3372  -1.3324  -1.1919  -1.1048  -0.6645  -0.4857   2.2721   2.3215
     2.6176   2.6860   2.7801   2.8893   3.2178   3.3752   4.1571   4.1880

          k = 0.4810 0.5554 0.1520 (  8448 PWs)   bands (ev):

   -33.6407 -33.6384 -16.6590 -16.5332 -15.0617 -14.9981 -14.8391 -14.6758
   -14.6619 -14.5684 -13.5729 -13.4062 -13.2731 -13.1680  -3.1180  -2.9590
    -1.4365  -1.2779  -1.1242  -1.1022  -0.6194  -0.4767   2.0919   2.2576
     2.5098   2.6329   2.7539   2.8383   3.2993   3.3641   4.1633   4.3235

          k = 0.7215-0.4165-0.2280 (  8436 PWs)   bands (ev):

   -33.6410 -33.6381 -16.6947 -16.4906 -15.1238 -15.0322 -14.7335 -14.6893
   -14.6620 -14.5232 -13.5592 -13.5466 -13.1910 -13.1643  -3.2133  -2.9360
    -1.4687  -1.2346  -1.1074  -1.0963  -0.6492  -0.5302   2.1073   2.3268
     2.6198   2.7272   2.7427   2.8944   3.1982   3.3943   4.0547   4.3109

          k =-0.0000-0.0000 0.4560 (  8416 PWs)   bands (ev):

   -33.6421 -33.6377 -16.5999 -16.5945 -14.9630 -14.9630 -14.8584 -14.8584
   -14.5884 -14.5460 -13.4336 -13.4336 -13.2670 -13.2670  -3.3004  -3.2396
    -1.3038  -1.3038  -1.2316  -1.2316  -0.8607  -0.4121   2.5353   2.5353
     2.6280   2.6280   3.1939   3.1939   3.4238   3.4238   3.8698   4.0042

          k = 0.9620 0.5554 0.1520 (  8417 PWs)   bands (ev):

   -33.6402 -33.6393 -16.6132 -16.5851 -15.0405 -14.9354 -14.8618 -14.7485
   -14.6266 -14.5715 -13.4868 -13.3629 -13.3378 -13.2174  -3.2335  -3.1717
    -1.3364  -1.2389  -1.2270  -1.2085  -0.6719  -0.5610   2.4449   2.5062
     2.6289   2.6377   2.9472   3.1303   3.2687   3.3506   4.0173   4.0722

     highest occupied level (ev):     4.3425

!    total energy              =    -367.41491422 Ry
     Harris-Foulkes estimate   =    -367.41491422 Ry
     estimated scf accuracy    <          1.5E-09 Ry

     The total energy is the sum of the following terms:

     one-electron contribution =    -141.44624646 Ry
     hartree contribution      =     100.23340012 Ry
     xc contribution           =     -75.01841767 Ry
     ewald contribution        =    -251.18365021 Ry

     convergence has been achieved in  10 iterations

     Forces acting on atoms (cartesian axes, Ry/au):

     atom    1 type  1   force =    -0.00000000    0.00000000    0.00000000
     atom    2 type  1   force =     0.00000000    0.00000000    0.00000000
     atom    3 type  2   force =    -0.00000000    0.00000000    0.00000000
     atom    4 type  2   force =     0.00000000   -0.00000000   -0.00000000
     atom    5 type  3   force =    -0.03547410    0.06144294    0.00000000
     atom    6 type  3   force =     0.07094820   -0.00000000    0.00000000
     atom    7 type  3   force =    -0.03547410   -0.06144294   -0.00000000
     atom    8 type  3   force =    -0.07094820    0.00000000   -0.00000000
     atom    9 type  3   force =     0.03547410    0.06144294    0.00000000
     atom   10 type  3   force =     0.03547410   -0.06144294   -0.00000000

     Total force =     0.173787     Total SCF correction =     0.000060


     Computing stress (Cartesian axis) and pressure

          total   stress  (Ry/bohr**3)                   (kbar)     P=  -58.33
  -0.00068102  -0.00000000   0.00000000       -100.18     -0.00      0.00
   0.00000000  -0.00068102  -0.00000000          0.00   -100.18     -0.00
   0.00000000  -0.00000000   0.00017240          0.00     -0.00     25.36


     BFGS Geometry Optimization

     number of scf cycles    =   1
     number of bfgs steps    =   0

     energy   new            =    -367.4149142203 Ry

     new trust radius        =       0.0709481966 bohr
     new conv_thr            =       0.0000000100 Ry


ATOMIC_POSITIONS (crystal)
Ca       0.500000000   0.500000000   0.500000000
Ca       0.000000000   0.000000000   0.000000000
C        0.250000000   0.250000000   0.250000000
C        0.750000000   0.750000000   0.750000000
O        0.499757347   1.000242653   0.250000000
O        1.000242653   0.250000000   0.499757347
O        0.250000000   0.499757347   1.000242653
O       -0.000242653   0.750000000   0.500242653
O        0.750000000   0.500242653  -0.000242653
O        0.500242653  -0.000242653   0.750000000



     Writing output data file CCOrand4.save/
     NEW-OLD atomic charge density approx. for the potential

     Check: negative core charge=   -0.000003

     total cpu time spent up to now is       81.8 secs

     Self-consistent Calculation

     iteration #  1     ecut=    70.00 Ry     beta= 0.70
     CG style diagonalization
     c_bands:  2 eigenvalues not converged
     c_bands:  1 eigenvalues not converged
     c_bands:  5 eigenvalues not converged
     c_bands:  2 eigenvalues not converged
     c_bands:  3 eigenvalues not converged
     c_bands:  2 eigenvalues not converged
     c_bands:  3 eigenvalues not converged
     c_bands:  2 eigenvalues not converged
     c_bands:  4 eigenvalues not converged
     c_bands:  3 eigenvalues not converged
     c_bands:  5 eigenvalues not converged
     c_bands:  5 eigenvalues not converged
     ethr =  1.00E-06,  avg # of iterations = 12.8

     total cpu time spent up to now is      105.0 secs

     total energy              =    -367.41981269 Ry
     Harris-Foulkes estimate   =    -367.43311700 Ry
     estimated scf accuracy    <       0.01810251 Ry

     iteration #  2     ecut=    70.00 Ry     beta= 0.70
     CG style diagonalization
     ethr =  2.83E-05,  avg # of iterations =  4.0

     total cpu time spent up to now is      112.7 secs

     total energy              =    -367.42476847 Ry
     Harris-Foulkes estimate   =    -367.42959683 Ry
     estimated scf accuracy    <       0.00873055 Ry

     iteration #  3     ecut=    70.00 Ry     beta= 0.70
     CG style diagonalization
     ethr =  1.36E-05,  avg # of iterations =  3.6

     total cpu time spent up to now is      119.5 secs

     total energy              =    -367.42684858 Ry
     Harris-Foulkes estimate   =    -367.42693490 Ry
     estimated scf accuracy    <       0.00018456 Ry

     iteration #  4     ecut=    70.00 Ry     beta= 0.70
     CG style diagonalization
     ethr =  2.88E-07,  avg # of iterations =  4.2

     total cpu time spent up to now is      127.5 secs

     total energy              =    -367.42698037 Ry
     Harris-Foulkes estimate   =    -367.42701061 Ry
     estimated scf accuracy    <       0.00007869 Ry

     iteration #  5     ecut=    70.00 Ry     beta= 0.70
     CG style diagonalization
     ethr =  1.23E-07,  avg # of iterations =  3.5

     total cpu time spent up to now is      134.1 secs

     total energy              =    -367.42699000 Ry
     Harris-Foulkes estimate   =    -367.42699186 Ry
     estimated scf accuracy    <       0.00000328 Ry

     iteration #  6     ecut=    70.00 Ry     beta= 0.70
     CG style diagonalization
     ethr =  5.12E-09,  avg # of iterations =  4.2

     total cpu time spent up to now is      142.0 secs

     total energy              =    -367.42699120 Ry
     Harris-Foulkes estimate   =    -367.42699142 Ry
     estimated scf accuracy    <       0.00000042 Ry

     iteration #  7     ecut=    70.00 Ry     beta= 0.70
     CG style diagonalization
     ethr =  6.50E-10,  avg # of iterations =  4.1

     total cpu time spent up to now is      149.7 secs

     total energy              =    -367.42699135 Ry
     Harris-Foulkes estimate   =    -367.42699138 Ry
     estimated scf accuracy    <       0.00000005 Ry

     iteration #  8     ecut=    70.00 Ry     beta= 0.70
     CG style diagonalization
     ethr =  7.57E-11,  avg # of iterations =  3.9

     total cpu time spent up to now is      157.1 secs

     End of self-consistent calculation

          k = 0.0000 0.0000 0.0000 (  8403 PWs)   bands (ev):

   -33.7660 -33.7527 -17.0612 -17.0055 -15.1438 -15.1438 -14.8087 -14.8087
   -14.7532 -14.6800 -13.8722 -13.8722 -13.3539 -13.3539  -3.2172  -2.9461
    -1.6411  -1.4657  -1.4657  -1.2426  -1.2426  -0.2843   2.4643   2.4643
     2.7088   2.7088   2.9653   2.9653   3.7267   3.7267   3.9305   4.3640

          k =-0.2405-0.1388 0.0760 (  8430 PWs)   bands (ev):

   -33.7646 -33.7539 -17.0827 -16.9829 -15.1406 -15.0528 -14.9340 -14.8166
   -14.7589 -14.7453 -13.8058 -13.6789 -13.4861 -13.3856  -3.0870  -2.9713
    -1.5435  -1.4199  -1.3575  -1.2690  -1.2408  -0.4338   2.4926   2.5465
     2.6490   2.6815   2.7946   2.8446   3.5499   3.5717   4.1614   4.3350

          k =-0.4810-0.2777 0.1520 (  8445 PWs)   bands (ev):

   -33.7611 -33.7570 -17.0696 -16.9977 -15.0951 -15.0386 -15.0203 -14.9289
   -14.7296 -14.6942 -13.6765 -13.5912 -13.5592 -13.4897  -2.9367  -2.9181
    -1.5211  -1.4133  -1.2482  -1.2221  -1.0059  -0.6772   2.2512   2.3353
     2.5443   2.5823   2.8995   2.9734   3.3135   3.3290   4.3354   4.3727

          k =-0.2405 0.1388 0.1520 (  8422 PWs)   bands (ev):

   -33.7644 -33.7541 -17.0887 -16.9782 -15.1079 -15.0950 -14.8635 -14.8380
   -14.7910 -14.7644 -13.7393 -13.7195 -13.4548 -13.4297  -3.0723  -2.9993
    -1.4858  -1.4248  -1.4040  -1.2516  -1.2134  -0.4652   2.4930   2.5144
     2.6236   2.6818   2.8066   2.9295   3.4386   3.6348   4.1698   4.3100

          k =-0.4810-0.0000 0.2280 (  8436 PWs)   bands (ev):

   -33.7620 -33.7562 -17.0906 -16.9777 -15.1493 -15.0673 -14.9335 -14.8614
   -14.7556 -14.7151 -13.7431 -13.6434 -13.5041 -13.4453  -2.9812  -2.9251
    -1.4831  -1.3875  -1.3511  -1.1898  -1.0504  -0.6339   2.2719   2.4446
     2.5419   2.6019   2.7883   2.9867   3.2393   3.4848   4.3062   4.3730

          k = 0.4810 0.5554-0.0760 (  8439 PWs)   bands (ev):

   -33.7594 -33.7586 -17.0545 -17.0172 -15.1198 -15.0632 -14.9882 -14.8765
   -14.7396 -14.7102 -13.7234 -13.6343 -13.5178 -13.4518  -2.9207  -2.8645
    -1.5280  -1.4054  -1.2831  -1.1846  -0.8412  -0.7622   2.1789   2.2513
     2.4895   2.5602   2.8329   2.9058   3.3268   3.3662   4.3707   4.4280

          k = 0.2405 0.4165 0.0000 (  8431 PWs)   bands (ev):

   -33.7627 -33.7555 -17.1013 -16.9615 -15.1562 -15.0764 -14.9649 -14.8180
   -14.7756 -14.6940 -13.7461 -13.6672 -13.4741 -13.4512  -2.9819  -2.9113
    -1.5423  -1.3361  -1.2888  -1.2131  -1.1602  -0.5893   2.2666   2.5144
     2.5460   2.5558   2.7307   2.9786   3.3399   3.4715   4.3073   4.3857

          k =-0.4810 0.2777 0.3040 (  8435 PWs)   bands (ev):

   -33.7617 -33.7564 -17.1315 -16.9310 -15.2056 -15.1729 -14.8070 -14.7828
   -14.7699 -14.6893 -13.8325 -13.7354 -13.4303 -13.4016  -3.0639  -2.7916
    -1.5511  -1.3662  -1.2901  -1.1361  -0.9848  -0.7177   2.0966   2.3907
     2.5531   2.7378   2.7756   2.9218   3.2054   3.5005   4.1990   4.4852

          k = 0.4810 0.8331 0.0000 (  8439 PWs)   bands (ev):

   -33.7604 -33.7576 -17.0967 -16.9756 -15.1690 -15.1129 -14.8558 -14.8455
   -14.7711 -14.7082 -13.8066 -13.6658 -13.4772 -13.4118  -2.9819  -2.8017
    -1.4920  -1.4463  -1.3167  -1.1350  -0.8472  -0.7387   2.0733   2.2797
     2.5970   2.6306   2.7660   2.7710   3.3133   3.4391   4.2933   4.4930

          k =-0.0000-0.0000 0.2280 (  8409 PWs)   bands (ev):

   -33.7648 -33.7540 -17.0574 -17.0122 -15.1207 -15.1207 -14.8555 -14.8555
   -14.7442 -14.6850 -13.8080 -13.8080 -13.3946 -13.3946  -3.2138  -3.0065
    -1.4802  -1.4425  -1.4425  -1.2623  -1.2623  -0.3915   2.4881   2.4881
     2.6865   2.6865   3.0264   3.0264   3.6413   3.6413   3.9630   4.3080

          k =-0.2405-0.1388 0.3040 (  8412 PWs)   bands (ev):

   -33.7628 -33.7557 -17.0611 -17.0103 -15.1400 -15.0213 -14.9958 -14.7853
   -14.7838 -14.7181 -13.7839 -13.6162 -13.5509 -13.4026  -3.1086  -3.0012
    -1.4434  -1.4133  -1.3044  -1.2914  -1.1748  -0.5601   2.4717   2.5597
     2.6240   2.6720   2.7852   3.0574   3.3829   3.5066   4.1613   4.2990

          k = 0.7215 0.4165 0.0000 (  8411 PWs)   bands (ev):

   -33.7595 -33.7586 -17.0617 -17.0103 -15.1516 -15.0409 -14.9734 -14.8779
   -14.7391 -14.6987 -13.7089 -13.6544 -13.5329 -13.4405  -3.0071  -2.8578
    -1.5225  -1.3798  -1.2928  -1.2107  -0.8697  -0.7734   2.2131   2.3534
     2.5219   2.6402   2.8278   3.1380   3.1387   3.3373   4.2860   4.4077

          k = 0.4810 0.2777 0.0760 (  8441 PWs)   bands (ev):

   -33.7620 -33.7562 -17.1149 -16.9465 -15.1641 -15.1355 -14.9107 -14.8322
   -14.7627 -14.6692 -13.7883 -13.6404 -13.4975 -13.4282  -3.0148  -2.8342
    -1.5669  -1.3406  -1.2280  -1.2277  -1.0618  -0.6611   2.1452   2.4195
     2.4961   2.6794   2.7521   3.1234   3.1636   3.4543   4.2554   4.4471

          k =-0.2405 0.1388 0.3800 (  8417 PWs)   bands (ev):

   -33.7622 -33.7563 -17.0762 -16.9972 -15.1368 -15.0127 -14.9557 -14.8478
   -14.7668 -14.7413 -13.7198 -13.6298 -13.5228 -13.4622  -3.0659  -3.0635
    -1.4414  -1.3649  -1.3528  -1.2355  -1.1208  -0.6423   2.4651   2.5042
     2.6194   2.6611   2.9192   3.1145   3.2185   3.5409   4.1953   4.2421

          k = 0.7215 0.6942 0.0760 (  8438 PWs)   bands (ev):

   -33.7602 -33.7580 -17.0600 -17.0170 -15.1203 -15.0779 -14.8806 -14.8699
   -14.7751 -14.7547 -13.7079 -13.6508 -13.5059 -13.4661  -2.9741  -2.9532
    -1.4357  -1.4301  -1.3232  -1.2093  -0.8945  -0.7485   2.2877   2.3405
     2.6183   2.6776   2.8013   2.9100   3.2472   3.4033   4.3152   4.3429

          k = 0.4810 0.5554 0.1520 (  8448 PWs)   bands (ev):

   -33.7601 -33.7579 -17.0849 -16.9872 -15.1529 -15.0924 -14.9469 -14.7937
   -14.7726 -14.7173 -13.7880 -13.6303 -13.5145 -13.4155  -2.9653  -2.8189
    -1.5404  -1.3974  -1.2366  -1.2206  -0.8620  -0.7301   2.1042   2.2787
     2.5150   2.6273   2.7766   2.8637   3.3229   3.3959   4.3176   4.4747

          k = 0.7215-0.4165-0.2280 (  8436 PWs)   bands (ev):

   -33.7604 -33.7577 -17.1122 -16.9569 -15.2107 -15.1245 -14.8414 -14.7970
   -14.7698 -14.6887 -13.7741 -13.7652 -13.4391 -13.4101  -3.0625  -2.8029
    -1.5568  -1.3529  -1.2413  -1.2009  -0.8901  -0.7809   2.1216   2.3593
     2.6217   2.7290   2.7426   2.9165   3.2313   3.4179   4.2135   4.4670

          k =-0.0000-0.0000 0.4560 (  8416 PWs)   bands (ev):

   -33.7614 -33.7573 -17.0457 -17.0284 -15.0544 -15.0544 -14.9562 -14.9562
   -14.7226 -14.7001 -13.6617 -13.6617 -13.5069 -13.5069  -3.1875  -3.1142
    -1.3839  -1.3839  -1.3153  -1.3153  -1.1040  -0.6922   2.5506   2.5506
     2.6267   2.6267   3.1972   3.1972   3.4314   3.4314   4.0532   4.1814

          k = 0.9620 0.5554 0.1520 (  8417 PWs)   bands (ev):

   -33.7597 -33.7588 -17.0468 -17.0294 -15.1321 -15.0349 -14.9586 -14.8534
   -14.7552 -14.7183 -13.7130 -13.5993 -13.5690 -13.4588  -3.1074  -3.0445
    -1.4209  -1.3332  -1.3232  -1.3067  -0.9168  -0.8226   2.4591   2.5166
     2.6326   2.6416   2.9555   3.1472   3.2842   3.3677   4.1837   4.2410

     highest occupied level (ev):     4.4930

!    total energy              =    -367.42699137 Ry
     Harris-Foulkes estimate   =    -367.42699137 Ry
     estimated scf accuracy    <          2.1E-09 Ry

     The total energy is the sum of the following terms:

     one-electron contribution =    -146.60719361 Ry
     hartree contribution      =     102.76950084 Ry
     xc contribution           =     -75.28103771 Ry
     ewald contribution        =    -248.30826088 Ry

     convergence has been achieved in   8 iterations

     Forces acting on atoms (cartesian axes, Ry/au):

     atom    1 type  1   force =     0.00000000    0.00000000    0.00000000
     atom    2 type  1   force =     0.00000000    0.00000000    0.00000000
     atom    3 type  2   force =    -0.00000000   -0.00000000    0.00000000
     atom    4 type  2   force =    -0.00000000   -0.00000000    0.00000000
     atom    5 type  3   force =     0.00891504   -0.01544129   -0.00000000
     atom    6 type  3   force =    -0.01783007    0.00000000   -0.00000000
     atom    7 type  3   force =     0.00891504    0.01544129    0.00000000
     atom    8 type  3   force =     0.01783007   -0.00000000    0.00000000
     atom    9 type  3   force =    -0.00891504   -0.01544129   -0.00000000
     atom   10 type  3   force =    -0.00891504    0.01544129    0.00000000

     Total force =     0.043675     Total SCF correction =     0.000117


     Computing stress (Cartesian axis) and pressure

          total   stress  (Ry/bohr**3)                   (kbar)     P=    2.55
  -0.00002320  -0.00000000  -0.00000000         -3.41     -0.00     -0.00
   0.00000000  -0.00002320  -0.00000000          0.00     -3.41     -0.00
  -0.00000000  -0.00000000   0.00009846         -0.00     -0.00     14.48


     number of scf cycles    =   2
     number of bfgs steps    =   1

     energy   old            =    -367.4149142203 Ry
     energy   new            =    -367.4269913660 Ry

     CASE: energy  _new < energy  _old

     new trust radius        =       0.0142491107 bohr
     new conv_thr            =       0.0000000018 Ry


ATOMIC_POSITIONS (crystal)
Ca       0.500000000   0.500000000   0.500000000
Ca       0.000000000   0.000000000   0.000000000
C        0.250000000   0.250000000   0.250000000
C        0.750000000   0.750000000   0.750000000
O        0.501215354   0.998784646   0.250000000
O        0.998784646   0.250000000   0.501215354
O        0.250000000   0.501215354   0.998784646
O        0.001215354   0.750000000   0.498784646
O        0.750000000   0.498784646   0.001215354
O        0.498784646   0.001215354   0.750000000



     Writing output data file CCOrand4.save/
     NEW-OLD atomic charge density approx. for the potential

     Check: negative core charge=   -0.000003

     total cpu time spent up to now is      158.0 secs

     Self-consistent Calculation

     iteration #  1     ecut=    70.00 Ry     beta= 0.70
     CG style diagonalization
     c_bands:  1 eigenvalues not converged
     ethr =  1.00E-06,  avg # of iterations =  5.8

     total cpu time spent up to now is      168.9 secs

     total energy              =    -367.42737467 Ry
     Harris-Foulkes estimate   =    -367.42791766 Ry
     estimated scf accuracy    <       0.00073507 Ry

     iteration #  2     ecut=    70.00 Ry     beta= 0.70
     CG style diagonalization
     ethr =  1.15E-06,  avg # of iterations =  4.0

     total cpu time spent up to now is      176.4 secs

     total energy              =    -367.42758777 Ry
     Harris-Foulkes estimate   =    -367.42776940 Ry
     estimated scf accuracy    <       0.00032398 Ry

     iteration #  3     ecut=    70.00 Ry     beta= 0.70
     CG style diagonalization
     ethr =  5.06E-07,  avg # of iterations =  3.6

     total cpu time spent up to now is      183.2 secs

     total energy              =    -367.42766724 Ry
     Harris-Foulkes estimate   =    -367.42766947 Ry
     estimated scf accuracy    <       0.00000524 Ry

     iteration #  4     ecut=    70.00 Ry     beta= 0.70
     CG style diagonalization
     ethr =  8.18E-09,  avg # of iterations =  4.4

     total cpu time spent up to now is      191.5 secs

     total energy              =    -367.42767169 Ry
     Harris-Foulkes estimate   =    -367.42767350 Ry
     estimated scf accuracy    <       0.00000464 Ry

     iteration #  5     ecut=    70.00 Ry     beta= 0.70
     CG style diagonalization
     ethr =  7.26E-09,  avg # of iterations =  3.5

     total cpu time spent up to now is      198.1 secs

     total energy              =    -367.42767214 Ry
     Harris-Foulkes estimate   =    -367.42767228 Ry
     estimated scf accuracy    <       0.00000027 Ry

     iteration #  6     ecut=    70.00 Ry     beta= 0.70
     CG style diagonalization
     ethr =  4.28E-10,  avg # of iterations =  4.0

     total cpu time spent up to now is      205.6 secs

     total energy              =    -367.42767221 Ry
     Harris-Foulkes estimate   =    -367.42767222 Ry
     estimated scf accuracy    <       0.00000001 Ry

     iteration #  7     ecut=    70.00 Ry     beta= 0.70
     CG style diagonalization
     ethr =  2.30E-11,  avg # of iterations =  4.0

     total cpu time spent up to now is      213.2 secs

     total energy              =    -367.42767222 Ry
     Harris-Foulkes estimate   =    -367.42767222 Ry
     estimated scf accuracy    <          6.2E-09 Ry

     iteration #  8     ecut=    70.00 Ry     beta= 0.70
     CG style diagonalization
     ethr =  9.62E-12,  avg # of iterations =  3.9

     total cpu time spent up to now is      220.6 secs

     End of self-consistent calculation

          k = 0.0000 0.0000 0.0000 (  8403 PWs)   bands (ev):

   -33.7421 -33.7286 -16.9662 -16.9166 -15.1261 -15.1261 -14.7873 -14.7873
   -14.7309 -14.6465 -13.8273 -13.8273 -13.3019 -13.3019  -3.2385  -2.9782
    -1.5928  -1.4506  -1.4506  -1.2252  -1.2252  -0.2149   2.4574   2.4574
     2.7109   2.7109   2.9667   2.9667   3.7250   3.7250   3.8905   4.3288

          k =-0.2405-0.1388 0.0760 (  8430 PWs)   bands (ev):

   -33.7407 -33.7298 -16.9901 -16.8916 -15.1226 -15.0335 -14.9113 -14.7946
   -14.7354 -14.7175 -13.7602 -13.6319 -13.4356 -13.3345  -3.1095  -3.0034
    -1.5022  -1.4032  -1.3356  -1.2481  -1.2225  -0.3692   2.4898   2.5452
     2.6469   2.6815   2.7937   2.8428   3.5448   3.5680   4.1278   4.3006

          k =-0.4810-0.2777 0.1520 (  8445 PWs)   bands (ev):

   -33.7371 -33.7330 -16.9785 -16.9047 -15.0762 -15.0188 -15.0008 -14.9088
   -14.7024 -14.6661 -13.6291 -13.5432 -13.5106 -13.4408  -2.9677  -2.9449
    -1.4956  -1.3920  -1.2276  -1.2011  -0.9601  -0.6215   2.2497   2.3348
     2.5431   2.5832   2.8931   2.9697   3.3082   3.3230   4.3019   4.3402

          k =-0.2405 0.1388 0.1520 (  8422 PWs)   bands (ev):

   -33.7404 -33.7300 -16.9968 -16.8863 -15.0891 -15.0765 -14.8392 -14.8119
   -14.7678 -14.7422 -13.6935 -13.6727 -13.4041 -13.3787  -3.0947  -3.0308
    -1.4425  -1.4068  -1.3868  -1.2291  -1.1953  -0.4013   2.4911   2.5106
     2.6221   2.6817   2.8055   2.9283   3.4345   3.6314   4.1351   4.2754

          k =-0.4810-0.0000 0.2280 (  8436 PWs)   bands (ev):

   -33.7380 -33.7321 -17.0004 -16.8840 -15.1311 -15.0471 -14.9110 -14.8403
   -14.7310 -14.6881 -13.6971 -13.5955 -13.4552 -13.3947  -3.0124  -2.9504
    -1.4597  -1.3667  -1.3240  -1.1706  -1.0104  -0.5760   2.2699   2.4413
     2.5423   2.6015   2.7843   2.9823   3.2347   3.4795   4.2725   4.3404

          k = 0.4810 0.5554-0.0760 (  8439 PWs)   bands (ev):

   -33.7354 -33.7345 -16.9636 -16.9245 -15.1007 -15.0437 -14.9681 -14.8543
   -14.7140 -14.6821 -13.6773 -13.5871 -13.4688 -13.4017  -2.9506  -2.8934
    -1.5045  -1.3815  -1.2602  -1.1638  -0.7894  -0.7119   2.1774   2.2492
     2.4880   2.5598   2.8273   2.9004   3.3214   3.3606   4.3383   4.3957

          k = 0.2405 0.4165 0.0000 (  8431 PWs)   bands (ev):

   -33.7387 -33.7314 -17.0113 -16.8671 -15.1376 -15.0575 -14.9446 -14.7930
   -14.7539 -14.6657 -13.6993 -13.6201 -13.4248 -13.4008  -3.0141  -2.9361
    -1.5160  -1.3144  -1.2689  -1.1940  -1.1176  -0.5305   2.2653   2.5143
     2.5421   2.5580   2.7243   2.9758   3.3356   3.4660   4.2737   4.3532

          k =-0.4810 0.2777 0.3040 (  8435 PWs)   bands (ev):

   -33.7377 -33.7324 -17.0442 -16.8335 -15.1876 -15.1548 -14.7853 -14.7614
   -14.7476 -14.6576 -13.7879 -13.6895 -13.3800 -13.3499  -3.0956  -2.8171
    -1.5350  -1.3424  -1.2539  -1.1173  -0.9445  -0.6618   2.0935   2.3834
     2.5520   2.7407   2.7724   2.9175   3.2008   3.4957   4.1646   4.4525

          k = 0.4810 0.8331 0.0000 (  8439 PWs)   bands (ev):

   -33.7363 -33.7336 -17.0081 -16.8806 -15.1514 -15.0919 -14.8347 -14.8198
   -14.7495 -14.6803 -13.7623 -13.6195 -13.4270 -13.3605  -3.0130  -2.8295
    -1.4751  -1.4210  -1.2838  -1.1154  -0.8011  -0.6850   2.0701   2.2746
     2.5970   2.6309   2.7608   2.7656   3.3080   3.4338   4.2603   4.4611

          k =-0.0000-0.0000 0.2280 (  8409 PWs)   bands (ev):

   -33.7408 -33.7299 -16.9630 -16.9228 -15.1028 -15.1028 -14.8345 -14.8345
   -14.7207 -14.6525 -13.7625 -13.7625 -13.3433 -13.3433  -3.2353  -3.0355
    -1.4326  -1.4271  -1.4271  -1.2452  -1.2452  -0.3254   2.4823   2.4823
     2.6884   2.6884   3.0269   3.0269   3.6395   3.6395   3.9236   4.2722

          k =-0.2405-0.1388 0.3040 (  8412 PWs)   bands (ev):

   -33.7388 -33.7316 -16.9683 -16.9195 -15.1213 -15.0011 -14.9769 -14.7621
   -14.7607 -14.6885 -13.7375 -13.5688 -13.5014 -13.3521  -3.1319  -3.0301
    -1.4123  -1.3970  -1.2868  -1.2726  -1.1382  -0.4992   2.4680   2.5590
     2.6239   2.6714   2.7832   3.0543   3.3790   3.5020   4.1272   4.2640

          k = 0.7215 0.4165 0.0000 (  8411 PWs)   bands (ev):

   -33.7355 -33.7346 -16.9719 -16.9163 -15.1328 -15.0217 -14.9529 -14.8568
   -14.7146 -14.6683 -13.6623 -13.6079 -13.4834 -13.3907  -3.0355  -2.8866
    -1.5022  -1.3529  -1.2713  -1.1891  -0.8238  -0.7192   2.2111   2.3503
     2.5214   2.6410   2.8239   3.1329   3.1336   3.3304   4.2535   4.3742

          k = 0.4810 0.2777 0.0760 (  8441 PWs)   bands (ev):

   -33.7380 -33.7321 -17.0263 -16.8503 -15.1462 -15.1169 -14.8897 -14.8105
   -14.7391 -14.6392 -13.7426 -13.5933 -13.4481 -13.3774  -3.0468  -2.8598
    -1.5451  -1.3175  -1.2082  -1.2000  -1.0199  -0.6051   2.1428   2.4185
     2.4922   2.6817   2.7470   3.1204   3.1592   3.4483   4.2216   4.4144

          k =-0.2405 0.1388 0.3800 (  8417 PWs)   bands (ev):

   -33.7381 -33.7323 -16.9851 -16.9050 -15.1184 -14.9926 -14.9328 -14.8263
   -14.7410 -14.7161 -13.6731 -13.5829 -13.4728 -13.4120  -3.0917  -3.0890
    -1.4228  -1.3472  -1.3279  -1.2169  -1.0788  -0.5835   2.4632   2.4993
     2.6205   2.6603   2.9161   3.1119   3.2156   3.5377   4.1599   4.2070

          k = 0.7215 0.6942 0.0760 (  8438 PWs)   bands (ev):

   -33.7362 -33.7339 -16.9691 -16.9249 -15.1016 -15.0573 -14.8571 -14.8445
   -14.7531 -14.7300 -13.6621 -13.6038 -13.4562 -13.4156  -3.0030  -2.9799
    -1.4147  -1.4108  -1.2955  -1.1881  -0.8486  -0.6947   2.2845   2.3367
     2.6181   2.6790   2.7968   2.9055   3.2412   3.3977   4.2818   4.3100

          k = 0.4810 0.5554 0.1520 (  8448 PWs)   bands (ev):

   -33.7361 -33.7339 -16.9957 -16.8928 -15.1340 -15.0730 -14.9250 -14.7697
   -14.7506 -14.6887 -13.7431 -13.5837 -13.4648 -13.3646  -2.9960  -2.8470
    -1.5188  -1.3726  -1.2129  -1.1968  -0.8133  -0.6786   2.1016   2.2744
     2.5138   2.6282   2.7718   2.8584   3.3181   3.3895   4.2849   4.4427

          k = 0.7215-0.4165-0.2280 (  8436 PWs)   bands (ev):

   -33.7364 -33.7337 -17.0245 -16.8604 -15.1927 -15.1056 -14.8194 -14.7754
   -14.7481 -14.6568 -13.7293 -13.7194 -13.3880 -13.3595  -3.0928  -2.8295
    -1.5389  -1.3284  -1.2127  -1.1796  -0.8421  -0.7299   2.1186   2.3527
     2.6213   2.7316   2.7390   2.9118   3.2247   3.4130   4.1799   4.4341

          k =-0.0000-0.0000 0.4560 (  8416 PWs)   bands (ev):

   -33.7374 -33.7332 -16.9530 -16.9376 -15.0356 -15.0356 -14.9362 -14.9362
   -14.6962 -14.6702 -13.6144 -13.6144 -13.4573 -13.4573  -3.2100  -3.1390
    -1.3679  -1.3679  -1.2986  -1.2986  -1.0536  -0.6341   2.5475   2.5475
     2.6268   2.6268   3.1961   3.1961   3.4296   3.4296   4.0150   4.1445

          k = 0.9620 0.5554 0.1520 (  8417 PWs)   bands (ev):

   -33.7356 -33.7348 -16.9561 -16.9368 -15.1132 -15.0145 -14.9388 -14.8322
   -14.7299 -14.6898 -13.6659 -13.5503 -13.5212 -13.4091  -3.1325  -3.0698
    -1.4039  -1.3135  -1.3037  -1.2870  -0.8669  -0.7688   2.4562   2.5144
     2.6318   2.6407   2.9533   3.1436   3.2808   3.3642   4.1486   4.2055

     highest occupied level (ev):     4.4611

!    total energy              =    -367.42767222 Ry
     Harris-Foulkes estimate   =    -367.42767222 Ry
     estimated scf accuracy    <          4.9E-10 Ry

     The total energy is the sum of the following terms:

     one-electron contribution =    -145.51461946 Ry
     hartree contribution      =     102.23181831 Ry
     xc contribution           =     -75.22628416 Ry
     ewald contribution        =    -248.91858692 Ry

     convergence has been achieved in   8 iterations

     Forces acting on atoms (cartesian axes, Ry/au):

     atom    1 type  1   force =     0.00000000    0.00000000    0.00000000
     atom    2 type  1   force =     0.00000000    0.00000000    0.00000000
     atom    3 type  2   force =     0.00000000   -0.00000000   -0.00000000
     atom    4 type  2   force =    -0.00000000   -0.00000000   -0.00000000
     atom    5 type  3   force =    -0.00088026    0.00152466    0.00000000
     atom    6 type  3   force =     0.00176053    0.00000000   -0.00000000
     atom    7 type  3   force =    -0.00088026   -0.00152466   -0.00000000
     atom    8 type  3   force =    -0.00176053   -0.00000000    0.00000000
     atom    9 type  3   force =     0.00088026    0.00152466    0.00000000
     atom   10 type  3   force =     0.00088026   -0.00152466   -0.00000000

     Total force =     0.004312     Total SCF correction =     0.000028


     Computing stress (Cartesian axis) and pressure

          total   stress  (Ry/bohr**3)                   (kbar)     P=  -10.89
  -0.00016752  -0.00000000  -0.00000000        -24.64     -0.00     -0.00
   0.00000000  -0.00016752  -0.00000000          0.00    -24.64     -0.00
  -0.00000000  -0.00000000   0.00011302         -0.00     -0.00     16.63


     number of scf cycles    =   3
     number of bfgs steps    =   2

     energy   old            =    -367.4269913660 Ry
     energy   new            =    -367.4276722199 Ry

     CASE: energy  _new < energy  _old

     new trust radius        =       0.0012805100 bohr
     new conv_thr            =       0.0000000002 Ry


ATOMIC_POSITIONS (crystal)
Ca       0.500000000   0.500000000   0.500000000
Ca       0.000000000   0.000000000   0.000000000
C        0.250000000   0.250000000   0.250000000
C        0.750000000   0.750000000   0.750000000
O        0.501084329   0.998915671   0.250000000
O        0.998915671   0.250000000   0.501084329
O        0.250000000   0.501084329   0.998915671
O        0.001084329   0.750000000   0.498915671
O        0.750000000   0.498915671   0.001084329
O        0.498915671   0.001084329   0.750000000



     Writing output data file CCOrand4.save/
     NEW-OLD atomic charge density approx. for the potential

     Check: negative core charge=   -0.000003

     total cpu time spent up to now is      221.5 secs

     Self-consistent Calculation

     iteration #  1     ecut=    70.00 Ry     beta= 0.70
     CG style diagonalization
     ethr =  1.00E-06,  avg # of iterations =  2.8

     Threshold (ethr) on eigenvalues was too large:
     Diagonalizing with lowered threshold

     CG style diagonalization
     c_bands:  1 eigenvalues not converged
     c_bands:  1 eigenvalues not converged
     ethr =  7.46E-09,  avg # of iterations =  4.4

     total cpu time spent up to now is      235.0 secs

     total energy              =    -367.42767684 Ry
     Harris-Foulkes estimate   =    -367.42768117 Ry
     estimated scf accuracy    <       0.00000586 Ry

     iteration #  2     ecut=    70.00 Ry     beta= 0.70
     CG style diagonalization
     ethr =  9.16E-09,  avg # of iterations =  4.0

     total cpu time spent up to now is      242.7 secs

     total energy              =    -367.42767853 Ry
     Harris-Foulkes estimate   =    -367.42768002 Ry
     estimated scf accuracy    <       0.00000267 Ry

     iteration #  3     ecut=    70.00 Ry     beta= 0.70
     CG style diagonalization
     ethr =  4.18E-09,  avg # of iterations =  3.6

     total cpu time spent up to now is      249.5 secs

     total energy              =    -367.42767917 Ry
     Harris-Foulkes estimate   =    -367.42767919 Ry
     estimated scf accuracy    <       0.00000005 Ry

     iteration #  4     ecut=    70.00 Ry     beta= 0.70
     CG style diagonalization
     ethr =  8.00E-11,  avg # of iterations =  4.3

     total cpu time spent up to now is      257.6 secs

     total energy              =    -367.42767921 Ry
     Harris-Foulkes estimate   =    -367.42767922 Ry
     estimated scf accuracy    <       0.00000004 Ry

     iteration #  5     ecut=    70.00 Ry     beta= 0.70
     CG style diagonalization
     ethr =  5.85E-11,  avg # of iterations =  3.5

     total cpu time spent up to now is      264.3 secs

     total energy              =    -367.42767921 Ry
     Harris-Foulkes estimate   =    -367.42767921 Ry
     estimated scf accuracy    <          2.0E-09 Ry

     iteration #  6     ecut=    70.00 Ry     beta= 0.70
     CG style diagonalization
     ethr =  3.07E-12,  avg # of iterations =  4.0

     total cpu time spent up to now is      271.9 secs

     End of self-consistent calculation

          k = 0.0000 0.0000 0.0000 (  8403 PWs)   bands (ev):

   -33.7443 -33.7308 -16.9747 -16.9245 -15.1277 -15.1277 -14.7892 -14.7892
   -14.7329 -14.6495 -13.8313 -13.8313 -13.3065 -13.3065  -3.2366  -2.9753
    -1.5971  -1.4519  -1.4519  -1.2268  -1.2268  -0.2211   2.4580   2.4580
     2.7108   2.7108   2.9666   2.9666   3.7252   3.7252   3.8941   4.3319

          k =-0.2405-0.1388 0.0760 (  8430 PWs)   bands (ev):

   -33.7429 -33.7320 -16.9984 -16.8997 -15.1242 -15.0353 -14.9134 -14.7966
   -14.7376 -14.7200 -13.7642 -13.6361 -13.4401 -13.3390  -3.1075  -3.0005
    -1.5058  -1.4047  -1.3376  -1.2500  -1.2242  -0.3749   2.4900   2.5453
     2.6471   2.6815   2.7938   2.8430   3.5453   3.5683   4.1308   4.3037

          k =-0.4810-0.2777 0.1520 (  8445 PWs)   bands (ev):

   -33.7393 -33.7352 -16.9866 -16.9130 -15.0779 -15.0206 -15.0026 -14.9106
   -14.7049 -14.6687 -13.6333 -13.5475 -13.5149 -13.4452  -2.9649  -2.9424
    -1.4978  -1.3939  -1.2295  -1.2030  -0.9643  -0.6265   2.2498   2.3348
     2.5433   2.5832   2.8937   2.9701   3.3087   3.3235   4.3049   4.3431

          k =-0.2405 0.1388 0.1520 (  8422 PWs)   bands (ev):

   -33.7426 -33.7322 -17.0050 -16.8945 -15.0908 -15.0781 -14.8414 -14.8143
   -14.7699 -14.7443 -13.6975 -13.6769 -13.4086 -13.3833  -3.0927  -3.0279
    -1.4462  -1.4085  -1.3883  -1.2312  -1.1969  -0.4069   2.4913   2.5110
     2.6222   2.6817   2.8056   2.9284   3.4349   3.6317   4.1382   4.2785

          k =-0.4810-0.0000 0.2280 (  8436 PWs)   bands (ev):

   -33.7402 -33.7343 -17.0084 -16.8923 -15.1327 -15.0490 -14.9130 -14.8423
   -14.7333 -14.6906 -13.7011 -13.5998 -13.4595 -13.3992  -3.0096  -2.9481
    -1.4617  -1.3685  -1.3264  -1.1723  -1.0140  -0.5811   2.2701   2.4416
     2.5423   2.6016   2.7847   2.9827   3.2352   3.4800   4.2756   4.3434

          k = 0.4810 0.5554-0.0760 (  8439 PWs)   bands (ev):

   -33.7376 -33.7367 -16.9717 -16.9327 -15.1024 -15.0455 -14.9700 -14.8563
   -14.7163 -14.6846 -13.6814 -13.5913 -13.4732 -13.4062  -2.9479  -2.8908
    -1.5066  -1.3836  -1.2622  -1.1657  -0.7941  -0.7164   2.1776   2.2494
     2.4882   2.5599   2.8278   2.9010   3.3219   3.3611   4.3412   4.3986

          k = 0.2405 0.4165 0.0000 (  8431 PWs)   bands (ev):

   -33.7409 -33.7336 -17.0193 -16.8755 -15.1393 -15.0592 -14.9465 -14.7952
   -14.7559 -14.6683 -13.7035 -13.6243 -13.4291 -13.4053  -3.0112  -2.9339
    -1.5183  -1.3163  -1.2707  -1.1957  -1.1215  -0.5357   2.2655   2.5143
     2.5425   2.5578   2.7249   2.9761   3.3360   3.4665   4.2768   4.3562

          k =-0.4810 0.2777 0.3040 (  8435 PWs)   bands (ev):

   -33.7399 -33.7346 -17.0519 -16.8422 -15.1892 -15.1564 -14.7872 -14.7633
   -14.7497 -14.6605 -13.7918 -13.6935 -13.3844 -13.3545  -3.0927  -2.8148
    -1.5365  -1.3445  -1.2571  -1.1190  -0.9481  -0.6667   2.0938   2.3841
     2.5522   2.7404   2.7727   2.9180   3.2013   3.4962   4.1677   4.4555

          k = 0.4810 0.8331 0.0000 (  8439 PWs)   bands (ev):

   -33.7385 -33.7358 -17.0160 -16.8891 -15.1530 -15.0938 -14.8366 -14.8221
   -14.7514 -14.6829 -13.7662 -13.6236 -13.4315 -13.3651  -3.0102  -2.8270
    -1.4766  -1.4232  -1.2867  -1.1172  -0.8053  -0.6898   2.0704   2.2751
     2.5971   2.6309   2.7613   2.7661   3.3085   3.4343   4.2633   4.4639

          k =-0.0000-0.0000 0.2280 (  8409 PWs)   bands (ev):

   -33.7430 -33.7321 -16.9714 -16.9307 -15.1044 -15.1044 -14.8364 -14.8364
   -14.7228 -14.6555 -13.7665 -13.7665 -13.3478 -13.3478  -3.2333  -3.0329
    -1.4368  -1.4285  -1.4285  -1.2467  -1.2467  -0.3313   2.4828   2.4828
     2.6882   2.6882   3.0268   3.0268   3.6397   3.6397   3.9272   4.2754

          k =-0.2405-0.1388 0.3040 (  8412 PWs)   bands (ev):

   -33.7410 -33.7338 -16.9766 -16.9275 -15.1230 -15.0029 -14.9786 -14.7641
   -14.7629 -14.6912 -13.7416 -13.5730 -13.5058 -13.3566  -3.1298  -3.0275
    -1.4150  -1.3985  -1.2883  -1.2742  -1.1416  -0.5046   2.4684   2.5591
     2.6239   2.6715   2.7834   3.0546   3.3794   3.5024   4.1302   4.2671

          k = 0.7215 0.4165 0.0000 (  8411 PWs)   bands (ev):

   -33.7377 -33.7368 -16.9799 -16.9247 -15.1345 -15.0234 -14.9548 -14.8587
   -14.7168 -14.6711 -13.6664 -13.6120 -13.4878 -13.3951  -3.0329  -2.8840
    -1.5040  -1.3552  -1.2732  -1.1910  -0.8279  -0.7240   2.2113   2.3506
     2.5214   2.6410   2.8243   3.1333   3.1341   3.3311   4.2564   4.3772

          k = 0.4810 0.2777 0.0760 (  8441 PWs)   bands (ev):

   -33.7401 -33.7343 -17.0342 -16.8589 -15.1478 -15.1186 -14.8916 -14.8125
   -14.7412 -14.6419 -13.7467 -13.5975 -13.4525 -13.3819  -3.0439  -2.8575
    -1.5470  -1.3195  -1.2100  -1.2025  -1.0238  -0.6101   2.1430   2.4187
     2.4926   2.6815   2.7475   3.1207   3.1596   3.4488   4.2247   4.4173

          k =-0.2405 0.1388 0.3800 (  8417 PWs)   bands (ev):

   -33.7403 -33.7345 -16.9932 -16.9132 -15.1201 -14.9944 -14.9349 -14.8282
   -14.7434 -14.7184 -13.6772 -13.5871 -13.4772 -13.4165  -3.0891  -3.0869
    -1.4244  -1.3488  -1.3301  -1.2185  -1.0826  -0.5887   2.4634   2.4998
     2.6204   2.6604   2.9164   3.1121   3.2159   3.5380   4.1631   4.2102

          k = 0.7215 0.6942 0.0760 (  8438 PWs)   bands (ev):

   -33.7384 -33.7361 -16.9772 -16.9331 -15.1033 -15.0592 -14.8592 -14.8468
   -14.7551 -14.7323 -13.6661 -13.6080 -13.4606 -13.4201  -3.0004  -2.9775
    -1.4166  -1.4125  -1.2979  -1.1900  -0.8527  -0.6995   2.2848   2.3370
     2.6181   2.6789   2.7972   2.9059   3.2418   3.3982   4.2848   4.3130

          k = 0.4810 0.5554 0.1520 (  8448 PWs)   bands (ev):

   -33.7383 -33.7361 -17.0036 -16.9012 -15.1357 -15.0748 -14.9270 -14.7719
   -14.7526 -14.6913 -13.7471 -13.5879 -13.4692 -13.3691  -2.9932  -2.8445
    -1.5207  -1.3747  -1.2150  -1.1990  -0.8177  -0.6832   2.1018   2.2748
     2.5139   2.6282   2.7722   2.8589   3.3185   3.3901   4.2879   4.4455

          k = 0.7215-0.4165-0.2280 (  8436 PWs)   bands (ev):

   -33.7386 -33.7358 -17.0323 -16.8690 -15.1943 -15.1073 -14.8214 -14.7773
   -14.7501 -14.6597 -13.7333 -13.7235 -13.3925 -13.3640  -3.0900  -2.8271
    -1.5405  -1.3305  -1.2152  -1.1815  -0.8465  -0.7345   2.1189   2.3533
     2.6213   2.7314   2.7393   2.9122   3.2253   3.4135   4.1829   4.4370

          k =-0.0000-0.0000 0.4560 (  8416 PWs)   bands (ev):

   -33.7396 -33.7354 -16.9613 -16.9457 -15.0373 -15.0373 -14.9380 -14.9380
   -14.6986 -14.6729 -13.6186 -13.6186 -13.4618 -13.4618  -3.2079  -3.1368
    -1.3693  -1.3693  -1.3001  -1.3001  -1.0581  -0.6393   2.5478   2.5478
     2.6268   2.6268   3.1963   3.1963   3.4298   3.4298   4.0184   4.1478

          k = 0.9620 0.5554 0.1520 (  8417 PWs)   bands (ev):

   -33.7378 -33.7370 -16.9642 -16.9451 -15.1149 -15.0163 -14.9406 -14.8341
   -14.7322 -14.6924 -13.6701 -13.5547 -13.5254 -13.4135  -3.1302  -3.0675
    -1.4054  -1.3152  -1.3054  -1.2888  -0.8713  -0.7736   2.4565   2.5146
     2.6319   2.6409   2.9535   3.1439   3.2812   3.3646   4.1517   4.2087

     highest occupied level (ev):     4.4639

!    total energy              =    -367.42767921 Ry
     Harris-Foulkes estimate   =    -367.42767921 Ry
     estimated scf accuracy    <          1.6E-10 Ry

     The total energy is the sum of the following terms:

     one-electron contribution =    -145.61154632 Ry
     hartree contribution      =     102.27942922 Ry
     xc contribution           =     -75.23113188 Ry
     ewald contribution        =    -248.86443023 Ry

     convergence has been achieved in   6 iterations

     Forces acting on atoms (cartesian axes, Ry/au):

     atom    1 type  1   force =     0.00000000    0.00000000    0.00000000
     atom    2 type  1   force =     0.00000000   -0.00000000   -0.00000000
     atom    3 type  2   force =     0.00000000    0.00000000    0.00000000
     atom    4 type  2   force =     0.00000000    0.00000000    0.00000000
     atom    5 type  3   force =    -0.00002383    0.00004128    0.00000000
     atom    6 type  3   force =     0.00004766    0.00000000   -0.00000000
     atom    7 type  3   force =    -0.00002383   -0.00004128   -0.00000000
     atom    8 type  3   force =    -0.00004766   -0.00000000    0.00000000
     atom    9 type  3   force =     0.00002383    0.00004128    0.00000000
     atom   10 type  3   force =     0.00002383   -0.00004128   -0.00000000

     Total force =     0.000117     Total SCF correction =     0.000037
     SCF correction compared to forces is large: reduce conv_thr to get better values


     Computing stress (Cartesian axis) and pressure

          total   stress  (Ry/bohr**3)                   (kbar)     P=   -9.72
  -0.00015492  -0.00000000   0.00000000        -22.79     -0.00      0.00
   0.00000000  -0.00015492  -0.00000000          0.00    -22.79     -0.00
  -0.00000000  -0.00000000   0.00011160         -0.00     -0.00     16.42


     bfgs converged in   4 scf cycles and   3 bfgs steps
     (criteria: energy <  1.0E-04 Ry, force <  1.0E-03 Ry/Bohr)

     End of BFGS Geometry Optimization

     Final energy   =    -367.4276792112 Ry
Begin final coordinates

ATOMIC_POSITIONS (crystal)
Ca       0.500000000   0.500000000   0.500000000
Ca       0.000000000   0.000000000   0.000000000
C        0.250000000   0.250000000   0.250000000
C        0.750000000   0.750000000   0.750000000
O        0.501084329   0.998915671   0.250000000
O        0.998915671   0.250000000   0.501084329
O        0.250000000   0.501084329   0.998915671
O        0.001084329   0.750000000   0.498915671
O        0.750000000   0.498915671   0.001084329
O        0.498915671   0.001084329   0.750000000
End final coordinates



     Writing output data file CCOrand4.save/
 
     init_run     :      2.91s CPU      4.12s WALL (       1 calls)
     electrons    :    234.87s CPU    263.72s WALL (       4 calls)
     update_pot   :      0.21s CPU      0.24s WALL (       3 calls)
     forces       :      0.92s CPU      1.04s WALL (       4 calls)
     stress       :      1.59s CPU      1.73s WALL (       4 calls)

     Called by init_run:
     wfcinit      :      2.42s CPU      3.16s WALL (       1 calls)
     potinit      :      0.07s CPU      0.13s WALL (       1 calls)
     hinit0       :      0.27s CPU      0.48s WALL (       1 calls)

     Called by electrons:
     c_bands      :    219.05s CPU    246.62s WALL (      33 calls)
     sum_band     :     14.76s CPU     15.62s WALL (      33 calls)
     v_of_rho     :      0.68s CPU      0.74s WALL (      36 calls)
     newd         :      0.32s CPU      0.41s WALL (      36 calls)
     mix_rho      :      0.08s CPU      0.13s WALL (      33 calls)

     Called by c_bands:
     init_us_2    :      0.35s CPU      0.41s WALL (    1425 calls)
     ccgdiagg     :    176.47s CPU    194.29s WALL (     633 calls)
     wfcrot       :     44.54s CPU     54.35s WALL (     557 calls)

     Called by sum_band:
     sum_band:bec :      0.17s CPU      0.21s WALL (     627 calls)
     addusdens    :      0.22s CPU      0.26s WALL (      33 calls)

     Called by *cgdiagg:
     h_psi        :    148.90s CPU    160.45s WALL (   68071 calls)
     s_psi        :      8.13s CPU      9.36s WALL (  135585 calls)
     cdiaghg      :     15.44s CPU     23.37s WALL (     557 calls)

     Called by h_psi:
     h_psi:pot    :    147.07s CPU    158.31s WALL (   68071 calls)
     h_psi:calbec :     17.11s CPU     18.84s WALL (   68071 calls)
     vloc_psi     :    121.78s CPU    130.51s WALL (   68071 calls)
     add_vuspsi   :      5.92s CPU      6.63s WALL (   68071 calls)
     hs_1psi      :    132.67s CPU    143.70s WALL (   67514 calls)
     s_1psi       :     16.05s CPU     18.46s WALL (   67514 calls)

     General routines
     calbec       :     25.61s CPU     29.01s WALL (  136592 calls)
     fft          :      0.82s CPU      0.93s WALL (     500 calls)
     ffts         :      0.05s CPU      0.05s WALL (      33 calls)
     fftw         :    128.33s CPU    137.04s WALL (  191500 calls)
 
     Parallel routines
     fft_scatt_xy :      6.43s CPU      6.90s WALL (  192033 calls)
     fft_scatt_yz :    101.47s CPU    108.63s WALL (  192033 calls)
 
     PWSCF        :   4m 4.38s CPU   4m37.47s WALL

 
   This run was terminated on:  14: 1:57   4May2022            

=------------------------------------------------------------------------------=
   JOB DONE.
=------------------------------------------------------------------------------=
TACC:  Shutdown complete. Exiting. 
