TACC:  Starting up job 9581714 
TACC:  Starting parallel tasks... 

     Program PHONON v.6.4.1 starts on  4May2022 at 14: 2: 4 

     This program is part of the open-source Quantum ESPRESSO suite
     for quantum simulation of materials; please cite
         "P. Giannozzi et al., J. Phys.:Condens. Matter 21 395502 (2009);
         "P. Giannozzi et al., J. Phys.:Condens. Matter 29 465901 (2017);
          URL http://www.quantum-espresso.org", 
     in publications or presentations arising from this work. More details at
     http://www.quantum-espresso.org/quote

     Parallel version (MPI & OpenMP), running on     120 processor cores
     Number of MPI processes:               120
     Threads/MPI process:                     1

     MPI processes distributed on     2 nodes
     R & G space division:  proc/nbgrp/npool/nimage =     120

     Reading data from directory:
     ./CCOrand4.save/

     IMPORTANT: XC functional enforced from input :
     Exchange-correlation      = PBE ( 1  4  3  4 0 0)
     Any further DFT definition will be discarded
     Please, verify this is what you really want

 
     Parallelization info
     --------------------
     sticks:   dense  smooth     PW     G-vecs:    dense   smooth      PW
     Min          19      19      5                  560      560      84
     Max          20      20      6                  564      564      90
     Sum        2331    2331    663                67375    67375   10379
 

     Check: negative core charge=   -0.000003

     Calculation of q =    0.0000000   0.0000000   0.0000000

     Phonons of CaCO3                                                           

     bravais-lattice index     =            5
     lattice parameter (alat)  =      11.7517  a.u.
     unit-cell volume          =     852.6732 (a.u.)^3
     number of atoms/cell      =           10
     number of atomic types    =            3
     kinetic-energy cut-off    =      70.0000  Ry
     charge density cut-off    =     280.0000  Ry
     convergence threshold     =      1.0E-16
     beta                      =       0.7000
     number of iterations used =            4
     Exchange-correlation      = PBE ( 1  4  3  4 0 0)


     celldm(1)=   11.75170  celldm(2)=    0.00000  celldm(3)=    0.00000
     celldm(4)=    0.65420  celldm(5)=    0.00000  celldm(6)=    0.00000

     crystal axes: (cart. coord. in units of alat)
               a(1) = (  0.4158 -0.2401  0.8772 )  
               a(2) = (  0.0000  0.4801  0.8772 )  
               a(3) = ( -0.4158 -0.2401  0.8772 )  

     reciprocal axes: (cart. coord. in units 2 pi/alat)
               b(1) = (  1.2025 -0.6942  0.3800 )  
               b(2) = ( -0.0000  1.3885  0.3800 )  
               b(3) = ( -1.2025 -0.6942  0.3800 )  


     Atoms inside the unit cell: 

     Cartesian axes

     site n.  atom      mass           positions (alat units)
        1     Ca  40.0780   tau(    1) = (   -0.00000   -0.00000    1.31579  )
        2     Ca  40.0780   tau(    2) = (    0.00000    0.00000    0.00000  )
        3     C   12.0107   tau(    3) = (   -0.00000   -0.00000    0.65789  )
        4     C   12.0107   tau(    4) = (    0.00000   -0.00000    1.97368  )
        5     O   15.9990   tau(    5) = (    0.10440    0.29931    1.53509  )
        6     O   15.9990   tau(    6) = (    0.20700   -0.24007    1.53509  )
        7     O   15.9990   tau(    7) = (   -0.31141   -0.05924    1.53509  )
        8     O   15.9990   tau(    8) = (   -0.20700    0.24007    1.09649  )
        9     O   15.9990   tau(    9) = (    0.31141    0.05924    1.09649  )
       10     O   15.9990   tau(   10) = (   -0.10440   -0.29931    1.09649  )

     Computing dynamical matrix for 
                    q = (   0.0000000   0.0000000   0.0000000 )
 
     13 Sym.Ops. (with q -> -q+G )


     G cutoff =  979.4893  (    561 G-vectors)     FFT grid: ( 64, 64, 64)
     number of k points=    19
                       cart. coord. in units 2pi/alat
        k(    1) = (   0.0000000   0.0000000   0.0000000), wk =   0.0160000
        k(    2) = (  -0.2404930  -0.1388487   0.0760000), wk =   0.0960000
        k(    3) = (  -0.4809861  -0.2776974   0.1520001), wk =   0.0960000
        k(    4) = (  -0.2404930   0.1388487   0.1520001), wk =   0.0960000
        k(    5) = (  -0.4809861  -0.0000000   0.2280001), wk =   0.1920000
        k(    6) = (   0.4809861   0.5553949  -0.0760000), wk =   0.1920000
        k(    7) = (   0.2404930   0.4165462   0.0000000), wk =   0.0960000
        k(    8) = (  -0.4809861   0.2776974   0.3040002), wk =   0.0960000
        k(    9) = (   0.4809861   0.8330923   0.0000000), wk =   0.0960000
        k(   10) = (  -0.0000000  -0.0000000   0.2280001), wk =   0.0320000
        k(   11) = (  -0.2404930  -0.1388487   0.3040002), wk =   0.0960000
        k(   12) = (   0.7214791   0.4165462   0.0000000), wk =   0.0960000
        k(   13) = (   0.4809861   0.2776974   0.0760000), wk =   0.0960000
        k(   14) = (  -0.2404930   0.1388487   0.3800002), wk =   0.0960000
        k(   15) = (   0.7214791   0.6942436   0.0760000), wk =   0.1920000
        k(   16) = (   0.4809861   0.5553949   0.1520001), wk =   0.1920000
        k(   17) = (   0.7214791  -0.4165462  -0.2280001), wk =   0.0960000
        k(   18) = (  -0.0000000  -0.0000000   0.4560003), wk =   0.0320000
        k(   19) = (   0.9619721   0.5553949   0.1520001), wk =   0.0960000

     PseudoPot. # 1 for Ca read from file:
     ./Ca_PBE.UPF
     MD5 check sum: 403a4c14b9e4d4dfdc3024c9a3812218
     Pseudo is Ultrasoft + core correction, Zval = 10.0
     Generated by new atomic code, or converted to UPF format
     Using radial grid of  845 points,  6 beta functions with: 
                l(1) =   0
                l(2) =   0
                l(3) =   1
                l(4) =   1
                l(5) =   2
                l(6) =   2
     Q(r) pseudized with  8 coefficients,  rinner =    1.500   1.500   1.500
                                                       1.500   1.500

     PseudoPot. # 2 for C  read from file:
     ./C_PBE.UPF
     MD5 check sum: d1aef80898a10debaa0f26306b886e00
     Pseudo is Ultrasoft + core correction, Zval =  4.0
     Generated by new atomic code, or converted to UPF format
     Using radial grid of  721 points,  4 beta functions with: 
                l(1) =   0
                l(2) =   0
                l(3) =   1
                l(4) =   1
     Q(r) pseudized with  8 coefficients,  rinner =    1.100   1.100   1.100


     PseudoPot. # 3 for O  read from file:
     ./O_PBE.UPF
     MD5 check sum: 734c27235a0248c51dbae37a1fbe46ec
     Pseudo is Ultrasoft + core correction, Zval =  6.0
     Generated by new atomic code, or converted to UPF format
     Using radial grid of  737 points,  5 beta functions with: 
                l(1) =   0
                l(2) =   0
                l(3) =   1
                l(4) =   1
                l(5) =   2
     Q(r) pseudized with  8 coefficients,  rinner =    0.900   0.900   0.900
                                                       0.900   0.900

     Mode symmetry, D_3d (-3m)  point group:


     Electric field:
     Dielectric constant
     Born effective charges as d Force / d E


     Atomic displacements:
     There are  20 irreducible representations

     Representation     1      1 modes -A_1g L_1  To be done

     Representation     2      1 modes -A_2g L_2  To be done

     Representation     3      1 modes -A_2g L_2  To be done

     Representation     4      1 modes -A_2g L_2  To be done

     Representation     5      2 modes -E_g  L_3  To be done

     Representation     6      2 modes -E_g  L_3  To be done

     Representation     7      2 modes -E_g  L_3  To be done

     Representation     8      2 modes -E_g  L_3  To be done

     Representation     9      1 modes -A_1u L_1'  To be done

     Representation    10      1 modes -A_1u L_1'  To be done

     Representation    11      1 modes -A_2u L_2'  To be done

     Representation    12      1 modes -A_2u L_2'  To be done

     Representation    13      1 modes -A_2u L_2'  To be done

     Representation    14      1 modes -A_2u L_2'  To be done

     Representation    15      2 modes -E_u  L_3'  To be done

     Representation    16      2 modes -E_u  L_3'  To be done

     Representation    17      2 modes -E_u  L_3'  To be done

     Representation    18      2 modes -E_u  L_3'  To be done

     Representation    19      2 modes -E_u  L_3'  To be done

     Representation    20      2 modes -E_u  L_3'  To be done



     Alpha used in Ewald sum =   2.5000
     PHONON       :     22.63s CPU     26.27s WALL


     Electric Fields Calculation

      iter #   1 total cpu time :   131.4 secs   av.it.:   6.3
      thresh= 1.000E-02 alpha_mix =  0.700 |ddv_scf|^2 =  8.373E-09

      iter #   2 total cpu time :   182.2 secs   av.it.:  14.9
      thresh= 9.150E-06 alpha_mix =  0.700 |ddv_scf|^2 =  8.575E-09

      iter #   3 total cpu time :   230.6 secs   av.it.:  13.9
      thresh= 9.260E-06 alpha_mix =  0.700 |ddv_scf|^2 =  8.977E-10

      iter #   4 total cpu time :   278.4 secs   av.it.:  13.9
      thresh= 2.996E-06 alpha_mix =  0.700 |ddv_scf|^2 =  1.465E-11

      iter #   5 total cpu time :   325.6 secs   av.it.:  13.3
      thresh= 3.827E-07 alpha_mix =  0.700 |ddv_scf|^2 =  1.546E-12

      iter #   6 total cpu time :   373.5 secs   av.it.:  13.9
      thresh= 1.244E-07 alpha_mix =  0.700 |ddv_scf|^2 =  5.846E-14

      iter #   7 total cpu time :   420.8 secs   av.it.:  13.7
      thresh= 2.418E-08 alpha_mix =  0.700 |ddv_scf|^2 =  9.646E-16

      iter #   8 total cpu time :   468.1 secs   av.it.:  13.7
      thresh= 3.106E-09 alpha_mix =  0.700 |ddv_scf|^2 =  6.771E-17

     End of electric fields calculation

          Dielectric constant in cartesian axis 

          (       2.969634644      -0.000000000       0.000000000 )
          (      -0.000000000       2.969634644       0.000000000 )
          (      -0.000000000       0.000000000       2.295546371 )

          Effective charges (d Force / dE) in cartesian axis

           atom      1   Ca 
      Ex  (        2.58548       -0.22261       -0.00000 )
      Ey  (        0.22261        2.58548       -0.00000 )
      Ez  (        0.00000       -0.00000        2.33642 )
           atom      2   Ca 
      Ex  (        2.58548        0.22261        0.00000 )
      Ey  (       -0.22261        2.58548       -0.00000 )
      Ez  (       -0.00000       -0.00000        2.33642 )
           atom      3   C  
      Ex  (        3.25854       -0.00000        0.00000 )
      Ey  (       -0.00000        3.25854       -0.00000 )
      Ez  (        0.00000       -0.00000        0.25006 )
           atom      4   C  
      Ex  (        3.25854       -0.00000        0.00000 )
      Ey  (       -0.00000        3.25854       -0.00000 )
      Ez  (       -0.00000       -0.00000        0.25006 )
           atom      5   O  
      Ex  (       -1.58757        0.62440       -0.18727 )
      Ey  (        0.62440       -2.30857       -0.10812 )
      Ez  (       -0.17567       -0.10142       -0.86250 )
           atom      6   O  
      Ex  (       -2.66907       -0.00000        0.00000 )
      Ey  (       -0.00000       -1.22708        0.21624 )
      Ez  (       -0.00000        0.20284       -0.86250 )
           atom      7   O  
      Ex  (       -1.58757       -0.62440        0.18727 )
      Ey  (       -0.62440       -2.30857       -0.10812 )
      Ez  (        0.17567       -0.10142       -0.86250 )
           atom      8   O  
      Ex  (       -2.66907        0.00000       -0.00000 )
      Ey  (        0.00000       -1.22708        0.21624 )
      Ez  (       -0.00000        0.20284       -0.86250 )
           atom      9   O  
      Ex  (       -1.58757       -0.62440        0.18727 )
      Ey  (       -0.62440       -2.30857       -0.10812 )
      Ez  (        0.17567       -0.10142       -0.86250 )
           atom     10   O  
      Ex  (       -1.58757        0.62440       -0.18727 )
      Ey  (        0.62440       -2.30857       -0.10812 )
      Ez  (       -0.17567       -0.10142       -0.86250 )


     Representation #  1 mode #   1

     Self-consistent Calculation

      iter #   1 total cpu time :   594.6 secs   av.it.:   5.9
      thresh= 1.000E-02 alpha_mix =  0.700 |ddv_scf|^2 =  6.297E-07

      iter #   2 total cpu time :   610.0 secs   av.it.:  12.1
      thresh= 7.935E-05 alpha_mix =  0.700 |ddv_scf|^2 =  3.494E-07

      iter #   3 total cpu time :   624.8 secs   av.it.:  11.8
      thresh= 5.911E-05 alpha_mix =  0.700 |ddv_scf|^2 =  2.834E-09

      iter #   4 total cpu time :   640.4 secs   av.it.:  12.7
      thresh= 5.323E-06 alpha_mix =  0.700 |ddv_scf|^2 =  2.741E-10

      iter #   5 total cpu time :   656.1 secs   av.it.:  12.7
      thresh= 1.656E-06 alpha_mix =  0.700 |ddv_scf|^2 =  1.906E-12

      iter #   6 total cpu time :   671.1 secs   av.it.:  11.8
      thresh= 1.381E-07 alpha_mix =  0.700 |ddv_scf|^2 =  1.133E-13

      iter #   7 total cpu time :   686.2 secs   av.it.:  11.8
      thresh= 3.366E-08 alpha_mix =  0.700 |ddv_scf|^2 =  2.783E-15

      iter #   8 total cpu time :   701.2 secs   av.it.:  11.8
      thresh= 5.275E-09 alpha_mix =  0.700 |ddv_scf|^2 =  1.356E-16

      iter #   9 total cpu time :   716.4 secs   av.it.:  11.8
      thresh= 1.164E-09 alpha_mix =  0.700 |ddv_scf|^2 =  1.002E-18

     End of self-consistent calculation

     Convergence has been achieved 


     Representation #  2 mode #   2

     Self-consistent Calculation

      iter #   1 total cpu time :   727.4 secs   av.it.:   5.8
      thresh= 1.000E-02 alpha_mix =  0.700 |ddv_scf|^2 =  2.429E-07

      iter #   2 total cpu time :   742.5 secs   av.it.:  11.8
      thresh= 4.928E-05 alpha_mix =  0.700 |ddv_scf|^2 =  4.254E-08

      iter #   3 total cpu time :   756.9 secs   av.it.:  11.1
      thresh= 2.063E-05 alpha_mix =  0.700 |ddv_scf|^2 =  5.660E-10

      iter #   4 total cpu time :   771.3 secs   av.it.:  11.1
      thresh= 2.379E-06 alpha_mix =  0.700 |ddv_scf|^2 =  2.384E-12

      iter #   5 total cpu time :   785.9 secs   av.it.:  11.6
      thresh= 1.544E-07 alpha_mix =  0.700 |ddv_scf|^2 =  1.021E-13

      iter #   6 total cpu time :   800.9 secs   av.it.:  11.8
      thresh= 3.196E-08 alpha_mix =  0.700 |ddv_scf|^2 =  5.615E-15

      iter #   7 total cpu time :   815.3 secs   av.it.:  11.2
      thresh= 7.494E-09 alpha_mix =  0.700 |ddv_scf|^2 =  2.666E-16

      iter #   8 total cpu time :   829.9 secs   av.it.:  11.4
      thresh= 1.633E-09 alpha_mix =  0.700 |ddv_scf|^2 =  1.987E-18

     End of self-consistent calculation

     Convergence has been achieved 


     Representation #  3 mode #   3

     Self-consistent Calculation

      iter #   1 total cpu time :   839.8 secs   av.it.:   4.8
      thresh= 1.000E-02 alpha_mix =  0.700 |ddv_scf|^2 =  1.109E-07

      iter #   2 total cpu time :   854.4 secs   av.it.:  11.7
      thresh= 3.330E-05 alpha_mix =  0.700 |ddv_scf|^2 =  3.415E-08

      iter #   3 total cpu time :   868.6 secs   av.it.:  10.9
      thresh= 1.848E-05 alpha_mix =  0.700 |ddv_scf|^2 =  1.740E-11

      iter #   4 total cpu time :   883.9 secs   av.it.:  11.9
      thresh= 4.172E-07 alpha_mix =  0.700 |ddv_scf|^2 =  1.316E-12

      iter #   5 total cpu time :   898.8 secs   av.it.:  11.8
      thresh= 1.147E-07 alpha_mix =  0.700 |ddv_scf|^2 =  3.465E-14

      iter #   6 total cpu time :   913.7 secs   av.it.:  11.5
      thresh= 1.861E-08 alpha_mix =  0.700 |ddv_scf|^2 =  8.366E-16

      iter #   7 total cpu time :   927.9 secs   av.it.:  10.9
      thresh= 2.892E-09 alpha_mix =  0.700 |ddv_scf|^2 =  1.717E-17

     End of self-consistent calculation

     Convergence has been achieved 


     Representation #  4 mode #   4

     Self-consistent Calculation

      iter #   1 total cpu time :   940.3 secs   av.it.:   5.9
      thresh= 1.000E-02 alpha_mix =  0.700 |ddv_scf|^2 =  1.090E-06

      iter #   2 total cpu time :   956.6 secs   av.it.:  11.7
      thresh= 1.044E-04 alpha_mix =  0.700 |ddv_scf|^2 =  3.422E-07

      iter #   3 total cpu time :   972.2 secs   av.it.:  10.9
      thresh= 5.849E-05 alpha_mix =  0.700 |ddv_scf|^2 =  1.773E-10

      iter #   4 total cpu time :   988.8 secs   av.it.:  11.8
      thresh= 1.332E-06 alpha_mix =  0.700 |ddv_scf|^2 =  8.009E-12

      iter #   5 total cpu time :  1004.1 secs   av.it.:  11.7
      thresh= 2.830E-07 alpha_mix =  0.700 |ddv_scf|^2 =  2.730E-13

      iter #   6 total cpu time :  1019.1 secs   av.it.:  10.9
      thresh= 5.225E-08 alpha_mix =  0.700 |ddv_scf|^2 =  4.680E-15

      iter #   7 total cpu time :  1033.4 secs   av.it.:  11.0
      thresh= 6.841E-09 alpha_mix =  0.700 |ddv_scf|^2 =  1.210E-16

      iter #   8 total cpu time :  1048.3 secs   av.it.:  11.4
      thresh= 1.100E-09 alpha_mix =  0.700 |ddv_scf|^2 =  4.039E-18

     End of self-consistent calculation

     Convergence has been achieved 


     Representation #  5 modes #   5  6

     Self-consistent Calculation

      iter #   1 total cpu time :  1070.1 secs   av.it.:   6.0
      thresh= 1.000E-02 alpha_mix =  0.700 |ddv_scf|^2 =  3.047E-08

      iter #   2 total cpu time :  1102.2 secs   av.it.:  13.8
      thresh= 1.746E-05 alpha_mix =  0.700 |ddv_scf|^2 =  5.231E-10

      iter #   3 total cpu time :  1136.2 secs   av.it.:  13.9
      thresh= 2.287E-06 alpha_mix =  0.700 |ddv_scf|^2 =  3.755E-10

      iter #   4 total cpu time :  1170.7 secs   av.it.:  12.8
      thresh= 1.938E-06 alpha_mix =  0.700 |ddv_scf|^2 =  2.446E-12

      iter #   5 total cpu time :  1202.1 secs   av.it.:  12.9
      thresh= 1.564E-07 alpha_mix =  0.700 |ddv_scf|^2 =  1.611E-13

      iter #   6 total cpu time :  1233.7 secs   av.it.:  13.1
      thresh= 4.013E-08 alpha_mix =  0.700 |ddv_scf|^2 =  2.711E-14

      iter #   7 total cpu time :  1264.0 secs   av.it.:  12.8
      thresh= 1.647E-08 alpha_mix =  0.700 |ddv_scf|^2 =  6.151E-16

      iter #   8 total cpu time :  1295.2 secs   av.it.:  12.9
      thresh= 2.480E-09 alpha_mix =  0.700 |ddv_scf|^2 =  3.528E-18

     End of self-consistent calculation

     Convergence has been achieved 


     Representation #  6 modes #   7  8

     Self-consistent Calculation

      iter #   1 total cpu time :  1315.0 secs   av.it.:   5.0
      thresh= 1.000E-02 alpha_mix =  0.700 |ddv_scf|^2 =  1.981E-08

      iter #   2 total cpu time :  1347.7 secs   av.it.:  13.8
      thresh= 1.407E-05 alpha_mix =  0.700 |ddv_scf|^2 =  2.918E-08

      iter #   3 total cpu time :  1378.6 secs   av.it.:  12.9
      thresh= 1.708E-05 alpha_mix =  0.700 |ddv_scf|^2 =  8.648E-10

      iter #   4 total cpu time :  1409.5 secs   av.it.:  12.8
      thresh= 2.941E-06 alpha_mix =  0.700 |ddv_scf|^2 =  8.106E-12

      iter #   5 total cpu time :  1440.0 secs   av.it.:  12.8
      thresh= 2.847E-07 alpha_mix =  0.700 |ddv_scf|^2 =  3.026E-14

      iter #   6 total cpu time :  1471.4 secs   av.it.:  13.3
      thresh= 1.739E-08 alpha_mix =  0.700 |ddv_scf|^2 =  2.395E-15

      iter #   7 total cpu time :  1502.1 secs   av.it.:  12.9
      thresh= 4.894E-09 alpha_mix =  0.700 |ddv_scf|^2 =  9.458E-18

     End of self-consistent calculation

     Convergence has been achieved 


     Representation #  7 modes #   9 10

     Self-consistent Calculation

      iter #   1 total cpu time :  1523.5 secs   av.it.:   6.0
      thresh= 1.000E-02 alpha_mix =  0.700 |ddv_scf|^2 =  6.444E-08

      iter #   2 total cpu time :  1554.6 secs   av.it.:  12.9
      thresh= 2.539E-05 alpha_mix =  0.700 |ddv_scf|^2 =  2.437E-09

      iter #   3 total cpu time :  1585.8 secs   av.it.:  13.1
      thresh= 4.936E-06 alpha_mix =  0.700 |ddv_scf|^2 =  2.241E-10

      iter #   4 total cpu time :  1616.1 secs   av.it.:  12.8
      thresh= 1.497E-06 alpha_mix =  0.700 |ddv_scf|^2 =  2.083E-12

      iter #   5 total cpu time :  1647.3 secs   av.it.:  13.1
      thresh= 1.443E-07 alpha_mix =  0.700 |ddv_scf|^2 =  1.848E-13

      iter #   6 total cpu time :  1677.4 secs   av.it.:  12.8
      thresh= 4.299E-08 alpha_mix =  0.700 |ddv_scf|^2 =  1.450E-14

      iter #   7 total cpu time :  1707.6 secs   av.it.:  12.8
      thresh= 1.204E-08 alpha_mix =  0.700 |ddv_scf|^2 =  2.438E-16

      iter #   8 total cpu time :  1738.9 secs   av.it.:  13.1
      thresh= 1.562E-09 alpha_mix =  0.700 |ddv_scf|^2 =  8.861E-18

     End of self-consistent calculation

     Convergence has been achieved 


     Representation #  8 modes #  11 12

     Self-consistent Calculation

      iter #   1 total cpu time :  1760.3 secs   av.it.:   6.0
      thresh= 1.000E-02 alpha_mix =  0.700 |ddv_scf|^2 =  3.403E-08

      iter #   2 total cpu time :  1792.2 secs   av.it.:  13.8
      thresh= 1.845E-05 alpha_mix =  0.700 |ddv_scf|^2 =  1.306E-08

      iter #   3 total cpu time :  1823.9 secs   av.it.:  13.6
      thresh= 1.143E-05 alpha_mix =  0.700 |ddv_scf|^2 =  5.025E-09

      iter #   4 total cpu time :  1854.5 secs   av.it.:  12.8
      thresh= 7.088E-06 alpha_mix =  0.700 |ddv_scf|^2 =  6.049E-12

      iter #   5 total cpu time :  1885.1 secs   av.it.:  12.9
      thresh= 2.459E-07 alpha_mix =  0.700 |ddv_scf|^2 =  1.836E-13

      iter #   6 total cpu time :  1916.2 secs   av.it.:  12.9
      thresh= 4.284E-08 alpha_mix =  0.700 |ddv_scf|^2 =  4.975E-15

      iter #   7 total cpu time :  1946.8 secs   av.it.:  12.9
      thresh= 7.053E-09 alpha_mix =  0.700 |ddv_scf|^2 =  7.738E-17

     End of self-consistent calculation

     Convergence has been achieved 


     Representation #  9 mode #  13

     Self-consistent Calculation

      iter #   1 total cpu time :  1958.2 secs   av.it.:   5.9
      thresh= 1.000E-02 alpha_mix =  0.700 |ddv_scf|^2 =  7.228E-07

      iter #   2 total cpu time :  1973.2 secs   av.it.:  11.8
      thresh= 8.502E-05 alpha_mix =  0.700 |ddv_scf|^2 =  1.943E-07

      iter #   3 total cpu time :  1988.3 secs   av.it.:  11.8
      thresh= 4.408E-05 alpha_mix =  0.700 |ddv_scf|^2 =  9.623E-09

      iter #   4 total cpu time :  2003.4 secs   av.it.:  11.8
      thresh= 9.810E-06 alpha_mix =  0.700 |ddv_scf|^2 =  8.816E-11

      iter #   5 total cpu time :  2018.7 secs   av.it.:  12.3
      thresh= 9.389E-07 alpha_mix =  0.700 |ddv_scf|^2 =  9.653E-12

      iter #   6 total cpu time :  2033.8 secs   av.it.:  12.2
      thresh= 3.107E-07 alpha_mix =  0.700 |ddv_scf|^2 =  2.428E-12

      iter #   7 total cpu time :  2048.4 secs   av.it.:  11.7
      thresh= 1.558E-07 alpha_mix =  0.700 |ddv_scf|^2 =  5.964E-14

      iter #   8 total cpu time :  2063.2 secs   av.it.:  11.8
      thresh= 2.442E-08 alpha_mix =  0.700 |ddv_scf|^2 =  4.451E-16

      iter #   9 total cpu time :  2078.8 secs   av.it.:  12.8
      thresh= 2.110E-09 alpha_mix =  0.700 |ddv_scf|^2 =  6.520E-17

     End of self-consistent calculation

     Convergence has been achieved 


     Representation # 10 mode #  14

     Self-consistent Calculation

      iter #   1 total cpu time :  2090.2 secs   av.it.:   6.0
      thresh= 1.000E-02 alpha_mix =  0.700 |ddv_scf|^2 =  9.050E-07

      iter #   2 total cpu time :  2105.5 secs   av.it.:  11.9
      thresh= 9.513E-05 alpha_mix =  0.700 |ddv_scf|^2 =  6.137E-07

      iter #   3 total cpu time :  2120.2 secs   av.it.:  11.7
      thresh= 7.834E-05 alpha_mix =  0.700 |ddv_scf|^2 =  6.529E-09

      iter #   4 total cpu time :  2135.1 secs   av.it.:  11.8
      thresh= 8.080E-06 alpha_mix =  0.700 |ddv_scf|^2 =  6.525E-11

      iter #   5 total cpu time :  2150.0 secs   av.it.:  11.8
      thresh= 8.078E-07 alpha_mix =  0.700 |ddv_scf|^2 =  1.808E-12

      iter #   6 total cpu time :  2164.9 secs   av.it.:  11.8
      thresh= 1.345E-07 alpha_mix =  0.700 |ddv_scf|^2 =  1.177E-13

      iter #   7 total cpu time :  2180.5 secs   av.it.:  12.8
      thresh= 3.431E-08 alpha_mix =  0.700 |ddv_scf|^2 =  6.835E-15

      iter #   8 total cpu time :  2195.9 secs   av.it.:  12.4
      thresh= 8.267E-09 alpha_mix =  0.700 |ddv_scf|^2 =  3.961E-16

      iter #   9 total cpu time :  2210.7 secs   av.it.:  11.8
      thresh= 1.990E-09 alpha_mix =  0.700 |ddv_scf|^2 =  3.583E-18

     End of self-consistent calculation

     Convergence has been achieved 


     Representation # 11 mode #  15

     Self-consistent Calculation

      iter #   1 total cpu time :  2221.5 secs   av.it.:   5.1
      thresh= 1.000E-02 alpha_mix =  0.700 |ddv_scf|^2 =  9.153E-08

      iter #   2 total cpu time :  2236.8 secs   av.it.:  12.3
      thresh= 3.025E-05 alpha_mix =  0.700 |ddv_scf|^2 =  9.366E-10

      iter #   3 total cpu time :  2252.1 secs   av.it.:  12.3
      thresh= 3.060E-06 alpha_mix =  0.700 |ddv_scf|^2 =  5.417E-11

      iter #   4 total cpu time :  2269.5 secs   av.it.:  11.8
      thresh= 7.360E-07 alpha_mix =  0.700 |ddv_scf|^2 =  1.535E-12

      iter #   5 total cpu time :  2285.3 secs   av.it.:  11.8
      thresh= 1.239E-07 alpha_mix =  0.700 |ddv_scf|^2 =  9.022E-14

      iter #   6 total cpu time :  2301.7 secs   av.it.:  11.5
      thresh= 3.004E-08 alpha_mix =  0.700 |ddv_scf|^2 =  7.737E-16

      iter #   7 total cpu time :  2317.4 secs   av.it.:  11.8
      thresh= 2.782E-09 alpha_mix =  0.700 |ddv_scf|^2 =  4.928E-17

     End of self-consistent calculation

     Convergence has been achieved 


     Representation # 12 mode #  16

     Self-consistent Calculation

      iter #   1 total cpu time :  2328.7 secs   av.it.:   4.0
      thresh= 1.000E-02 alpha_mix =  0.700 |ddv_scf|^2 =  1.815E-08

      iter #   2 total cpu time :  2343.5 secs   av.it.:  11.8
      thresh= 1.347E-05 alpha_mix =  0.700 |ddv_scf|^2 =  3.435E-10

      iter #   3 total cpu time :  2358.7 secs   av.it.:  12.1
      thresh= 1.853E-06 alpha_mix =  0.700 |ddv_scf|^2 =  8.578E-12

      iter #   4 total cpu time :  2373.7 secs   av.it.:  11.8
      thresh= 2.929E-07 alpha_mix =  0.700 |ddv_scf|^2 =  5.455E-13

      iter #   5 total cpu time :  2388.3 secs   av.it.:  11.7
      thresh= 7.386E-08 alpha_mix =  0.700 |ddv_scf|^2 =  2.093E-14

      iter #   6 total cpu time :  2402.6 secs   av.it.:  11.0
      thresh= 1.447E-08 alpha_mix =  0.700 |ddv_scf|^2 =  2.211E-16

      iter #   7 total cpu time :  2416.9 secs   av.it.:  11.1
      thresh= 1.487E-09 alpha_mix =  0.700 |ddv_scf|^2 =  1.198E-17

     End of self-consistent calculation

     Convergence has been achieved 


     Representation # 13 mode #  17

     Self-consistent Calculation

      iter #   1 total cpu time :  2427.9 secs   av.it.:   5.9
      thresh= 1.000E-02 alpha_mix =  0.700 |ddv_scf|^2 =  2.877E-07

      iter #   2 total cpu time :  2442.8 secs   av.it.:  11.8
      thresh= 5.364E-05 alpha_mix =  0.700 |ddv_scf|^2 =  3.542E-08

      iter #   3 total cpu time :  2457.7 secs   av.it.:  11.8
      thresh= 1.882E-05 alpha_mix =  0.700 |ddv_scf|^2 =  1.525E-10

      iter #   4 total cpu time :  2472.2 secs   av.it.:  11.7
      thresh= 1.235E-06 alpha_mix =  0.700 |ddv_scf|^2 =  1.039E-12

      iter #   5 total cpu time :  2487.1 secs   av.it.:  11.8
      thresh= 1.019E-07 alpha_mix =  0.700 |ddv_scf|^2 =  9.371E-14

      iter #   6 total cpu time :  2501.7 secs   av.it.:  11.8
      thresh= 3.061E-08 alpha_mix =  0.700 |ddv_scf|^2 =  7.981E-16

      iter #   7 total cpu time :  2516.4 secs   av.it.:  11.8
      thresh= 2.825E-09 alpha_mix =  0.700 |ddv_scf|^2 =  6.094E-17

     End of self-consistent calculation

     Convergence has been achieved 


     Representation # 14 mode #  18

     Self-consistent Calculation

      iter #   1 total cpu time :  2527.4 secs   av.it.:   5.9
      thresh= 1.000E-02 alpha_mix =  0.700 |ddv_scf|^2 =  1.502E-07

      iter #   2 total cpu time :  2542.5 secs   av.it.:  12.1
      thresh= 3.875E-05 alpha_mix =  0.700 |ddv_scf|^2 =  6.106E-09

      iter #   3 total cpu time :  2557.6 secs   av.it.:  12.0
      thresh= 7.814E-06 alpha_mix =  0.700 |ddv_scf|^2 =  7.715E-11

      iter #   4 total cpu time :  2572.4 secs   av.it.:  11.8
      thresh= 8.784E-07 alpha_mix =  0.700 |ddv_scf|^2 =  2.254E-12

      iter #   5 total cpu time :  2586.9 secs   av.it.:  11.5
      thresh= 1.501E-07 alpha_mix =  0.700 |ddv_scf|^2 =  1.062E-13

      iter #   6 total cpu time :  2601.1 secs   av.it.:  11.1
      thresh= 3.259E-08 alpha_mix =  0.700 |ddv_scf|^2 =  6.340E-16

      iter #   7 total cpu time :  2615.9 secs   av.it.:  11.8
      thresh= 2.518E-09 alpha_mix =  0.700 |ddv_scf|^2 =  2.861E-17

     End of self-consistent calculation

     Convergence has been achieved 


     Representation # 15 modes #  19 20

     Self-consistent Calculation

      iter #   1 total cpu time :  2635.1 secs   av.it.:   5.0
      thresh= 1.000E-02 alpha_mix =  0.700 |ddv_scf|^2 =  1.567E-08

      iter #   2 total cpu time :  2667.8 secs   av.it.:  13.8
      thresh= 1.252E-05 alpha_mix =  0.700 |ddv_scf|^2 =  2.464E-08

      iter #   3 total cpu time :  2698.9 secs   av.it.:  12.9
      thresh= 1.570E-05 alpha_mix =  0.700 |ddv_scf|^2 =  7.963E-10

      iter #   4 total cpu time :  2729.4 secs   av.it.:  12.8
      thresh= 2.822E-06 alpha_mix =  0.700 |ddv_scf|^2 =  2.152E-11

      iter #   5 total cpu time :  2760.5 secs   av.it.:  12.9
      thresh= 4.639E-07 alpha_mix =  0.700 |ddv_scf|^2 =  4.217E-13

      iter #   6 total cpu time :  2791.7 secs   av.it.:  12.9
      thresh= 6.494E-08 alpha_mix =  0.700 |ddv_scf|^2 =  3.350E-15

      iter #   7 total cpu time :  2821.5 secs   av.it.:  12.6
      thresh= 5.788E-09 alpha_mix =  0.700 |ddv_scf|^2 =  7.800E-16

      iter #   8 total cpu time :  2852.4 secs   av.it.:  12.9
      thresh= 2.793E-09 alpha_mix =  0.700 |ddv_scf|^2 =  1.057E-18

     End of self-consistent calculation

     Convergence has been achieved 


     Representation # 16 modes #  21 22

     Self-consistent Calculation

      iter #   1 total cpu time :  2873.7 secs   av.it.:   6.0
      thresh= 1.000E-02 alpha_mix =  0.700 |ddv_scf|^2 =  1.301E-07

      iter #   2 total cpu time :  2905.5 secs   av.it.:  13.7
      thresh= 3.607E-05 alpha_mix =  0.700 |ddv_scf|^2 =  4.744E-08

      iter #   3 total cpu time :  2937.2 secs   av.it.:  13.8
      thresh= 2.178E-05 alpha_mix =  0.700 |ddv_scf|^2 =  7.749E-09

      iter #   4 total cpu time :  2968.4 secs   av.it.:  12.9
      thresh= 8.803E-06 alpha_mix =  0.700 |ddv_scf|^2 =  2.114E-11

      iter #   5 total cpu time :  3000.0 secs   av.it.:  13.3
      thresh= 4.597E-07 alpha_mix =  0.700 |ddv_scf|^2 =  1.135E-12

      iter #   6 total cpu time :  3032.0 secs   av.it.:  13.8
      thresh= 1.066E-07 alpha_mix =  0.700 |ddv_scf|^2 =  4.627E-14

      iter #   7 total cpu time :  3062.2 secs   av.it.:  12.8
      thresh= 2.151E-08 alpha_mix =  0.700 |ddv_scf|^2 =  4.043E-15

      iter #   8 total cpu time :  3094.1 secs   av.it.:  13.8
      thresh= 6.358E-09 alpha_mix =  0.700 |ddv_scf|^2 =  1.288E-16

      iter #   9 total cpu time :  3125.5 secs   av.it.:  12.9
      thresh= 1.135E-09 alpha_mix =  0.700 |ddv_scf|^2 =  6.361E-18

     End of self-consistent calculation

     Convergence has been achieved 


     Representation # 17 modes #  23 24

     Self-consistent Calculation

      iter #   1 total cpu time :  3146.9 secs   av.it.:   6.0
      thresh= 1.000E-02 alpha_mix =  0.700 |ddv_scf|^2 =  6.091E-08

      iter #   2 total cpu time :  3178.5 secs   av.it.:  12.9
      thresh= 2.468E-05 alpha_mix =  0.700 |ddv_scf|^2 =  5.982E-09

      iter #   3 total cpu time :  3210.3 secs   av.it.:  13.3
      thresh= 7.734E-06 alpha_mix =  0.700 |ddv_scf|^2 =  7.341E-10

      iter #   4 total cpu time :  3242.2 secs   av.it.:  13.6
      thresh= 2.709E-06 alpha_mix =  0.700 |ddv_scf|^2 =  9.623E-11

      iter #   5 total cpu time :  3274.1 secs   av.it.:  13.6
      thresh= 9.810E-07 alpha_mix =  0.700 |ddv_scf|^2 =  1.434E-12

      iter #   6 total cpu time :  3306.2 secs   av.it.:  13.7
      thresh= 1.198E-07 alpha_mix =  0.700 |ddv_scf|^2 =  2.458E-14

      iter #   7 total cpu time :  3336.8 secs   av.it.:  12.8
      thresh= 1.568E-08 alpha_mix =  0.700 |ddv_scf|^2 =  1.731E-15

      iter #   8 total cpu time :  3368.6 secs   av.it.:  13.3
      thresh= 4.161E-09 alpha_mix =  0.700 |ddv_scf|^2 =  1.769E-17

     End of self-consistent calculation

     Convergence has been achieved 


     Representation # 18 modes #  25 26

     Self-consistent Calculation

      iter #   1 total cpu time :  3390.2 secs   av.it.:   6.0
      thresh= 1.000E-02 alpha_mix =  0.700 |ddv_scf|^2 =  2.882E-08

      iter #   2 total cpu time :  3422.6 secs   av.it.:  13.8
      thresh= 1.698E-05 alpha_mix =  0.700 |ddv_scf|^2 =  1.395E-08

      iter #   3 total cpu time :  3454.8 secs   av.it.:  13.8
      thresh= 1.181E-05 alpha_mix =  0.700 |ddv_scf|^2 =  4.310E-09

      iter #   4 total cpu time :  3485.8 secs   av.it.:  12.8
      thresh= 6.565E-06 alpha_mix =  0.700 |ddv_scf|^2 =  1.214E-11

      iter #   5 total cpu time :  3518.0 secs   av.it.:  13.8
      thresh= 3.484E-07 alpha_mix =  0.700 |ddv_scf|^2 =  2.467E-13

      iter #   6 total cpu time :  3550.1 secs   av.it.:  13.8
      thresh= 4.967E-08 alpha_mix =  0.700 |ddv_scf|^2 =  2.186E-14

      iter #   7 total cpu time :  3581.4 secs   av.it.:  13.1
      thresh= 1.479E-08 alpha_mix =  0.700 |ddv_scf|^2 =  1.224E-15

      iter #   8 total cpu time :  3613.6 secs   av.it.:  13.6
      thresh= 3.499E-09 alpha_mix =  0.700 |ddv_scf|^2 =  2.859E-17

     End of self-consistent calculation

     Convergence has been achieved 


     Representation # 19 modes #  27 28

     Self-consistent Calculation

      iter #   1 total cpu time :  3635.1 secs   av.it.:   6.0
      thresh= 1.000E-02 alpha_mix =  0.700 |ddv_scf|^2 =  4.829E-08

      iter #   2 total cpu time :  3666.8 secs   av.it.:  13.6
      thresh= 2.198E-05 alpha_mix =  0.700 |ddv_scf|^2 =  4.821E-09

      iter #   3 total cpu time :  3698.2 secs   av.it.:  13.3
      thresh= 6.944E-06 alpha_mix =  0.700 |ddv_scf|^2 =  4.363E-10

      iter #   4 total cpu time :  3730.1 secs   av.it.:  13.8
      thresh= 2.089E-06 alpha_mix =  0.700 |ddv_scf|^2 =  1.141E-10

      iter #   5 total cpu time :  3761.4 secs   av.it.:  13.0
      thresh= 1.068E-06 alpha_mix =  0.700 |ddv_scf|^2 =  4.831E-13

      iter #   6 total cpu time :  3793.4 secs   av.it.:  13.8
      thresh= 6.950E-08 alpha_mix =  0.700 |ddv_scf|^2 =  2.142E-14

      iter #   7 total cpu time :  3825.6 secs   av.it.:  13.8
      thresh= 1.463E-08 alpha_mix =  0.700 |ddv_scf|^2 =  1.120E-15

      iter #   8 total cpu time :  3857.7 secs   av.it.:  13.8
      thresh= 3.347E-09 alpha_mix =  0.700 |ddv_scf|^2 =  4.457E-17

     End of self-consistent calculation

     Convergence has been achieved 


     Representation # 20 modes #  29 30

     Self-consistent Calculation

      iter #   1 total cpu time :  3879.1 secs   av.it.:   6.0
      thresh= 1.000E-02 alpha_mix =  0.700 |ddv_scf|^2 =  9.302E-08

      iter #   2 total cpu time :  3912.7 secs   av.it.:  13.8
      thresh= 3.050E-05 alpha_mix =  0.700 |ddv_scf|^2 =  3.767E-08

      iter #   3 total cpu time :  3945.3 secs   av.it.:  13.8
      thresh= 1.941E-05 alpha_mix =  0.700 |ddv_scf|^2 =  8.419E-09

      iter #   4 total cpu time :  3976.9 secs   av.it.:  12.9
      thresh= 9.176E-06 alpha_mix =  0.700 |ddv_scf|^2 =  2.091E-11

      iter #   5 total cpu time :  4007.9 secs   av.it.:  12.9
      thresh= 4.572E-07 alpha_mix =  0.700 |ddv_scf|^2 =  9.452E-13

      iter #   6 total cpu time :  4039.8 secs   av.it.:  13.6
      thresh= 9.722E-08 alpha_mix =  0.700 |ddv_scf|^2 =  5.624E-14

      iter #   7 total cpu time :  4070.3 secs   av.it.:  12.8
      thresh= 2.372E-08 alpha_mix =  0.700 |ddv_scf|^2 =  4.084E-15

      iter #   8 total cpu time :  4102.1 secs   av.it.:  13.1
      thresh= 6.390E-09 alpha_mix =  0.700 |ddv_scf|^2 =  1.228E-16

      iter #   9 total cpu time :  4134.3 secs   av.it.:  13.8
      thresh= 1.108E-09 alpha_mix =  0.700 |ddv_scf|^2 =  3.300E-18

     End of self-consistent calculation

     Convergence has been achieved 
 
     Number of q in the star =    1
     List of q in the star:
          1   0.000000000   0.000000000   0.000000000

          Dielectric constant in cartesian axis 

          (       2.969634644      -0.000000000       0.000000000 )
          (      -0.000000000       2.969634644       0.000000000 )
          (      -0.000000000       0.000000000       2.295546371 )

          Effective charges (d Force / dE) in cartesian axis

           atom      1   Ca 
      Ex  (        2.58548       -0.22261       -0.00000 )
      Ey  (        0.22261        2.58548       -0.00000 )
      Ez  (        0.00000       -0.00000        2.33642 )
           atom      2   Ca 
      Ex  (        2.58548        0.22261        0.00000 )
      Ey  (       -0.22261        2.58548       -0.00000 )
      Ez  (       -0.00000       -0.00000        2.33642 )
           atom      3   C  
      Ex  (        3.25854       -0.00000        0.00000 )
      Ey  (       -0.00000        3.25854       -0.00000 )
      Ez  (        0.00000       -0.00000        0.25006 )
           atom      4   C  
      Ex  (        3.25854       -0.00000        0.00000 )
      Ey  (       -0.00000        3.25854       -0.00000 )
      Ez  (       -0.00000       -0.00000        0.25006 )
           atom      5   O  
      Ex  (       -1.58757        0.62440       -0.18727 )
      Ey  (        0.62440       -2.30857       -0.10812 )
      Ez  (       -0.17567       -0.10142       -0.86250 )
           atom      6   O  
      Ex  (       -2.66907       -0.00000        0.00000 )
      Ey  (       -0.00000       -1.22708        0.21624 )
      Ez  (       -0.00000        0.20284       -0.86250 )
           atom      7   O  
      Ex  (       -1.58757       -0.62440        0.18727 )
      Ey  (       -0.62440       -2.30857       -0.10812 )
      Ez  (        0.17567       -0.10142       -0.86250 )
           atom      8   O  
      Ex  (       -2.66907        0.00000       -0.00000 )
      Ey  (        0.00000       -1.22708        0.21624 )
      Ez  (       -0.00000        0.20284       -0.86250 )
           atom      9   O  
      Ex  (       -1.58757       -0.62440        0.18727 )
      Ey  (       -0.62440       -2.30857       -0.10812 )
      Ez  (        0.17567       -0.10142       -0.86250 )
           atom     10   O  
      Ex  (       -1.58757        0.62440       -0.18727 )
      Ey  (        0.62440       -2.30857       -0.10812 )
      Ez  (       -0.17567       -0.10142       -0.86250 )

     Diagonalizing the dynamical matrix

     q = (    0.000000000   0.000000000   0.000000000 ) 

 **************************************************************************
     freq (    1) =       0.219783 [THz] =       7.331166 [cm-1]
     freq (    2) =       0.248792 [THz] =       8.298822 [cm-1]
     freq (    3) =       0.248792 [THz] =       8.298822 [cm-1]
     freq (    4) =       3.301938 [THz] =     110.140782 [cm-1]
     freq (    5) =       4.058047 [THz] =     135.361870 [cm-1]
     freq (    6) =       4.058047 [THz] =     135.361870 [cm-1]
     freq (    7) =       4.882348 [THz] =     162.857602 [cm-1]
     freq (    8) =       4.882348 [THz] =     162.857602 [cm-1]
     freq (    9) =       5.823084 [THz] =     194.237165 [cm-1]
     freq (   10) =       6.137618 [THz] =     204.728890 [cm-1]
     freq (   11) =       6.137618 [THz] =     204.728890 [cm-1]
     freq (   12) =       7.669876 [THz] =     255.839515 [cm-1]
     freq (   13) =       7.755036 [THz] =     258.680165 [cm-1]
     freq (   14) =       7.755036 [THz] =     258.680165 [cm-1]
     freq (   15) =       7.757226 [THz] =     258.753197 [cm-1]
     freq (   16) =       8.058830 [THz] =     268.813640 [cm-1]
     freq (   17) =       8.058830 [THz] =     268.813640 [cm-1]
     freq (   18) =       8.722770 [THz] =     290.960292 [cm-1]
     freq (   19) =      20.367694 [THz] =     679.393148 [cm-1]
     freq (   20) =      20.367694 [THz] =     679.393148 [cm-1]
     freq (   21) =      20.386318 [THz] =     680.014364 [cm-1]
     freq (   22) =      20.386318 [THz] =     680.014364 [cm-1]
     freq (   23) =      24.786837 [THz] =     826.799899 [cm-1]
     freq (   24) =      24.881702 [THz] =     829.964225 [cm-1]
     freq (   25) =      31.632229 [THz] =    1055.137582 [cm-1]
     freq (   26) =      31.655778 [THz] =    1055.923096 [cm-1]
     freq (   27) =      40.814962 [THz] =    1361.440589 [cm-1]
     freq (   28) =      40.814962 [THz] =    1361.440589 [cm-1]
     freq (   29) =      41.856294 [THz] =    1396.175670 [cm-1]
     freq (   30) =      41.856294 [THz] =    1396.175670 [cm-1]
 **************************************************************************

     Mode symmetry, D_3d (-3m)  point group:

     freq (  1 -  1) =          7.3  [cm-1]   --> A_2u L_2'       I  
     freq (  2 -  3) =          8.3  [cm-1]   --> E_u  L_3'       I  
     freq (  4 -  4) =        110.1  [cm-1]   --> A_2u L_2'       I  
     freq (  5 -  6) =        135.4  [cm-1]   --> E_u  L_3'       I  
     freq (  7 -  8) =        162.9  [cm-1]   --> E_g  L_3        R  
     freq (  9 -  9) =        194.2  [cm-1]   --> A_2g L_2           
     freq ( 10 - 11) =        204.7  [cm-1]   --> E_u  L_3'       I  
     freq ( 12 - 12) =        255.8  [cm-1]   --> A_1u L_1'          
     freq ( 13 - 14) =        258.7  [cm-1]   --> E_u  L_3'       I  
     freq ( 15 - 15) =        258.8  [cm-1]   --> A_2u L_2'       I  
     freq ( 16 - 17) =        268.8  [cm-1]   --> E_g  L_3        R  
     freq ( 18 - 18) =        291.0  [cm-1]   --> A_2g L_2           
     freq ( 19 - 20) =        679.4  [cm-1]   --> E_g  L_3        R  
     freq ( 21 - 22) =        680.0  [cm-1]   --> E_u  L_3'       I  
     freq ( 23 - 23) =        826.8  [cm-1]   --> A_2u L_2'       I  
     freq ( 24 - 24) =        830.0  [cm-1]   --> A_2g L_2           
     freq ( 25 - 25) =       1055.1  [cm-1]   --> A_1u L_1'          
     freq ( 26 - 26) =       1055.9  [cm-1]   --> A_1g L_1        R  
     freq ( 27 - 28) =       1361.4  [cm-1]   --> E_u  L_3'       I  
     freq ( 29 - 30) =       1396.2  [cm-1]   --> E_g  L_3        R  
 
     PHONON       :      1h 5m CPU      1h 8m WALL

     INITIALIZATION: 
     phq_setup    :      0.12s CPU      0.18s WALL (       1 calls)
     phq_init     :     18.61s CPU     19.71s WALL (       1 calls)
 
     phq_init     :     18.61s CPU     19.71s WALL (       1 calls)
     set_drhoc    :      0.06s CPU      0.07s WALL (       3 calls)
     init_vloc    :      0.01s CPU      0.02s WALL (       1 calls)
     init_us_1    :      0.11s CPU      0.23s WALL (       1 calls)
     newd         :      0.03s CPU      0.13s WALL (       1 calls)
     dvanqq       :      0.27s CPU      0.29s WALL (       1 calls)
     drho         :     17.58s CPU     18.51s WALL (       1 calls)
     cmpt_qdipol  :      0.00s CPU      0.00s WALL (       1 calls)
 
     DIELECTRIC CONSTANT AND EFFECTIVE CHARGES:
     solve_e      :    418.37s CPU    441.89s WALL (       1 calls)
     dielec       :      0.01s CPU      0.04s WALL (       1 calls)
     zstar_eu     :    112.27s CPU    115.55s WALL (       1 calls)
 
     DYNAMICAL MATRIX:
     dynmat0      :      0.65s CPU      0.74s WALL (       1 calls)
     phqscf       :   3361.53s CPU   3551.35s WALL (       1 calls)
     dynmatrix    :      0.05s CPU      0.18s WALL (       1 calls)
 
     phqscf       :   3361.53s CPU   3551.35s WALL (       1 calls)
     solve_linter :   3356.93s CPU   3544.65s WALL (      20 calls)
     drhodv       :      4.36s CPU      4.56s WALL (      20 calls)
 
     dynmat0      :      0.65s CPU      0.74s WALL (       1 calls)
     dynmat_us    :      0.57s CPU      0.60s WALL (       1 calls)
     d2ionq       :      0.01s CPU      0.02s WALL (       1 calls)
     dynmatcc     :      0.06s CPU      0.07s WALL (       1 calls)
 
     dynmat_us    :      0.57s CPU      0.60s WALL (       1 calls)
     addusdynmat  :      0.00s CPU      0.01s WALL (       1 calls)
 
     phqscf       :   3361.53s CPU   3551.35s WALL (       1 calls)
     solve_linter :   3356.93s CPU   3544.65s WALL (      20 calls)
 
     solve_linter :   3356.93s CPU   3544.65s WALL (      20 calls)
     dvqpsi_us    :    133.18s CPU    135.71s WALL (    1140 calls)
     ortho        :     15.84s CPU     19.29s WALL (    5035 calls)
     cgsolve      :   3009.15s CPU   3168.59s WALL (    5035 calls)
     incdrhoscf   :    234.43s CPU    246.72s WALL (    5035 calls)
     addusddens   :      3.78s CPU      3.85s WALL (     178 calls)
     vpsifft      :    171.94s CPU    182.09s WALL (    3952 calls)
     dv_of_drho   :      5.08s CPU      5.31s WALL (     265 calls)
     mix_pot      :      0.87s CPU      3.74s WALL (     166 calls)
     psymdvscf    :    214.38s CPU    214.63s WALL (     158 calls)
     newdq        :      5.12s CPU      5.19s WALL (     166 calls)
     adddvscf     :      6.78s CPU      6.96s WALL (    4351 calls)
     drhodvus     :      0.18s CPU      0.33s WALL (      20 calls)
 
     dvqpsi_us    :    133.18s CPU    135.71s WALL (    1140 calls)
     dvqpsi_us_on :     78.46s CPU     78.48s WALL (    1140 calls)
 
     cgsolve      :   3009.15s CPU   3168.59s WALL (    5035 calls)
     ch_psi       :   2973.30s CPU   3128.76s WALL (   87400 calls)
 
     ch_psi       :   2973.30s CPU   3128.76s WALL (   87400 calls)
     h_psi        :   2781.28s CPU   2924.08s WALL (   87400 calls)
     last         :    151.85s CPU    162.31s WALL (   87400 calls)
 
     h_psi        :   2781.28s CPU   2924.08s WALL (   87400 calls)
     add_vuspsi   :     33.54s CPU     35.73s WALL (   87400 calls)
 
     incdrhoscf   :    234.43s CPU    246.72s WALL (    5035 calls)
     addusdbec    :      5.30s CPU      5.80s WALL (    5605 calls)
 
     drhodvus     :      0.18s CPU      0.33s WALL (      20 calls)
 
      General routines
     calbec       :    148.27s CPU    160.52s WALL (  201704 calls)
     fft          :     12.78s CPU     13.26s WALL (    5716 calls)
     ffts         :      5.59s CPU      5.74s WALL (    1770 calls)
     fftw         :   3007.60s CPU   3161.18s WALL ( 4763884 calls)
     davcio       :      2.94s CPU      5.06s WALL (   25831 calls)
     write_rec    :      0.77s CPU     16.56s WALL (     186 calls)
 
 
     PHONON       :      1h 5m CPU      1h 8m WALL

 
   This run was terminated on:  15:11: 0   4May2022            

=------------------------------------------------------------------------------=
   JOB DONE.
=------------------------------------------------------------------------------=
TACC:  Shutdown complete. Exiting. 
