[Molden Format]
[FREQ]
    7.33
    8.30
    8.30
  110.14
  135.36
  146.04
  162.86
  162.86
  194.24
  204.73
  214.48
  255.84
  258.68
  258.75
  268.81
  268.81
  290.96
  361.52
  679.39
  679.39
  680.01
  681.04
  826.80
  829.96
 1055.14
 1055.92
 1361.44
 1396.18
 1396.18
 1506.83
[FR-COORD]
   Ca          0.00000        0.00000       15.46275
   Ca          0.00000        0.00000        0.00000
   C           0.00000        0.00000        7.73138
   C           0.00000        0.00000       23.19413
   O           1.22692        3.51735       18.03988
   O           2.43265       -2.82122       18.03988
   O          -3.65958       -0.69613       18.03988
   O          -2.43265        2.82122       12.88563
   O           3.65958        0.69613       12.88563
   O          -1.22692       -3.51735       12.88563
[FR-NORM-COORD]
 vibration     1
  -0.00000   0.00000   0.31649
   0.00000   0.00000   0.31649
   0.00000   0.00000   0.31618
   0.00000   0.00000   0.31618
   0.00027   0.00016   0.31616
   0.00000  -0.00031   0.31616
  -0.00027   0.00016   0.31616
   0.00000  -0.00031   0.31616
  -0.00027   0.00016   0.31616
   0.00027   0.00016   0.31616
 vibration     2
  -0.00010  -0.31686   0.00000
   0.00010  -0.31686   0.00000
   0.00000  -0.31616   0.00000
   0.00000  -0.31616   0.00000
   0.00011  -0.31610  -0.00066
   0.00000  -0.31591   0.00131
  -0.00011  -0.31610  -0.00066
   0.00000  -0.31591   0.00131
  -0.00011  -0.31610  -0.00066
   0.00011  -0.31610  -0.00066
 vibration     3
  -0.31654   0.00010  -0.00000
  -0.31654  -0.00010   0.00000
  -0.31619  -0.00000   0.00000
  -0.31619  -0.00000   0.00000
  -0.31608   0.00010  -0.00098
  -0.31625  -0.00000   0.00000
  -0.31608  -0.00010   0.00098
  -0.31625  -0.00000   0.00000
  -0.31608  -0.00010   0.00098
  -0.31608   0.00010  -0.00098
 vibration     4
  -0.00000   0.00000   0.21731
   0.00000   0.00000   0.21731
  -0.00000  -0.00000  -0.12166
   0.00000  -0.00000  -0.12166
   0.30376   0.17537  -0.15155
  -0.00000  -0.35075  -0.15155
  -0.30376   0.17537  -0.15155
   0.00000  -0.35075  -0.15155
  -0.30376   0.17537  -0.15155
   0.30376   0.17537  -0.15155
 vibration     5
   0.18272  -0.17438   0.00000
  -0.18272  -0.17438   0.00000
   0.00000   0.09611  -0.00000
   0.00000   0.09611  -0.00000
   0.01975   0.11154  -0.25168
   0.00000   0.14574   0.50336
  -0.01975   0.11154  -0.25168
   0.00000   0.14574   0.50336
  -0.01975   0.11154  -0.25168
   0.01975   0.11154  -0.25168
 vibration     6
  -0.09845  -0.24379   0.00000
  -0.09845   0.24379  -0.00000
   0.06205  -0.00000   0.00000
   0.06205   0.00000  -0.00000
   0.07851   0.01878  -0.45380
   0.04598  -0.00000  -0.00000
   0.07851  -0.01878   0.45380
   0.04598  -0.00000  -0.00000
   0.07851  -0.01878   0.45380
   0.07851   0.01878  -0.45380
 vibration     7
   0.00000   0.00000   0.00000
   0.00000  -0.00000   0.00000
  -0.00000  -0.32774   0.00000
   0.00000   0.32774  -0.00000
  -0.00369  -0.34571   0.07017
  -0.00000  -0.35211  -0.14035
   0.00369  -0.34571   0.07017
   0.00000   0.35211   0.14035
  -0.00369   0.34571  -0.07017
   0.00369   0.34571  -0.07017
 vibration     8
  -0.00000  -0.00000  -0.00000
   0.00000  -0.00000  -0.00000
  -0.32774   0.00000   0.00000
   0.32774  -0.00000  -0.00000
  -0.34998  -0.00369   0.12154
  -0.34358   0.00000   0.00000
  -0.34998   0.00369  -0.12154
   0.34358  -0.00000  -0.00000
   0.34998  -0.00369   0.12154
   0.34998   0.00369  -0.12154
 vibration     9
  -0.00000  -0.00000   0.00000
   0.00000  -0.00000   0.00000
   0.00000   0.00000   0.19939
  -0.00000  -0.00000  -0.19939
  -0.28751  -0.16599   0.20784
   0.00000   0.33199   0.20784
   0.28751  -0.16599   0.20784
  -0.00000  -0.33199  -0.20784
  -0.28751   0.16599  -0.20784
   0.28751   0.16599  -0.20784
 vibration    10
   0.59782   0.17710   0.00000
  -0.59782   0.17710   0.00000
  -0.00000  -0.06848  -0.00000
   0.00000  -0.06848  -0.00000
  -0.02415  -0.11774   0.09328
  -0.00000  -0.15956  -0.18656
   0.02415  -0.11774   0.09328
   0.00000  -0.15956  -0.18656
   0.02415  -0.11774   0.09328
  -0.02415  -0.11774   0.09328
 vibration    11
  -0.03750   0.52177   0.00000
  -0.03750  -0.52177  -0.00000
  -0.00502   0.00000   0.00000
  -0.00502  -0.00000  -0.00000
   0.05081   0.03007  -0.33117
  -0.00127   0.00000  -0.00000
   0.05081  -0.03007   0.33117
  -0.00127  -0.00000   0.00000
   0.05081  -0.03007   0.33117
   0.05081   0.03007  -0.33117
 vibration    12
  -0.00000   0.00000  -0.70571
  -0.00000  -0.00000   0.70571
   0.00000  -0.00000   0.00000
   0.00000  -0.00000   0.00000
   0.01282  -0.02220  -0.00000
  -0.02564  -0.00000   0.00000
   0.01282   0.02220   0.00000
  -0.02564  -0.00000   0.00000
   0.01282   0.02220   0.00000
   0.01282  -0.02220  -0.00000
 vibration    13
  -0.09080   0.32298  -0.00001
   0.09080   0.32298  -0.00001
   0.00000  -0.20543   0.00001
  -0.00000  -0.20543   0.00001
   0.01548  -0.22710  -0.18324
   0.00000  -0.20032   0.36650
  -0.01548  -0.22710  -0.18324
  -0.00000  -0.20032   0.36650
  -0.01548  -0.22710  -0.18324
   0.01548  -0.22710  -0.18324
 vibration    14
   0.00000  -0.00001  -0.31476
  -0.00000  -0.00001  -0.31476
  -0.00000   0.00001   0.23403
   0.00000   0.00001   0.23403
   0.23504   0.13571   0.20427
  -0.00000  -0.27140   0.20425
  -0.23504   0.13571   0.20427
   0.00000  -0.27140   0.20425
  -0.23504   0.13571   0.20427
   0.23504   0.13571   0.20427
 vibration    15
   0.00000  -0.00000  -0.00000
   0.00000   0.00000  -0.00000
   0.09762  -0.00000   0.00000
  -0.09762   0.00000  -0.00000
   0.08310  -0.01121   0.48265
   0.10252  -0.00000   0.00000
   0.08310   0.01121  -0.48265
  -0.10252   0.00000  -0.00000
  -0.08310  -0.01121   0.48265
  -0.08310   0.01121  -0.48265
 vibration    16
   0.00000  -0.00000   0.00000
  -0.00000   0.00000   0.00000
   0.00000   0.09762   0.00000
  -0.00000  -0.09762  -0.00000
  -0.01121   0.09605   0.27866
   0.00000   0.07663  -0.55731
   0.01121   0.09605   0.27866
  -0.00000  -0.07663   0.55731
  -0.01121  -0.09605  -0.27866
   0.01121  -0.09605  -0.27866
 vibration    17
   0.00000  -0.00000  -0.00000
  -0.00000   0.00000  -0.00000
  -0.00000  -0.00000   0.32574
   0.00000   0.00000  -0.32574
   0.19588   0.11309   0.28309
  -0.00000  -0.22618   0.28309
  -0.19588   0.11309   0.28309
   0.00000   0.22618  -0.28309
   0.19588  -0.11309  -0.28309
  -0.19588  -0.11309  -0.28309
 vibration    18
  -0.39711   0.03331   0.00000
  -0.39711  -0.03331  -0.00000
   0.31582   0.00000   0.00000
   0.31582  -0.00000  -0.00000
   0.25077  -0.00327   0.15794
   0.25644  -0.00000   0.00000
   0.25077   0.00327  -0.15794
   0.25644   0.00000   0.00000
   0.25077   0.00327  -0.15794
   0.25077  -0.00327   0.15794
 vibration    19
  -0.00000  -0.00000   0.00000
   0.00000  -0.00000   0.00000
   0.22166   0.00000   0.00000
  -0.22166  -0.00000   0.00000
  -0.24368  -0.33249  -0.01788
   0.33221  -0.00000   0.00000
  -0.24368   0.33249   0.01788
  -0.33221   0.00000  -0.00000
   0.24368  -0.33249  -0.01788
   0.24368   0.33249   0.01788
 vibration    20
  -0.00000  -0.00000   0.00000
   0.00000  -0.00000  -0.00000
  -0.00000   0.22166   0.00000
   0.00000  -0.22166  -0.00000
  -0.33249   0.14025  -0.01032
  -0.00000  -0.43565   0.02065
   0.33249   0.14025  -0.01032
   0.00000   0.43565  -0.02065
  -0.33249  -0.14025   0.01032
   0.33249  -0.14025   0.01032
 vibration    21
  -0.01670  -0.00712   0.00000
   0.01670  -0.00712   0.00000
  -0.00000   0.22837  -0.00000
   0.00000   0.22837  -0.00000
  -0.33044   0.13952  -0.02190
  -0.00000  -0.43282   0.04379
   0.33044   0.13952  -0.02190
   0.00000  -0.43282   0.04379
   0.33044   0.13952  -0.02190
  -0.33044   0.13952  -0.02190
 vibration    22
  -0.00190  -0.01541  -0.00000
  -0.00190   0.01541   0.00000
  -0.21211  -0.00000   0.00000
  -0.21211  -0.00000  -0.00000
   0.24678   0.33265   0.03977
  -0.32938   0.00000  -0.00000
   0.24678  -0.33265  -0.03977
  -0.32938   0.00000  -0.00000
   0.24678  -0.33265  -0.03977
   0.24678   0.33265   0.03977
 vibration    23
  -0.00000   0.00000   0.00160
   0.00000   0.00000   0.00160
  -0.00000   0.00000   0.64749
   0.00000   0.00000   0.64749
  -0.01317  -0.00761  -0.16336
   0.00000   0.01521  -0.16336
   0.01317  -0.00761  -0.16336
   0.00000   0.01521  -0.16336
   0.01317  -0.00761  -0.16336
  -0.01317  -0.00761  -0.16336
 vibration    24
   0.00000  -0.00000  -0.00000
   0.00000  -0.00000  -0.00000
   0.00000  -0.00000   0.63937
   0.00000   0.00000  -0.63937
  -0.01107  -0.00639  -0.17389
  -0.00000   0.01278  -0.17389
   0.01107  -0.00639  -0.17389
   0.00000  -0.01278   0.17389
  -0.01107   0.00639   0.17389
   0.01107   0.00639   0.17389
 vibration    25
  -0.00000   0.00000  -0.01776
  -0.00000  -0.00000   0.01776
  -0.00000  -0.00000  -0.00000
  -0.00000   0.00000  -0.00000
  -0.20406   0.35344   0.00000
   0.40812   0.00000   0.00000
  -0.20406  -0.35344  -0.00000
   0.40812   0.00000  -0.00000
  -0.20406  -0.35344  -0.00000
  -0.20406   0.35344   0.00000
 vibration    26
   0.00000  -0.00000  -0.00000
  -0.00000   0.00000   0.00000
   0.00000  -0.00000   0.00000
  -0.00000  -0.00000  -0.00000
  -0.20412   0.35355  -0.00000
   0.40825  -0.00000  -0.00000
  -0.20412  -0.35355   0.00000
  -0.40825   0.00000   0.00000
   0.20412   0.35355  -0.00000
   0.20412  -0.35355   0.00000
 vibration    27
  -0.00790  -0.01058  -0.00000
   0.00790  -0.01058  -0.00000
  -0.00000   0.62809   0.00000
   0.00000   0.62809   0.00000
   0.09916  -0.20557  -0.00037
   0.00000  -0.03383   0.00073
  -0.09916  -0.20557  -0.00037
  -0.00000  -0.03383   0.00073
  -0.09916  -0.20557  -0.00037
   0.09916  -0.20557  -0.00037
 vibration    28
   0.00000  -0.00000   0.00000
   0.00000  -0.00000  -0.00000
   0.62886  -0.00000  -0.00000
  -0.62886   0.00000   0.00000
  -0.09444   0.09622  -0.00152
  -0.26110   0.00000  -0.00000
  -0.09444  -0.09622   0.00152
   0.26110  -0.00000   0.00000
   0.09444   0.09622  -0.00152
   0.09444  -0.09622   0.00152
 vibration    29
   0.00000  -0.00000  -0.00000
   0.00000   0.00000  -0.00000
  -0.00000  -0.62886  -0.00000
   0.00000   0.62886   0.00000
  -0.09622   0.20554   0.00088
   0.00000   0.03888  -0.00176
   0.09622   0.20554   0.00088
  -0.00000  -0.03888   0.00176
  -0.09622  -0.20554  -0.00088
   0.09622  -0.20554  -0.00088
 vibration    30
  -0.01635  -0.00435   0.00000
  -0.01635   0.00435  -0.00000
  -0.61581  -0.00000   0.00000
  -0.61581  -0.00000  -0.00000
   0.11295  -0.09490   0.00543
   0.27732  -0.00000   0.00000
   0.11295   0.09490  -0.00543
   0.27732  -0.00000   0.00000
   0.11295   0.09490  -0.00543
   0.11295  -0.09490   0.00543
