ANIMSTEPS   30
CRYSTAL
PRIMVEC
    2.585826166   -1.492927433    5.455024866
    0.000000000    2.985854866    5.455024866
   -2.585826166   -1.492927433    5.455024866
PRIMCOORD    1
     10   1
   Ca     0.00000   0.00000   8.18254  -0.00000   0.00000   0.03165
   Ca     0.00000   0.00000   0.00000   0.00000   0.00000   0.03165
   C      0.00000   0.00000   4.09127   0.00000   0.00000   0.03162
   C      0.00000   0.00000  12.27381   0.00000   0.00000   0.03162
   O      0.64926   1.86130   9.54629   0.00003   0.00002   0.03162
   O      1.28731  -1.49293   9.54629   0.00000  -0.00003   0.03162
   O     -1.93657  -0.36838   9.54629  -0.00003   0.00002   0.03162
   O     -1.28731   1.49293   6.81878   0.00000  -0.00003   0.03162
   O      1.93657   0.36838   6.81878  -0.00003   0.00002   0.03162
   O     -0.64926  -1.86130   6.81878   0.00003   0.00002   0.03162
PRIMCOORD    2
     10   1
   Ca     0.00000   0.00000   8.18254  -0.00001  -0.03169   0.00000
   Ca     0.00000   0.00000   0.00000   0.00001  -0.03169   0.00000
   C      0.00000   0.00000   4.09127   0.00000  -0.03162   0.00000
   C      0.00000   0.00000  12.27381   0.00000  -0.03162   0.00000
   O      0.64926   1.86130   9.54629   0.00001  -0.03161  -0.00007
   O      1.28731  -1.49293   9.54629   0.00000  -0.03159   0.00013
   O     -1.93657  -0.36838   9.54629  -0.00001  -0.03161  -0.00007
   O     -1.28731   1.49293   6.81878   0.00000  -0.03159   0.00013
   O      1.93657   0.36838   6.81878  -0.00001  -0.03161  -0.00007
   O     -0.64926  -1.86130   6.81878   0.00001  -0.03161  -0.00007
PRIMCOORD    3
     10   1
   Ca     0.00000   0.00000   8.18254  -0.03165   0.00001  -0.00000
   Ca     0.00000   0.00000   0.00000  -0.03165  -0.00001   0.00000
   C      0.00000   0.00000   4.09127  -0.03162  -0.00000   0.00000
   C      0.00000   0.00000  12.27381  -0.03162  -0.00000   0.00000
   O      0.64926   1.86130   9.54629  -0.03161   0.00001  -0.00010
   O      1.28731  -1.49293   9.54629  -0.03162  -0.00000   0.00000
   O     -1.93657  -0.36838   9.54629  -0.03161  -0.00001   0.00010
   O     -1.28731   1.49293   6.81878  -0.03162  -0.00000   0.00000
   O      1.93657   0.36838   6.81878  -0.03161  -0.00001   0.00010
   O     -0.64926  -1.86130   6.81878  -0.03161   0.00001  -0.00010
PRIMCOORD    4
     10   1
   Ca     0.00000   0.00000   8.18254  -0.00000   0.00000   0.02173
   Ca     0.00000   0.00000   0.00000   0.00000   0.00000   0.02173
   C      0.00000   0.00000   4.09127  -0.00000  -0.00000  -0.01217
   C      0.00000   0.00000  12.27381   0.00000  -0.00000  -0.01217
   O      0.64926   1.86130   9.54629   0.03038   0.01754  -0.01515
   O      1.28731  -1.49293   9.54629  -0.00000  -0.03507  -0.01515
   O     -1.93657  -0.36838   9.54629  -0.03038   0.01754  -0.01515
   O     -1.28731   1.49293   6.81878   0.00000  -0.03507  -0.01515
   O      1.93657   0.36838   6.81878  -0.03038   0.01754  -0.01515
   O     -0.64926  -1.86130   6.81878   0.03038   0.01754  -0.01515
PRIMCOORD    5
     10   1
   Ca     0.00000   0.00000   8.18254   0.01827  -0.01744   0.00000
   Ca     0.00000   0.00000   0.00000  -0.01827  -0.01744   0.00000
   C      0.00000   0.00000   4.09127   0.00000   0.00961  -0.00000
   C      0.00000   0.00000  12.27381   0.00000   0.00961  -0.00000
   O      0.64926   1.86130   9.54629   0.00197   0.01115  -0.02517
   O      1.28731  -1.49293   9.54629   0.00000   0.01457   0.05034
   O     -1.93657  -0.36838   9.54629  -0.00197   0.01115  -0.02517
   O     -1.28731   1.49293   6.81878   0.00000   0.01457   0.05034
   O      1.93657   0.36838   6.81878  -0.00197   0.01115  -0.02517
   O     -0.64926  -1.86130   6.81878   0.00197   0.01115  -0.02517
PRIMCOORD    6
     10   1
   Ca     0.00000   0.00000   8.18254  -0.00985  -0.02438   0.00000
   Ca     0.00000   0.00000   0.00000  -0.00985   0.02438  -0.00000
   C      0.00000   0.00000   4.09127   0.00620  -0.00000   0.00000
   C      0.00000   0.00000  12.27381   0.00620   0.00000  -0.00000
   O      0.64926   1.86130   9.54629   0.00785   0.00188  -0.04538
   O      1.28731  -1.49293   9.54629   0.00460  -0.00000  -0.00000
   O     -1.93657  -0.36838   9.54629   0.00785  -0.00188   0.04538
   O     -1.28731   1.49293   6.81878   0.00460  -0.00000  -0.00000
   O      1.93657   0.36838   6.81878   0.00785  -0.00188   0.04538
   O     -0.64926  -1.86130   6.81878   0.00785   0.00188  -0.04538
PRIMCOORD    7
     10   1
   Ca     0.00000   0.00000   8.18254   0.00000   0.00000   0.00000
   Ca     0.00000   0.00000   0.00000   0.00000  -0.00000   0.00000
   C      0.00000   0.00000   4.09127  -0.00000  -0.03277   0.00000
   C      0.00000   0.00000  12.27381   0.00000   0.03277  -0.00000
   O      0.64926   1.86130   9.54629  -0.00037  -0.03457   0.00702
   O      1.28731  -1.49293   9.54629  -0.00000  -0.03521  -0.01403
   O     -1.93657  -0.36838   9.54629   0.00037  -0.03457   0.00702
   O     -1.28731   1.49293   6.81878   0.00000   0.03521   0.01403
   O      1.93657   0.36838   6.81878  -0.00037   0.03457  -0.00702
   O     -0.64926  -1.86130   6.81878   0.00037   0.03457  -0.00702
PRIMCOORD    8
     10   1
   Ca     0.00000   0.00000   8.18254  -0.00000  -0.00000  -0.00000
   Ca     0.00000   0.00000   0.00000   0.00000  -0.00000  -0.00000
   C      0.00000   0.00000   4.09127  -0.03277   0.00000   0.00000
   C      0.00000   0.00000  12.27381   0.03277  -0.00000  -0.00000
   O      0.64926   1.86130   9.54629  -0.03500  -0.00037   0.01215
   O      1.28731  -1.49293   9.54629  -0.03436   0.00000   0.00000
   O     -1.93657  -0.36838   9.54629  -0.03500   0.00037  -0.01215
   O     -1.28731   1.49293   6.81878   0.03436  -0.00000  -0.00000
   O      1.93657   0.36838   6.81878   0.03500  -0.00037   0.01215
   O     -0.64926  -1.86130   6.81878   0.03500   0.00037  -0.01215
PRIMCOORD    9
     10   1
   Ca     0.00000   0.00000   8.18254  -0.00000  -0.00000   0.00000
   Ca     0.00000   0.00000   0.00000   0.00000  -0.00000   0.00000
   C      0.00000   0.00000   4.09127   0.00000   0.00000   0.01994
   C      0.00000   0.00000  12.27381  -0.00000  -0.00000  -0.01994
   O      0.64926   1.86130   9.54629  -0.02875  -0.01660   0.02078
   O      1.28731  -1.49293   9.54629   0.00000   0.03320   0.02078
   O     -1.93657  -0.36838   9.54629   0.02875  -0.01660   0.02078
   O     -1.28731   1.49293   6.81878  -0.00000  -0.03320  -0.02078
   O      1.93657   0.36838   6.81878  -0.02875   0.01660  -0.02078
   O     -0.64926  -1.86130   6.81878   0.02875   0.01660  -0.02078
PRIMCOORD   10
     10   1
   Ca     0.00000   0.00000   8.18254   0.05978   0.01771   0.00000
   Ca     0.00000   0.00000   0.00000  -0.05978   0.01771   0.00000
   C      0.00000   0.00000   4.09127  -0.00000  -0.00685  -0.00000
   C      0.00000   0.00000  12.27381   0.00000  -0.00685  -0.00000
   O      0.64926   1.86130   9.54629  -0.00241  -0.01177   0.00933
   O      1.28731  -1.49293   9.54629  -0.00000  -0.01596  -0.01866
   O     -1.93657  -0.36838   9.54629   0.00241  -0.01177   0.00933
   O     -1.28731   1.49293   6.81878   0.00000  -0.01596  -0.01866
   O      1.93657   0.36838   6.81878   0.00241  -0.01177   0.00933
   O     -0.64926  -1.86130   6.81878  -0.00241  -0.01177   0.00933
PRIMCOORD   11
     10   1
   Ca     0.00000   0.00000   8.18254  -0.00375   0.05218   0.00000
   Ca     0.00000   0.00000   0.00000  -0.00375  -0.05218  -0.00000
   C      0.00000   0.00000   4.09127  -0.00050   0.00000   0.00000
   C      0.00000   0.00000  12.27381  -0.00050  -0.00000  -0.00000
   O      0.64926   1.86130   9.54629   0.00508   0.00301  -0.03312
   O      1.28731  -1.49293   9.54629  -0.00013   0.00000  -0.00000
   O     -1.93657  -0.36838   9.54629   0.00508  -0.00301   0.03312
   O     -1.28731   1.49293   6.81878  -0.00013  -0.00000   0.00000
   O      1.93657   0.36838   6.81878   0.00508  -0.00301   0.03312
   O     -0.64926  -1.86130   6.81878   0.00508   0.00301  -0.03312
PRIMCOORD   12
     10   1
   Ca     0.00000   0.00000   8.18254  -0.00000   0.00000  -0.07057
   Ca     0.00000   0.00000   0.00000  -0.00000  -0.00000   0.07057
   C      0.00000   0.00000   4.09127   0.00000  -0.00000   0.00000
   C      0.00000   0.00000  12.27381   0.00000  -0.00000   0.00000
   O      0.64926   1.86130   9.54629   0.00128  -0.00222  -0.00000
   O      1.28731  -1.49293   9.54629  -0.00256  -0.00000   0.00000
   O     -1.93657  -0.36838   9.54629   0.00128   0.00222   0.00000
   O     -1.28731   1.49293   6.81878  -0.00256  -0.00000   0.00000
   O      1.93657   0.36838   6.81878   0.00128   0.00222   0.00000
   O     -0.64926  -1.86130   6.81878   0.00128  -0.00222  -0.00000
PRIMCOORD   13
     10   1
   Ca     0.00000   0.00000   8.18254  -0.00908   0.03230  -0.00000
   Ca     0.00000   0.00000   0.00000   0.00908   0.03230  -0.00000
   C      0.00000   0.00000   4.09127   0.00000  -0.02054   0.00000
   C      0.00000   0.00000  12.27381  -0.00000  -0.02054   0.00000
   O      0.64926   1.86130   9.54629   0.00155  -0.02271  -0.01832
   O      1.28731  -1.49293   9.54629   0.00000  -0.02003   0.03665
   O     -1.93657  -0.36838   9.54629  -0.00155  -0.02271  -0.01832
   O     -1.28731   1.49293   6.81878  -0.00000  -0.02003   0.03665
   O      1.93657   0.36838   6.81878  -0.00155  -0.02271  -0.01832
   O     -0.64926  -1.86130   6.81878   0.00155  -0.02271  -0.01832
PRIMCOORD   14
     10   1
   Ca     0.00000   0.00000   8.18254   0.00000  -0.00000  -0.03148
   Ca     0.00000   0.00000   0.00000  -0.00000  -0.00000  -0.03148
   C      0.00000   0.00000   4.09127  -0.00000   0.00000   0.02340
   C      0.00000   0.00000  12.27381   0.00000   0.00000   0.02340
   O      0.64926   1.86130   9.54629   0.02350   0.01357   0.02043
   O      1.28731  -1.49293   9.54629  -0.00000  -0.02714   0.02043
   O     -1.93657  -0.36838   9.54629  -0.02350   0.01357   0.02043
   O     -1.28731   1.49293   6.81878   0.00000  -0.02714   0.02043
   O      1.93657   0.36838   6.81878  -0.02350   0.01357   0.02043
   O     -0.64926  -1.86130   6.81878   0.02350   0.01357   0.02043
PRIMCOORD   15
     10   1
   Ca     0.00000   0.00000   8.18254   0.00000  -0.00000  -0.00000
   Ca     0.00000   0.00000   0.00000   0.00000   0.00000  -0.00000
   C      0.00000   0.00000   4.09127   0.00976  -0.00000   0.00000
   C      0.00000   0.00000  12.27381  -0.00976   0.00000  -0.00000
   O      0.64926   1.86130   9.54629   0.00831  -0.00112   0.04826
   O      1.28731  -1.49293   9.54629   0.01025  -0.00000   0.00000
   O     -1.93657  -0.36838   9.54629   0.00831   0.00112  -0.04826
   O     -1.28731   1.49293   6.81878  -0.01025   0.00000  -0.00000
   O      1.93657   0.36838   6.81878  -0.00831  -0.00112   0.04826
   O     -0.64926  -1.86130   6.81878  -0.00831   0.00112  -0.04826
PRIMCOORD   16
     10   1
   Ca     0.00000   0.00000   8.18254   0.00000  -0.00000   0.00000
   Ca     0.00000   0.00000   0.00000  -0.00000   0.00000   0.00000
   C      0.00000   0.00000   4.09127   0.00000   0.00976   0.00000
   C      0.00000   0.00000  12.27381  -0.00000  -0.00976  -0.00000
   O      0.64926   1.86130   9.54629  -0.00112   0.00960   0.02787
   O      1.28731  -1.49293   9.54629   0.00000   0.00766  -0.05573
   O     -1.93657  -0.36838   9.54629   0.00112   0.00960   0.02787
   O     -1.28731   1.49293   6.81878  -0.00000  -0.00766   0.05573
   O      1.93657   0.36838   6.81878  -0.00112  -0.00960  -0.02787
   O     -0.64926  -1.86130   6.81878   0.00112  -0.00960  -0.02787
PRIMCOORD   17
     10   1
   Ca     0.00000   0.00000   8.18254   0.00000  -0.00000  -0.00000
   Ca     0.00000   0.00000   0.00000  -0.00000   0.00000  -0.00000
   C      0.00000   0.00000   4.09127  -0.00000  -0.00000   0.03257
   C      0.00000   0.00000  12.27381   0.00000   0.00000  -0.03257
   O      0.64926   1.86130   9.54629   0.01959   0.01131   0.02831
   O      1.28731  -1.49293   9.54629  -0.00000  -0.02262   0.02831
   O     -1.93657  -0.36838   9.54629  -0.01959   0.01131   0.02831
   O     -1.28731   1.49293   6.81878   0.00000   0.02262  -0.02831
   O      1.93657   0.36838   6.81878   0.01959  -0.01131  -0.02831
   O     -0.64926  -1.86130   6.81878  -0.01959  -0.01131  -0.02831
PRIMCOORD   18
     10   1
   Ca     0.00000   0.00000   8.18254  -0.03971   0.00333   0.00000
   Ca     0.00000   0.00000   0.00000  -0.03971  -0.00333  -0.00000
   C      0.00000   0.00000   4.09127   0.03158   0.00000   0.00000
   C      0.00000   0.00000  12.27381   0.03158  -0.00000  -0.00000
   O      0.64926   1.86130   9.54629   0.02508  -0.00033   0.01579
   O      1.28731  -1.49293   9.54629   0.02564  -0.00000   0.00000
   O     -1.93657  -0.36838   9.54629   0.02508   0.00033  -0.01579
   O     -1.28731   1.49293   6.81878   0.02564   0.00000   0.00000
   O      1.93657   0.36838   6.81878   0.02508   0.00033  -0.01579
   O     -0.64926  -1.86130   6.81878   0.02508  -0.00033   0.01579
PRIMCOORD   19
     10   1
   Ca     0.00000   0.00000   8.18254  -0.00000  -0.00000   0.00000
   Ca     0.00000   0.00000   0.00000   0.00000  -0.00000   0.00000
   C      0.00000   0.00000   4.09127   0.02217   0.00000   0.00000
   C      0.00000   0.00000  12.27381  -0.02217  -0.00000   0.00000
   O      0.64926   1.86130   9.54629  -0.02437  -0.03325  -0.00179
   O      1.28731  -1.49293   9.54629   0.03322  -0.00000   0.00000
   O     -1.93657  -0.36838   9.54629  -0.02437   0.03325   0.00179
   O     -1.28731   1.49293   6.81878  -0.03322   0.00000  -0.00000
   O      1.93657   0.36838   6.81878   0.02437  -0.03325  -0.00179
   O     -0.64926  -1.86130   6.81878   0.02437   0.03325   0.00179
PRIMCOORD   20
     10   1
   Ca     0.00000   0.00000   8.18254  -0.00000  -0.00000   0.00000
   Ca     0.00000   0.00000   0.00000   0.00000  -0.00000  -0.00000
   C      0.00000   0.00000   4.09127  -0.00000   0.02217   0.00000
   C      0.00000   0.00000  12.27381   0.00000  -0.02217  -0.00000
   O      0.64926   1.86130   9.54629  -0.03325   0.01402  -0.00103
   O      1.28731  -1.49293   9.54629  -0.00000  -0.04356   0.00206
   O     -1.93657  -0.36838   9.54629   0.03325   0.01402  -0.00103
   O     -1.28731   1.49293   6.81878   0.00000   0.04356  -0.00206
   O      1.93657   0.36838   6.81878  -0.03325  -0.01402   0.00103
   O     -0.64926  -1.86130   6.81878   0.03325  -0.01402   0.00103
PRIMCOORD   21
     10   1
   Ca     0.00000   0.00000   8.18254  -0.00167  -0.00071   0.00000
   Ca     0.00000   0.00000   0.00000   0.00167  -0.00071   0.00000
   C      0.00000   0.00000   4.09127  -0.00000   0.02284  -0.00000
   C      0.00000   0.00000  12.27381   0.00000   0.02284  -0.00000
   O      0.64926   1.86130   9.54629  -0.03304   0.01395  -0.00219
   O      1.28731  -1.49293   9.54629  -0.00000  -0.04328   0.00438
   O     -1.93657  -0.36838   9.54629   0.03304   0.01395  -0.00219
   O     -1.28731   1.49293   6.81878   0.00000  -0.04328   0.00438
   O      1.93657   0.36838   6.81878   0.03304   0.01395  -0.00219
   O     -0.64926  -1.86130   6.81878  -0.03304   0.01395  -0.00219
PRIMCOORD   22
     10   1
   Ca     0.00000   0.00000   8.18254  -0.00019  -0.00154  -0.00000
   Ca     0.00000   0.00000   0.00000  -0.00019   0.00154   0.00000
   C      0.00000   0.00000   4.09127  -0.02121  -0.00000   0.00000
   C      0.00000   0.00000  12.27381  -0.02121  -0.00000  -0.00000
   O      0.64926   1.86130   9.54629   0.02468   0.03326   0.00398
   O      1.28731  -1.49293   9.54629  -0.03294   0.00000  -0.00000
   O     -1.93657  -0.36838   9.54629   0.02468  -0.03326  -0.00398
   O     -1.28731   1.49293   6.81878  -0.03294   0.00000  -0.00000
   O      1.93657   0.36838   6.81878   0.02468  -0.03326  -0.00398
   O     -0.64926  -1.86130   6.81878   0.02468   0.03326   0.00398
PRIMCOORD   23
     10   1
   Ca     0.00000   0.00000   8.18254  -0.00000   0.00000   0.00016
   Ca     0.00000   0.00000   0.00000   0.00000   0.00000   0.00016
   C      0.00000   0.00000   4.09127  -0.00000   0.00000   0.06475
   C      0.00000   0.00000  12.27381   0.00000   0.00000   0.06475
   O      0.64926   1.86130   9.54629  -0.00132  -0.00076  -0.01634
   O      1.28731  -1.49293   9.54629   0.00000   0.00152  -0.01634
   O     -1.93657  -0.36838   9.54629   0.00132  -0.00076  -0.01634
   O     -1.28731   1.49293   6.81878   0.00000   0.00152  -0.01634
   O      1.93657   0.36838   6.81878   0.00132  -0.00076  -0.01634
   O     -0.64926  -1.86130   6.81878  -0.00132  -0.00076  -0.01634
PRIMCOORD   24
     10   1
   Ca     0.00000   0.00000   8.18254   0.00000  -0.00000  -0.00000
   Ca     0.00000   0.00000   0.00000   0.00000  -0.00000  -0.00000
   C      0.00000   0.00000   4.09127   0.00000  -0.00000   0.06394
   C      0.00000   0.00000  12.27381   0.00000   0.00000  -0.06394
   O      0.64926   1.86130   9.54629  -0.00111  -0.00064  -0.01739
   O      1.28731  -1.49293   9.54629  -0.00000   0.00128  -0.01739
   O     -1.93657  -0.36838   9.54629   0.00111  -0.00064  -0.01739
   O     -1.28731   1.49293   6.81878   0.00000  -0.00128   0.01739
   O      1.93657   0.36838   6.81878  -0.00111   0.00064   0.01739
   O     -0.64926  -1.86130   6.81878   0.00111   0.00064   0.01739
PRIMCOORD   25
     10   1
   Ca     0.00000   0.00000   8.18254  -0.00000   0.00000  -0.00178
   Ca     0.00000   0.00000   0.00000  -0.00000  -0.00000   0.00178
   C      0.00000   0.00000   4.09127  -0.00000  -0.00000  -0.00000
   C      0.00000   0.00000  12.27381  -0.00000   0.00000  -0.00000
   O      0.64926   1.86130   9.54629  -0.02041   0.03534   0.00000
   O      1.28731  -1.49293   9.54629   0.04081   0.00000   0.00000
   O     -1.93657  -0.36838   9.54629  -0.02041  -0.03534  -0.00000
   O     -1.28731   1.49293   6.81878   0.04081   0.00000  -0.00000
   O      1.93657   0.36838   6.81878  -0.02041  -0.03534  -0.00000
   O     -0.64926  -1.86130   6.81878  -0.02041   0.03534   0.00000
PRIMCOORD   26
     10   1
   Ca     0.00000   0.00000   8.18254   0.00000  -0.00000  -0.00000
   Ca     0.00000   0.00000   0.00000  -0.00000   0.00000   0.00000
   C      0.00000   0.00000   4.09127   0.00000  -0.00000   0.00000
   C      0.00000   0.00000  12.27381  -0.00000  -0.00000  -0.00000
   O      0.64926   1.86130   9.54629  -0.02041   0.03536  -0.00000
   O      1.28731  -1.49293   9.54629   0.04082  -0.00000  -0.00000
   O     -1.93657  -0.36838   9.54629  -0.02041  -0.03536   0.00000
   O     -1.28731   1.49293   6.81878  -0.04082   0.00000   0.00000
   O      1.93657   0.36838   6.81878   0.02041   0.03536  -0.00000
   O     -0.64926  -1.86130   6.81878   0.02041  -0.03536   0.00000
PRIMCOORD   27
     10   1
   Ca     0.00000   0.00000   8.18254  -0.00079  -0.00106  -0.00000
   Ca     0.00000   0.00000   0.00000   0.00079  -0.00106  -0.00000
   C      0.00000   0.00000   4.09127  -0.00000   0.06281   0.00000
   C      0.00000   0.00000  12.27381   0.00000   0.06281   0.00000
   O      0.64926   1.86130   9.54629   0.00992  -0.02056  -0.00004
   O      1.28731  -1.49293   9.54629   0.00000  -0.00338   0.00007
   O     -1.93657  -0.36838   9.54629  -0.00992  -0.02056  -0.00004
   O     -1.28731   1.49293   6.81878  -0.00000  -0.00338   0.00007
   O      1.93657   0.36838   6.81878  -0.00992  -0.02056  -0.00004
   O     -0.64926  -1.86130   6.81878   0.00992  -0.02056  -0.00004
PRIMCOORD   28
     10   1
   Ca     0.00000   0.00000   8.18254   0.00000  -0.00000   0.00000
   Ca     0.00000   0.00000   0.00000   0.00000  -0.00000  -0.00000
   C      0.00000   0.00000   4.09127   0.06289  -0.00000  -0.00000
   C      0.00000   0.00000  12.27381  -0.06289   0.00000   0.00000
   O      0.64926   1.86130   9.54629  -0.00944   0.00962  -0.00015
   O      1.28731  -1.49293   9.54629  -0.02611   0.00000  -0.00000
   O     -1.93657  -0.36838   9.54629  -0.00944  -0.00962   0.00015
   O     -1.28731   1.49293   6.81878   0.02611  -0.00000   0.00000
   O      1.93657   0.36838   6.81878   0.00944   0.00962  -0.00015
   O     -0.64926  -1.86130   6.81878   0.00944  -0.00962   0.00015
PRIMCOORD   29
     10   1
   Ca     0.00000   0.00000   8.18254   0.00000  -0.00000  -0.00000
   Ca     0.00000   0.00000   0.00000   0.00000   0.00000  -0.00000
   C      0.00000   0.00000   4.09127  -0.00000  -0.06289  -0.00000
   C      0.00000   0.00000  12.27381   0.00000   0.06289   0.00000
   O      0.64926   1.86130   9.54629  -0.00962   0.02055   0.00009
   O      1.28731  -1.49293   9.54629   0.00000   0.00389  -0.00018
   O     -1.93657  -0.36838   9.54629   0.00962   0.02055   0.00009
   O     -1.28731   1.49293   6.81878  -0.00000  -0.00389   0.00018
   O      1.93657   0.36838   6.81878  -0.00962  -0.02055  -0.00009
   O     -0.64926  -1.86130   6.81878   0.00962  -0.02055  -0.00009
PRIMCOORD   30
     10   1
   Ca     0.00000   0.00000   8.18254  -0.00163  -0.00043   0.00000
   Ca     0.00000   0.00000   0.00000  -0.00163   0.00043  -0.00000
   C      0.00000   0.00000   4.09127  -0.06158  -0.00000   0.00000
   C      0.00000   0.00000  12.27381  -0.06158  -0.00000  -0.00000
   O      0.64926   1.86130   9.54629   0.01129  -0.00949   0.00054
   O      1.28731  -1.49293   9.54629   0.02773  -0.00000   0.00000
   O     -1.93657  -0.36838   9.54629   0.01129   0.00949  -0.00054
   O     -1.28731   1.49293   6.81878   0.02773  -0.00000   0.00000
   O      1.93657   0.36838   6.81878   0.01129   0.00949  -0.00054
   O     -0.64926  -1.86130   6.81878   0.01129  -0.00949   0.00054
