
     Program PWSCF v.7.0 starts on  8Apr2022 at 13:19:37 

     This program is part of the open-source Quantum ESPRESSO suite
     for quantum simulation of materials; please cite
         "P. Giannozzi et al., J. Phys.:Condens. Matter 21 395502 (2009);
         "P. Giannozzi et al., J. Phys.:Condens. Matter 29 465901 (2017);
         "P. Giannozzi et al., J. Chem. Phys. 152 154105 (2020);
          URL http://www.quantum-espresso.org", 
     in publications or presentations arising from this work. More details at
     http://www.quantum-espresso.org/quote

     Parallel version (MPI), running on     1 processors

     MPI processes distributed on     1 nodes
     89814 MiB available memory on the printing compute node when the environment starts
 
     Waiting for input...
     Reading input from standard input

     Current dimensions of program PWSCF are:
     Max number of different atomic species (ntypx) = 10
     Max number of k-points (npk) =  40000
     Max angular momentum in pseudopotentials (lmaxx) =  4
     Message from routine setup:
     using ibrav=0 with symmetry is DISCOURAGED, use correct ibrav instead

     Subspace diagonalization in iterative solution of the eigenvalue problem:
     a serial algorithm will be used

 
     G-vector sticks info
     --------------------
     sticks:   dense  smooth     PW     G-vecs:    dense   smooth      PW
     Sum        2093     845    253                76747    19447    3231
 
     Using Slab Decomposition
 


     bravais-lattice index     =            0
     lattice parameter (alat)  =       7.2864  a.u.
     unit-cell volume          =     406.4772 (a.u.)^3
     number of atoms/cell      =            5
     number of atomic types    =            3
     number of electrons       =        44.00
     number of Kohn-Sham states=           22
     kinetic-energy cutoff     =      50.0000  Ry
     charge density cutoff     =     500.0000  Ry
     scf convergence threshold =      1.0E-08
     mixing beta               =       0.7000
     number of iterations used =            8  plain     mixing
     energy convergence thresh.=      1.0E-04
     force convergence thresh. =      1.0E-03
     press convergence thresh. =      5.0E-01
     Exchange-correlation= SLA  PZ   NOGX NOGC
                           (   1   1   0   0   0   0   0)
     nstep                     =           50


     celldm(1)=   7.286431  celldm(2)=   0.000000  celldm(3)=   0.000000
     celldm(4)=   0.000000  celldm(5)=   0.000000  celldm(6)=   0.000000

     crystal axes: (cart. coord. in units of alat)
               a(1) = (   1.000000   0.000000   0.000000 )  
               a(2) = (   0.000000   1.000000   0.000000 )  
               a(3) = (   0.000000   0.000000   1.050731 )  

     reciprocal axes: (cart. coord. in units 2 pi/alat)
               b(1) = (  1.000000  0.000000  0.000000 )  
               b(2) = (  0.000000  1.000000  0.000000 )  
               b(3) = (  0.000000  0.000000  0.951718 )  


     PseudoPot. # 1 for Pb read from file:
     ./Pb_LDA.UPF
     MD5 check sum: 062a37469794d955244864f8fe2e5624
     Pseudo is Ultrasoft + core correction, Zval = 14.0
     Generated by new atomic code, or converted to UPF format
     Using radial grid of  899 points,  6 beta functions with: 
                l(1) =   0
                l(2) =   0
                l(3) =   1
                l(4) =   1
                l(5) =   2
                l(6) =   2
     Q(r) pseudized with  6 coefficients,  rinner =    1.000   1.000   1.000
                                                       1.000   1.000

     PseudoPot. # 2 for Ti read from file:
     ./Ti_LDA.UPF
     MD5 check sum: 0d9f225c038fe889ca2a701dcc8d72cb
     Pseudo is Ultrasoft + core correction, Zval = 12.0
     Generated by new atomic code, or converted to UPF format
     Using radial grid of  851 points,  6 beta functions with: 
                l(1) =   0
                l(2) =   0
                l(3) =   1
                l(4) =   1
                l(5) =   2
                l(6) =   2
     Q(r) pseudized with  6 coefficients,  rinner =    1.000   1.000   1.000
                                                       1.000   1.000

     PseudoPot. # 3 for O  read from file:
     ./O_LDA.UPF
     MD5 check sum: 194b818514d2a7dbb603bb78519a4f40
     Pseudo is Ultrasoft + core correction, Zval =  6.0
     Generated by new atomic code, or converted to UPF format
     Using radial grid of  737 points,  5 beta functions with: 
                l(1) =   0
                l(2) =   0
                l(3) =   1
                l(4) =   1
                l(5) =   2
     Q(r) pseudized with  8 coefficients,  rinner =    0.900   0.900   0.900
                                                       0.900   0.900

     atomic species   valence    mass     pseudopotential
        Pb            14.00   207.20000     Pb( 1.00)
        Ti            12.00    47.88000     Ti( 1.00)
        O              6.00    16.00000     O ( 1.00)

      8 Sym. Ops. (no inversion) found



   Cartesian axes

     site n.     atom                  positions (alat units)
         1           Pb  tau(   1) = (   0.0000000   0.0000000   1.0561849  )
         2           Ti  tau(   2) = (   0.5000000   0.5000000   0.5668825  )
         3           O   tau(   3) = (   0.5000000   0.5000000   0.1045254  )
         4           O   tau(   4) = (   0.5000000   0.0000000   0.6425761  )
         5           O   tau(   5) = (   0.0000000   0.5000000   0.6425761  )

     number of k points=    30
                       cart. coord. in units 2pi/alat
        k(    1) = (   0.0000000   0.0000000   0.0000000), wk =   0.0138889
        k(    2) = (   0.0000000   0.0000000   0.2379295), wk =   0.0277778
        k(    3) = (   0.0000000   0.0000000  -0.4758591), wk =   0.0138889
        k(    4) = (   0.0000000   0.1666667   0.0000000), wk =   0.0555556
        k(    5) = (   0.0000000   0.1666667   0.2379295), wk =   0.1111111
        k(    6) = (   0.0000000   0.1666667  -0.4758591), wk =   0.0555556
        k(    7) = (   0.0000000   0.3333333   0.0000000), wk =   0.0555556
        k(    8) = (   0.0000000   0.3333333   0.2379295), wk =   0.1111111
        k(    9) = (   0.0000000   0.3333333  -0.4758591), wk =   0.0555556
        k(   10) = (   0.0000000  -0.5000000   0.0000000), wk =   0.0277778
        k(   11) = (   0.0000000  -0.5000000   0.2379295), wk =   0.0555556
        k(   12) = (   0.0000000  -0.5000000  -0.4758591), wk =   0.0277778
        k(   13) = (   0.1666667   0.1666667   0.0000000), wk =   0.0555556
        k(   14) = (   0.1666667   0.1666667   0.2379295), wk =   0.1111111
        k(   15) = (   0.1666667   0.1666667  -0.4758591), wk =   0.0555556
        k(   16) = (   0.1666667   0.3333333   0.0000000), wk =   0.1111111
        k(   17) = (   0.1666667   0.3333333   0.2379295), wk =   0.2222222
        k(   18) = (   0.1666667   0.3333333  -0.4758591), wk =   0.1111111
        k(   19) = (   0.1666667  -0.5000000   0.0000000), wk =   0.0555556
        k(   20) = (   0.1666667  -0.5000000   0.2379295), wk =   0.1111111
        k(   21) = (   0.1666667  -0.5000000  -0.4758591), wk =   0.0555556
        k(   22) = (   0.3333333   0.3333333   0.0000000), wk =   0.0555556
        k(   23) = (   0.3333333   0.3333333   0.2379295), wk =   0.1111111
        k(   24) = (   0.3333333   0.3333333  -0.4758591), wk =   0.0555556
        k(   25) = (   0.3333333  -0.5000000   0.0000000), wk =   0.0555556
        k(   26) = (   0.3333333  -0.5000000   0.2379295), wk =   0.1111111
        k(   27) = (   0.3333333  -0.5000000  -0.4758591), wk =   0.0555556
        k(   28) = (  -0.5000000  -0.5000000   0.0000000), wk =   0.0138889
        k(   29) = (  -0.5000000  -0.5000000   0.2379295), wk =   0.0277778
        k(   30) = (  -0.5000000  -0.5000000  -0.4758591), wk =   0.0138889

     Dense  grid:    76747 G-vectors     FFT dimensions: (  54,  54,  60)

     Smooth grid:    19447 G-vectors     FFT dimensions: (  36,  36,  36)

     Estimated max dynamical RAM per process >     322.36 MB

     Check: negative core charge=   -0.000004

     Initial potential from superposition of free atoms

     starting charge      42.9982, renormalised to      44.0000

     negative rho (up, down):  1.669E-02 0.000E+00
     Starting wfcs are   31 randomized atomic wfcs

     total cpu time spent up to now is       19.8 secs

     Self-consistent Calculation

     iteration #  1     ecut=    50.00 Ry     beta= 0.70
     CG style diagonalization
     ethr =  1.00E-02,  avg # of iterations =  2.1

     negative rho (up, down):  1.401E-02 0.000E+00

     total cpu time spent up to now is       30.2 secs

     total energy              =    -380.06496295 Ry
     estimated scf accuracy    <       1.01860770 Ry

     iteration #  2     ecut=    50.00 Ry     beta= 0.70
     CG style diagonalization
     ethr =  2.32E-03,  avg # of iterations =  4.8

     negative rho (up, down):  1.452E-02 0.000E+00

     total cpu time spent up to now is       47.6 secs

     total energy              =    -379.76017052 Ry
     estimated scf accuracy    <       3.88750023 Ry

     iteration #  3     ecut=    50.00 Ry     beta= 0.70
     CG style diagonalization
     ethr =  2.32E-03,  avg # of iterations =  4.3

     negative rho (up, down):  1.513E-02 0.000E+00

     total cpu time spent up to now is       63.5 secs

     total energy              =    -380.53682379 Ry
     estimated scf accuracy    <       0.31177567 Ry

     iteration #  4     ecut=    50.00 Ry     beta= 0.70
     CG style diagonalization
     ethr =  7.09E-04,  avg # of iterations =  3.4

     negative rho (up, down):  1.512E-02 0.000E+00

     total cpu time spent up to now is       76.4 secs

     total energy              =    -380.56010915 Ry
     estimated scf accuracy    <       0.04130528 Ry

     iteration #  5     ecut=    50.00 Ry     beta= 0.70
     CG style diagonalization
     ethr =  9.39E-05,  avg # of iterations =  3.9

     negative rho (up, down):  1.512E-02 0.000E+00

     total cpu time spent up to now is       90.7 secs

     total energy              =    -380.57166755 Ry
     estimated scf accuracy    <       0.00771611 Ry

     iteration #  6     ecut=    50.00 Ry     beta= 0.70
     CG style diagonalization
     ethr =  1.75E-05,  avg # of iterations =  3.8

     negative rho (up, down):  1.513E-02 0.000E+00

     total cpu time spent up to now is      105.0 secs

     total energy              =    -380.57363305 Ry
     estimated scf accuracy    <       0.00614378 Ry

     iteration #  7     ecut=    50.00 Ry     beta= 0.70
     CG style diagonalization
     ethr =  1.40E-05,  avg # of iterations =  3.2

     negative rho (up, down):  1.514E-02 0.000E+00

     total cpu time spent up to now is      117.3 secs

     total energy              =    -380.57361357 Ry
     estimated scf accuracy    <       0.00169820 Ry

     iteration #  8     ecut=    50.00 Ry     beta= 0.70
     CG style diagonalization
     ethr =  3.86E-06,  avg # of iterations =  3.7

     negative rho (up, down):  1.517E-02 0.000E+00

     total cpu time spent up to now is      130.9 secs

     total energy              =    -380.57398855 Ry
     estimated scf accuracy    <       0.00001034 Ry

     iteration #  9     ecut=    50.00 Ry     beta= 0.70
     CG style diagonalization
     c_bands:  1 eigenvalues not converged
     ethr =  2.35E-08,  avg # of iterations =  7.5

     negative rho (up, down):  1.520E-02 0.000E+00

     total cpu time spent up to now is      157.3 secs

     total energy              =    -380.57404733 Ry
     estimated scf accuracy    <       0.00003650 Ry

     iteration # 10     ecut=    50.00 Ry     beta= 0.70
     CG style diagonalization
     ethr =  2.35E-08,  avg # of iterations =  3.5

     negative rho (up, down):  1.530E-02 0.000E+00

     total cpu time spent up to now is      170.3 secs

     total energy              =    -380.57404064 Ry
     estimated scf accuracy    <       0.00001920 Ry

     iteration # 11     ecut=    50.00 Ry     beta= 0.70
     CG style diagonalization
     ethr =  2.35E-08,  avg # of iterations =  4.1

     negative rho (up, down):  1.530E-02 0.000E+00

     total cpu time spent up to now is      185.2 secs

     total energy              =    -380.57404505 Ry
     estimated scf accuracy    <       0.00000162 Ry

     iteration # 12     ecut=    50.00 Ry     beta= 0.70
     CG style diagonalization
     ethr =  3.68E-09,  avg # of iterations =  4.9

     negative rho (up, down):  1.530E-02 0.000E+00

     total cpu time spent up to now is      203.0 secs

     total energy              =    -380.57404606 Ry
     estimated scf accuracy    <       0.00000007 Ry

     iteration # 13     ecut=    50.00 Ry     beta= 0.70
     CG style diagonalization
     c_bands:  1 eigenvalues not converged
     c_bands:  1 eigenvalues not converged
     c_bands:  1 eigenvalues not converged
     c_bands:  1 eigenvalues not converged
     ethr =  1.50E-10,  avg # of iterations = 10.3

     negative rho (up, down):  1.530E-02 0.000E+00

     total cpu time spent up to now is      238.4 secs

     total energy              =    -380.57404668 Ry
     estimated scf accuracy    <       0.00000006 Ry

     iteration # 14     ecut=    50.00 Ry     beta= 0.70
     CG style diagonalization
     ethr =  1.30E-10,  avg # of iterations =  3.6

     negative rho (up, down):  1.531E-02 0.000E+00

     total cpu time spent up to now is      252.0 secs

     total energy              =    -380.57404668 Ry
     estimated scf accuracy    <       0.00000002 Ry

     iteration # 15     ecut=    50.00 Ry     beta= 0.70
     CG style diagonalization
     ethr =  5.35E-11,  avg # of iterations =  4.5

     negative rho (up, down):  1.531E-02 0.000E+00

     total cpu time spent up to now is      268.3 secs

     End of self-consistent calculation

          k = 0.0000 0.0000 0.0000 (  2421 PWs)   bands (ev):

   -45.1707 -21.8510 -21.7672 -21.7672  -7.1663  -6.0140  -5.7572  -4.4132
    -4.4132  -4.3734  -4.2562  -4.1423   4.8414   6.7355   6.7355   7.1100
     8.7126   8.7126   8.9516   9.2899   9.4418   9.4418

          k = 0.0000 0.0000 0.2379 (  2429 PWs)   bands (ev):

   -45.1704 -21.8744 -21.7662 -21.7662  -6.9586  -5.9522  -5.6873  -4.4310
    -4.4310  -4.3719  -4.2440  -4.2194   3.9795   6.7902   6.7902   7.3055
     8.4591   8.4591   8.8682   9.3776   9.5609   9.5609

          k = 0.0000 0.0000-0.4759 (  2410 PWs)   bands (ev):

   -45.1700 -21.8977 -21.7653 -21.7653  -6.7329  -5.8845  -5.6239  -4.4486
    -4.4486  -4.3704  -4.3023  -4.2334   3.4363   6.6087   6.8240   6.8240
     8.3019   8.3019   8.7889   9.6371   9.6371  10.6543

          k = 0.0000 0.1667 0.0000 (  2423 PWs)   bands (ev):

   -45.1703 -21.8502 -21.7875 -21.7663  -7.0214  -5.9799  -5.7265  -4.4377
    -4.4116  -4.3883  -4.2591  -4.1307   4.3524   6.8015   6.8458   7.1423
     8.6688   8.7340   8.9479   9.0653   9.1708   9.5630

          k = 0.0000 0.1667 0.2379 (  2428 PWs)   bands (ev):

   -45.1700 -21.8734 -21.7865 -21.7653  -6.8301  -5.9341  -5.6509  -4.4361
    -4.4300  -4.3874  -4.2533  -4.1703   3.7460   6.5827   6.9117   7.3908
     8.1260   8.4410   8.7661   9.1617   9.2319   9.9346

          k = 0.0000 0.1667-0.4759 (  2426 PWs)   bands (ev):

   -45.1697 -21.8965 -21.7854 -21.7644  -6.6324  -5.8822  -5.5723  -4.4482
    -4.4324  -4.3865  -4.2578  -4.2056   3.2922   6.2634   6.9513   7.0359
     7.9309   8.2929   8.8333   9.2193   9.3134  10.5754

          k = 0.0000 0.3333 0.0000 (  2422 PWs)   bands (ev):

   -45.1695 -21.8485 -21.8278 -21.7646  -6.7067  -5.9060  -5.6809  -4.4749
    -4.4178  -4.4083  -4.2535  -4.1362   3.7242   6.4319   7.0970   7.1278
     8.3300   8.3569   8.8028   8.8540   9.2900  10.2145

          k = 0.0000 0.3333 0.2379 (  2423 PWs)   bands (ev):

   -45.1692 -21.8713 -21.8267 -21.7636  -6.5816  -5.8637  -5.5841  -4.4416
    -4.4281  -4.4180  -4.2465  -4.1098   3.3598   6.3017   7.0015   7.2269
     7.7610   8.1843   8.3395   8.9071   9.4259  10.2932

          k = 0.0000 0.3333-0.4759 (  2430 PWs)   bands (ev):

   -45.1689 -21.8940 -21.8254 -21.7626  -6.4890  -5.7963  -5.4563  -4.4474
    -4.4184  -4.4004  -4.2825  -4.0564   3.0403   5.9767   6.7632   7.2702
     7.6459   7.8130   8.1264   8.9382   9.8597  10.1249

          k = 0.0000-0.5000 0.0000 (  2436 PWs)   bands (ev):

   -45.1692 -21.8483 -21.8472 -21.7637  -6.5330  -5.8497  -5.6860  -4.4910
    -4.4324  -4.4067  -4.2267  -4.1692   3.5047   6.0481   7.3634   7.3711
     7.8345   7.9745   8.7241   8.8918   9.3210  11.0173

          k = 0.0000-0.5000 0.2379 (  2430 PWs)   bands (ev):

   -45.1688 -21.8700 -21.8468 -21.7627  -6.4738  -5.7737  -5.5781  -4.4540
    -4.4333  -4.4270  -4.2122  -4.1056   3.2082   6.0197   7.0315   7.2728
     7.5790   7.7751   8.4496   8.8849   9.4277  10.4948

          k = 0.0000-0.5000-0.4759 (  2432 PWs)   bands (ev):

   -45.1685 -21.8926 -21.8454 -21.7617  -6.4555  -5.6923  -5.4025  -4.4470
    -4.4342  -4.4091  -4.2677  -3.9943   2.9397   5.8372   6.4517   7.3320
     7.5951   7.8042   7.8255   8.8803   9.7939  10.1606

          k = 0.1667 0.1667 0.0000 (  2425 PWs)   bands (ev):

   -45.1699 -21.8493 -21.7868 -21.7864  -6.8790  -5.9448  -5.7177  -4.4436
    -4.4278  -4.3919  -4.2351  -4.1199   4.0211   6.7217   6.9758   7.1982
     8.1942   8.3064   9.0424   9.0768   9.3822   9.7968

          k = 0.1667 0.1667 0.2379 (  2423 PWs)   bands (ev):

   -45.1696 -21.8724 -21.7857 -21.7854  -6.6988  -5.9188  -5.6425  -4.4465
    -4.4229  -4.3857  -4.2243  -4.1358   3.6222   6.4993   6.6088   7.3343
     8.0241   8.0405   8.8471   9.2239   9.4610   9.9042

          k = 0.1667 0.1667-0.4759 (  2444 PWs)   bands (ev):

   -45.1693 -21.8954 -21.7846 -21.7844  -6.5196  -5.8926  -5.5546  -4.4594
    -4.4013  -4.3627  -4.2296  -4.1577   3.2593   6.2835   6.3317   7.0263
     7.9305   7.9678   8.7494   9.2989   9.5191  10.2715

          k = 0.1667 0.3333 0.0000 (  2426 PWs)   bands (ev):

   -45.1692 -21.8477 -21.8267 -21.7847  -6.5727  -5.8726  -5.7152  -4.4680
    -4.4169  -4.3761  -4.2103  -4.1255   3.5080   6.4294   6.9735   7.2724
     7.6541   8.2410   8.5480   9.2204   9.4094  10.2943

          k = 0.1667 0.3333 0.2379 (  2428 PWs)   bands (ev):

   -45.1688 -21.8703 -21.8256 -21.7837  -6.4438  -5.8634  -5.6327  -4.4434
    -4.4176  -4.3526  -4.1891  -4.0839   3.3635   6.2503   6.3807   6.9365
     7.3885   8.0796   8.9014   9.1793   9.5163  10.0040

          k = 0.1667 0.3333-0.4759 (  2422 PWs)   bands (ev):

   -45.1685 -21.8930 -21.8244 -21.7827  -6.3536  -5.8398  -5.5101  -4.4411
    -4.3917  -4.3113  -4.2017  -4.0291   3.1743   5.8953   6.3121   6.6356
     6.8797   7.9384   9.0060   9.2248   9.5088   9.9530

          k = 0.1667-0.5000 0.0000 (  2428 PWs)   bands (ev):

   -45.1688 -21.8471 -21.8463 -21.7838  -6.4051  -5.8189  -5.7411  -4.4711
    -4.4089  -4.3544  -4.1911  -4.1596   3.3084   6.0669   7.0905   7.3178
     7.6188   7.9638   8.4092   9.2539   9.4071  10.6269

          k = 0.1667-0.5000 0.2379 (  2426 PWs)   bands (ev):

   -45.1685 -21.8691 -21.8457 -21.7828  -6.3346  -5.7840  -5.6555  -4.4416
    -4.4040  -4.3310  -4.1657  -4.0780   3.2453   6.0242   6.2755   6.6836
     7.3487   8.2225   8.6687   9.1897   9.5257   9.9664

          k = 0.1667-0.5000-0.4759 (  2416 PWs)   bands (ev):

   -45.1681 -21.8916 -21.8444 -21.7817  -6.3190  -5.7504  -5.4935  -4.4357
    -4.3597  -4.3084  -4.1844  -3.9680   3.1346   5.7896   6.1444   6.2959
     6.7307   8.0515   8.8753   9.1369   9.1665  10.1704

          k = 0.3333 0.3333 0.0000 (  2438 PWs)   bands (ev):

   -45.1684 -21.8459 -21.8246 -21.8245  -6.3078  -5.8056  -5.7659  -4.4479
    -4.3973  -4.3038  -4.1286  -4.1282   3.1017   6.4135   6.5093   7.3794
     7.5328   7.6775   8.3457   9.0679   9.8848  10.0263

          k = 0.3333 0.3333 0.2379 (  2424 PWs)   bands (ev):

   -45.1681 -21.8683 -21.8237 -21.8235  -6.1693  -5.8540  -5.7215  -4.4057
    -4.3903  -4.2432  -4.0807  -4.0473   3.2916   5.9589   6.0299   6.4095
     7.0534   7.5544   8.9671   9.4792   9.5216   9.9008

          k = 0.3333 0.3333-0.4759 (  2428 PWs)   bands (ev):

   -45.1677 -21.8908 -21.8226 -21.8225  -6.0987  -5.8991  -5.5966  -4.3832
    -4.3637  -4.1776  -4.0305  -3.9688   3.4577   5.5539   5.5750   6.1539
     6.8069   6.9698   8.2138   9.8552   9.8710  10.0346

          k = 0.3333-0.5000 0.0000 (  2454 PWs)   bands (ev):

   -45.1680 -21.8448 -21.8446 -21.8235  -6.1881  -5.7812  -5.7623  -4.4395
    -4.3733  -4.2386  -4.1627  -4.0935   2.9149   6.0598   6.5553   7.1905
     7.7210   7.8430   7.9651   9.0361   9.7088  10.0907

          k = 0.3333-0.5000 0.2379 (  2430 PWs)   bands (ev):

   -45.1677 -21.8671 -21.8436 -21.8226  -6.0511  -5.8090  -5.7801  -4.3964
    -4.3615  -4.1488  -4.0789  -4.0172   3.2175   5.8511   6.0033   6.0717
     6.8355   7.6251   8.4928   9.4779   9.5062  10.0601

          k = 0.3333-0.5000-0.4759 (  2420 PWs)   bands (ev):

   -45.1674 -21.8896 -21.8424 -21.8216  -6.0403  -5.8525  -5.6349  -4.3658
    -4.3390  -4.0860  -3.9939  -3.9121   3.5983   5.2859   5.4815   5.9112
     6.5674   6.9828   7.4279   9.9566  10.0323  10.1945

          k =-0.5000-0.5000 0.0000 (  2480 PWs)   bands (ev):

   -45.1676 -21.8436 -21.8436 -21.8432  -6.1323  -5.7369  -5.7369  -4.4285
    -4.3253  -4.1843  -4.1843  -4.0428   2.7217   5.9083   6.3875   7.4030
     7.4030   7.9609   7.9609   8.8032   9.2332  10.3511

          k =-0.5000-0.5000 0.2379 (  2432 PWs)   bands (ev):

   -45.1673 -21.8659 -21.8425 -21.8425  -5.9166  -5.8231  -5.8231  -4.3840
    -4.3231  -4.0374  -4.0374  -4.0082   3.1391   5.8649   5.9745   5.9745
     6.3942   7.5661   7.8374   9.5079   9.5079  10.3335

          k =-0.5000-0.5000-0.4759 (  2400 PWs)   bands (ev):

   -45.1670 -21.8884 -21.8414 -21.8414  -5.8983  -5.8983  -5.6943  -4.3395
    -4.3209  -3.9620  -3.8990  -3.8990   3.8156   5.3137   5.3137   5.7458
     6.4009   6.4178   6.6700  10.2062  10.2062  10.3160

     highest occupied level (ev):    11.0173

!    total energy              =    -380.57404668 Ry
     estimated scf accuracy    <          9.7E-09 Ry

     The total energy is the sum of the following terms:
     one-electron contribution =     -79.70652379 Ry
     hartree contribution      =      69.93100460 Ry
     xc contribution           =    -102.67702940 Ry
     ewald contribution        =    -268.12149809 Ry

     convergence has been achieved in  15 iterations

     negative rho (up, down):  1.531E-02 0.000E+00

     Forces acting on atoms (cartesian axes, Ry/au):

     atom    1 type  1   force =     0.00000000    0.00000000    0.00005139
     atom    2 type  2   force =     0.00000000    0.00000000    0.00011228
     atom    3 type  3   force =     0.00000000    0.00000000    0.00002926
     atom    4 type  3   force =     0.00000000    0.00000000   -0.00009646
     atom    5 type  3   force =     0.00000000    0.00000000   -0.00009646

     Total force =     0.000186     Total SCF correction =     0.000109
     SCF correction compared to forces is large: reduce conv_thr to get better values


     Computing stress (Cartesian axis) and pressure


     negative rho (up, down):  1.531E-02 0.000E+00
          total   stress  (Ry/bohr**3)                   (kbar)     P=       -0.20
  -0.00000051   0.00000000   0.00000000           -0.08        0.00        0.00
   0.00000000  -0.00000051   0.00000000            0.00       -0.08        0.00
   0.00000000   0.00000000  -0.00000306            0.00        0.00       -0.45


     BFGS Geometry Optimization
     Energy error            =      0.0E+00 Ry
     Gradient error          =      1.1E-04 Ry/Bohr
     Cell gradient error     =      4.5E-01 kbar

     bfgs converged in   1 scf cycles and   0 bfgs steps
     (criteria: energy <  1.0E-04 Ry, force <  1.0E-03Ry/Bohr, cell <  5.0E-01kbar)

     End of BFGS Geometry Optimization

     Final enthalpy           =    -380.5740466815 Ry
Begin final coordinates
     new unit-cell volume =    406.47718 a.u.^3 (    60.23370 Ang^3 )
     density =      8.35539 g/cm^3

CELL_PARAMETERS (angstrom)
   3.855813126   0.000000000   0.000000000
   0.000000000   3.855813126   0.000000000
   0.000000000   0.000000000   4.051423221

ATOMIC_POSITIONS (crystal)
Pb            0.0000000000        0.0000000000        1.0051904083
Ti            0.5000000000        0.5000000000        0.5395123895
O             0.5000000000        0.5000000000        0.0994787311
O             0.5000000000        0.0000000000        0.6115513795
O             0.0000000000        0.5000000000        0.6115513795
End final coordinates



     Writing config-only to output data dir ./PTO_give.save/

     Final scf calculation at the relaxed structure.
     The G-vectors are recalculated for the final unit cell
     Results may differ from those at the preceding step.
 
     G-vector sticks info
     --------------------
     sticks:   dense  smooth     PW     G-vecs:    dense   smooth      PW
     Sum        2093     845    253                76747    19447    3231
 
     Using Slab Decomposition
 


     bravais-lattice index     =            0
     lattice parameter (alat)  =       7.2864  a.u.
     unit-cell volume          =     406.4772 (a.u.)^3
     number of atoms/cell      =            5
     number of atomic types    =            3
     number of electrons       =        44.00
     number of Kohn-Sham states=           22
     kinetic-energy cutoff     =      50.0000  Ry
     charge density cutoff     =     500.0000  Ry
     scf convergence threshold =      1.0E-08
     mixing beta               =       0.7000
     number of iterations used =            8  plain     mixing
     press convergence thresh. =      5.0E-01
     Exchange-correlation= SLA  PZ   NOGX NOGC
                           (   1   1   0   0   0   0   0)

     celldm(1)=   7.286431  celldm(2)=   0.000000  celldm(3)=   0.000000
     celldm(4)=   0.000000  celldm(5)=   0.000000  celldm(6)=   0.000000

     crystal axes: (cart. coord. in units of alat)
               a(1) = (   1.000000   0.000000   0.000000 )  
               a(2) = (   0.000000   1.000000   0.000000 )  
               a(3) = (   0.000000   0.000000   1.050731 )  

     reciprocal axes: (cart. coord. in units 2 pi/alat)
               b(1) = (  1.000000  0.000000  0.000000 )  
               b(2) = (  0.000000  1.000000  0.000000 )  
               b(3) = (  0.000000  0.000000  0.951718 )  


     PseudoPot. # 1 for Pb read from file:
     ./Pb_LDA.UPF
     MD5 check sum: 062a37469794d955244864f8fe2e5624
     Pseudo is Ultrasoft + core correction, Zval = 14.0
     Generated by new atomic code, or converted to UPF format
     Using radial grid of  899 points,  6 beta functions with: 
                l(1) =   0
                l(2) =   0
                l(3) =   1
                l(4) =   1
                l(5) =   2
                l(6) =   2
     Q(r) pseudized with  6 coefficients,  rinner =    1.000   1.000   1.000
                                                       1.000   1.000

     PseudoPot. # 2 for Ti read from file:
     ./Ti_LDA.UPF
     MD5 check sum: 0d9f225c038fe889ca2a701dcc8d72cb
     Pseudo is Ultrasoft + core correction, Zval = 12.0
     Generated by new atomic code, or converted to UPF format
     Using radial grid of  851 points,  6 beta functions with: 
                l(1) =   0
                l(2) =   0
                l(3) =   1
                l(4) =   1
                l(5) =   2
                l(6) =   2
     Q(r) pseudized with  6 coefficients,  rinner =    1.000   1.000   1.000
                                                       1.000   1.000

     PseudoPot. # 3 for O  read from file:
     ./O_LDA.UPF
     MD5 check sum: 194b818514d2a7dbb603bb78519a4f40
     Pseudo is Ultrasoft + core correction, Zval =  6.0
     Generated by new atomic code, or converted to UPF format
     Using radial grid of  737 points,  5 beta functions with: 
                l(1) =   0
                l(2) =   0
                l(3) =   1
                l(4) =   1
                l(5) =   2
     Q(r) pseudized with  8 coefficients,  rinner =    0.900   0.900   0.900
                                                       0.900   0.900

     atomic species   valence    mass     pseudopotential
        Pb            14.00   207.20000     Pb( 1.00)
        Ti            12.00    47.88000     Ti( 1.00)
        O              6.00    16.00000     O ( 1.00)

      8 Sym. Ops. (no inversion) found



   Cartesian axes

     site n.     atom                  positions (alat units)
         1           Pb  tau(   1) = (   0.0000000   0.0000000   1.0561849  )
         2           Ti  tau(   2) = (   0.5000000   0.5000000   0.5668825  )
         3           O   tau(   3) = (   0.5000000   0.5000000   0.1045254  )
         4           O   tau(   4) = (   0.5000000   0.0000000   0.6425761  )
         5           O   tau(   5) = (   0.0000000   0.5000000   0.6425761  )

     number of k points=    30
                       cart. coord. in units 2pi/alat
        k(    1) = (   0.0000000   0.0000000   0.0000000), wk =   0.0138889
        k(    2) = (   0.0000000   0.0000000   0.2379295), wk =   0.0277778
        k(    3) = (   0.0000000   0.0000000  -0.4758591), wk =   0.0138889
        k(    4) = (   0.0000000   0.1666667   0.0000000), wk =   0.0555556
        k(    5) = (   0.0000000   0.1666667   0.2379295), wk =   0.1111111
        k(    6) = (   0.0000000   0.1666667  -0.4758591), wk =   0.0555556
        k(    7) = (   0.0000000   0.3333333   0.0000000), wk =   0.0555556
        k(    8) = (   0.0000000   0.3333333   0.2379295), wk =   0.1111111
        k(    9) = (   0.0000000   0.3333333  -0.4758591), wk =   0.0555556
        k(   10) = (   0.0000000  -0.5000000   0.0000000), wk =   0.0277778
        k(   11) = (   0.0000000  -0.5000000   0.2379295), wk =   0.0555556
        k(   12) = (   0.0000000  -0.5000000  -0.4758591), wk =   0.0277778
        k(   13) = (   0.1666667   0.1666667   0.0000000), wk =   0.0555556
        k(   14) = (   0.1666667   0.1666667   0.2379295), wk =   0.1111111
        k(   15) = (   0.1666667   0.1666667  -0.4758591), wk =   0.0555556
        k(   16) = (   0.1666667   0.3333333   0.0000000), wk =   0.1111111
        k(   17) = (   0.1666667   0.3333333   0.2379295), wk =   0.2222222
        k(   18) = (   0.1666667   0.3333333  -0.4758591), wk =   0.1111111
        k(   19) = (   0.1666667  -0.5000000   0.0000000), wk =   0.0555556
        k(   20) = (   0.1666667  -0.5000000   0.2379295), wk =   0.1111111
        k(   21) = (   0.1666667  -0.5000000  -0.4758591), wk =   0.0555556
        k(   22) = (   0.3333333   0.3333333   0.0000000), wk =   0.0555556
        k(   23) = (   0.3333333   0.3333333   0.2379295), wk =   0.1111111
        k(   24) = (   0.3333333   0.3333333  -0.4758591), wk =   0.0555556
        k(   25) = (   0.3333333  -0.5000000   0.0000000), wk =   0.0555556
        k(   26) = (   0.3333333  -0.5000000   0.2379295), wk =   0.1111111
        k(   27) = (   0.3333333  -0.5000000  -0.4758591), wk =   0.0555556
        k(   28) = (  -0.5000000  -0.5000000   0.0000000), wk =   0.0138889
        k(   29) = (  -0.5000000  -0.5000000   0.2379295), wk =   0.0277778
        k(   30) = (  -0.5000000  -0.5000000  -0.4758591), wk =   0.0138889

     Dense  grid:    76747 G-vectors     FFT dimensions: (  54,  54,  60)

     Smooth grid:    19447 G-vectors     FFT dimensions: (  36,  36,  36)

     Estimated max dynamical RAM per process >     324.11 MB

     Check: negative core charge=   -0.000004

     Initial potential from superposition of free atoms

     starting charge      42.9982, renormalised to      44.0000

     negative rho (up, down):  1.669E-02 0.000E+00
     Starting wfcs are   31 randomized atomic wfcs

     total cpu time spent up to now is      317.1 secs

     Self-consistent Calculation

     iteration #  1     ecut=    50.00 Ry     beta= 0.70
     CG style diagonalization
     c_bands:  1 eigenvalues not converged
     c_bands:  1 eigenvalues not converged
     c_bands:  1 eigenvalues not converged
     c_bands:  1 eigenvalues not converged
     c_bands:  2 eigenvalues not converged
     c_bands:  1 eigenvalues not converged
     c_bands:  1 eigenvalues not converged
     c_bands:  1 eigenvalues not converged
     c_bands:  1 eigenvalues not converged
     c_bands:  2 eigenvalues not converged
     c_bands:  1 eigenvalues not converged
     c_bands:  1 eigenvalues not converged
     c_bands:  3 eigenvalues not converged
     ethr =  1.00E-06,  avg # of iterations =  9.1

     negative rho (up, down):  1.438E-02 0.000E+00

     total cpu time spent up to now is      350.5 secs

     total energy              =    -380.14314234 Ry
     estimated scf accuracy    <       0.93728964 Ry

     iteration #  2     ecut=    50.00 Ry     beta= 0.70
     CG style diagonalization
     ethr =  2.13E-03,  avg # of iterations =  4.6

     negative rho (up, down):  1.512E-02 0.000E+00

     total cpu time spent up to now is      367.4 secs

     total energy              =    -379.98762126 Ry
     estimated scf accuracy    <       2.60041134 Ry

     iteration #  3     ecut=    50.00 Ry     beta= 0.70
     CG style diagonalization
     ethr =  2.13E-03,  avg # of iterations =  4.2

     negative rho (up, down):  1.565E-02 0.000E+00

     total cpu time spent up to now is      382.8 secs

     total energy              =    -380.53548286 Ry
     estimated scf accuracy    <       0.28650185 Ry

     iteration #  4     ecut=    50.00 Ry     beta= 0.70
     CG style diagonalization
     ethr =  6.51E-04,  avg # of iterations =  3.4

     negative rho (up, down):  1.565E-02 0.000E+00

     total cpu time spent up to now is      395.8 secs

     total energy              =    -380.56285088 Ry
     estimated scf accuracy    <       0.02388823 Ry

     iteration #  5     ecut=    50.00 Ry     beta= 0.70
     CG style diagonalization
     ethr =  5.43E-05,  avg # of iterations =  4.1

     negative rho (up, down):  1.563E-02 0.000E+00

     total cpu time spent up to now is      411.0 secs

     total energy              =    -380.57270350 Ry
     estimated scf accuracy    <       0.00740238 Ry

     iteration #  6     ecut=    50.00 Ry     beta= 0.70
     CG style diagonalization
     ethr =  1.68E-05,  avg # of iterations =  3.7

     negative rho (up, down):  1.560E-02 0.000E+00

     total cpu time spent up to now is      424.8 secs

     total energy              =    -380.57385365 Ry
     estimated scf accuracy    <       0.00535199 Ry

     iteration #  7     ecut=    50.00 Ry     beta= 0.70
     CG style diagonalization
     ethr =  1.22E-05,  avg # of iterations =  3.2

     negative rho (up, down):  1.555E-02 0.000E+00

     total cpu time spent up to now is      436.9 secs

     total energy              =    -380.57349985 Ry
     estimated scf accuracy    <       0.00212325 Ry

     iteration #  8     ecut=    50.00 Ry     beta= 0.70
     CG style diagonalization
     ethr =  4.83E-06,  avg # of iterations =  3.6

     negative rho (up, down):  1.554E-02 0.000E+00

     total cpu time spent up to now is      450.4 secs

     total energy              =    -380.57399975 Ry
     estimated scf accuracy    <       0.00006057 Ry

     iteration #  9     ecut=    50.00 Ry     beta= 0.70
     CG style diagonalization
     ethr =  1.38E-07,  avg # of iterations =  4.5

     negative rho (up, down):  1.546E-02 0.000E+00

     total cpu time spent up to now is      466.7 secs

     total energy              =    -380.57404212 Ry
     estimated scf accuracy    <       0.00003200 Ry

     iteration # 10     ecut=    50.00 Ry     beta= 0.70
     CG style diagonalization
     ethr =  7.27E-08,  avg # of iterations =  3.3

     negative rho (up, down):  1.532E-02 0.000E+00

     total cpu time spent up to now is      479.3 secs

     total energy              =    -380.57404033 Ry
     estimated scf accuracy    <       0.00001471 Ry

     iteration # 11     ecut=    50.00 Ry     beta= 0.70
     CG style diagonalization
     ethr =  3.34E-08,  avg # of iterations =  3.8

     negative rho (up, down):  1.533E-02 0.000E+00

     total cpu time spent up to now is      493.4 secs

     total energy              =    -380.57404436 Ry
     estimated scf accuracy    <       0.00000027 Ry

     iteration # 12     ecut=    50.00 Ry     beta= 0.70
     CG style diagonalization
     c_bands:  1 eigenvalues not converged
     ethr =  6.10E-10,  avg # of iterations =  9.6

     negative rho (up, down):  1.532E-02 0.000E+00

     total cpu time spent up to now is      526.2 secs

     total energy              =    -380.57404661 Ry
     estimated scf accuracy    <       0.00000017 Ry

     iteration # 13     ecut=    50.00 Ry     beta= 0.70
     CG style diagonalization
     ethr =  3.90E-10,  avg # of iterations =  4.1

     negative rho (up, down):  1.531E-02 0.000E+00

     total cpu time spent up to now is      541.3 secs

     total energy              =    -380.57404665 Ry
     estimated scf accuracy    <       0.00000003 Ry

     iteration # 14     ecut=    50.00 Ry     beta= 0.70
     CG style diagonalization
     ethr =  7.46E-11,  avg # of iterations =  5.7

     negative rho (up, down):  1.531E-02 0.000E+00

     total cpu time spent up to now is      561.4 secs

     End of self-consistent calculation

          k = 0.0000 0.0000 0.0000 (  2421 PWs)   bands (ev):

   -45.1710 -21.8513 -21.7675 -21.7675  -7.1663  -6.0141  -5.7571  -4.4133
    -4.4133  -4.3735  -4.2562  -4.1423   4.8414   6.7355   6.7355   7.1100
     8.7127   8.7127   8.9516   9.2900   9.4418   9.4418

          k = 0.0000 0.0000 0.2379 (  2429 PWs)   bands (ev):

   -45.1707 -21.8748 -21.7665 -21.7665  -6.9586  -5.9523  -5.6872  -4.4310
    -4.4310  -4.3720  -4.2440  -4.2194   3.9795   6.7902   6.7902   7.3056
     8.4592   8.4592   8.8682   9.3776   9.5609   9.5609

          k = 0.0000 0.0000-0.4759 (  2410 PWs)   bands (ev):

   -45.1704 -21.8980 -21.7656 -21.7656  -6.7329  -5.8845  -5.6238  -4.4486
    -4.4486  -4.3705  -4.3023  -4.2334   3.4363   6.6088   6.8240   6.8240
     8.3019   8.3019   8.7889   9.6371   9.6371  10.6543

          k = 0.0000 0.1667 0.0000 (  2423 PWs)   bands (ev):

   -45.1707 -21.8505 -21.7878 -21.7666  -7.0214  -5.9799  -5.7264  -4.4377
    -4.4117  -4.3883  -4.2591  -4.1307   4.3524   6.8015   6.8458   7.1423
     8.6689   8.7342   8.9480   9.0652   9.1709   9.5631

          k = 0.0000 0.1667 0.2379 (  2428 PWs)   bands (ev):

   -45.1703 -21.8738 -21.7868 -21.7657  -6.8301  -5.9341  -5.6507  -4.4362
    -4.4301  -4.3874  -4.2533  -4.1703   3.7460   6.5827   6.9117   7.3908
     8.1261   8.4411   8.7661   9.1617   9.2318   9.9347

          k = 0.0000 0.1667-0.4759 (  2426 PWs)   bands (ev):

   -45.1700 -21.8968 -21.7857 -21.7647  -6.6324  -5.8822  -5.5721  -4.4483
    -4.4324  -4.3866  -4.2578  -4.2056   3.2923   6.2634   6.9513   7.0359
     7.9310   8.2930   8.8333   9.2194   9.3134  10.5754

          k = 0.0000 0.3333 0.0000 (  2422 PWs)   bands (ev):

   -45.1699 -21.8489 -21.8281 -21.7649  -6.7067  -5.9060  -5.6808  -4.4749
    -4.4179  -4.4083  -4.2536  -4.1362   3.7242   6.4318   7.0970   7.1278
     8.3301   8.3569   8.8028   8.8541   9.2901  10.2146

          k = 0.0000 0.3333 0.2379 (  2423 PWs)   bands (ev):

   -45.1696 -21.8716 -21.8270 -21.7639  -6.5816  -5.8637  -5.5839  -4.4416
    -4.4281  -4.4180  -4.2465  -4.1098   3.3598   6.3017   7.0016   7.2269
     7.7610   8.1844   8.3395   8.9072   9.4260  10.2933

          k = 0.0000 0.3333-0.4759 (  2430 PWs)   bands (ev):

   -45.1692 -21.8943 -21.8257 -21.7629  -6.4890  -5.7963  -5.4561  -4.4474
    -4.4184  -4.4004  -4.2825  -4.0564   3.0403   5.9767   6.7632   7.2702
     7.6459   7.8130   8.1264   8.9382   9.8598  10.1249

          k = 0.0000-0.5000 0.0000 (  2436 PWs)   bands (ev):

   -45.1695 -21.8486 -21.8475 -21.7641  -6.5330  -5.8497  -5.6859  -4.4910
    -4.4324  -4.4068  -4.2267  -4.1692   3.5047   6.0480   7.3634   7.3711
     7.8345   7.9745   8.7241   8.8918   9.3211  11.0174

          k = 0.0000-0.5000 0.2379 (  2430 PWs)   bands (ev):

   -45.1692 -21.8703 -21.8471 -21.7630  -6.4738  -5.7737  -5.5779  -4.4540
    -4.4333  -4.4270  -4.2123  -4.1056   3.2083   6.0197   7.0315   7.2728
     7.5789   7.7752   8.4496   8.8850   9.4277  10.4949

          k = 0.0000-0.5000-0.4759 (  2432 PWs)   bands (ev):

   -45.1689 -21.8929 -21.8457 -21.7620  -6.4555  -5.6923  -5.4023  -4.4470
    -4.4342  -4.4092  -4.2678  -3.9943   2.9397   5.8372   6.4517   7.3320
     7.5952   7.8042   7.8256   8.8803   9.7939  10.1608

          k = 0.1667 0.1667 0.0000 (  2425 PWs)   bands (ev):

   -45.1703 -21.8497 -21.7871 -21.7867  -6.8789  -5.9448  -5.7176  -4.4436
    -4.4279  -4.3919  -4.2351  -4.1199   4.0211   6.7217   6.9759   7.1981
     8.1943   8.3064   9.0424   9.0769   9.3822   9.7969

          k = 0.1667 0.1667 0.2379 (  2423 PWs)   bands (ev):

   -45.1700 -21.8728 -21.7860 -21.7857  -6.6987  -5.9188  -5.6424  -4.4465
    -4.4230  -4.3857  -4.2244  -4.1358   3.6222   6.4994   6.6088   7.3344
     8.0241   8.0405   8.8472   9.2239   9.4610   9.9042

          k = 0.1667 0.1667-0.4759 (  2444 PWs)   bands (ev):

   -45.1696 -21.8957 -21.7849 -21.7847  -6.5196  -5.8926  -5.5544  -4.4595
    -4.4014  -4.3627  -4.2296  -4.1577   3.2594   6.2835   6.3317   7.0263
     7.9305   7.9678   8.7495   9.2990   9.5191  10.2715

          k = 0.1667 0.3333 0.0000 (  2426 PWs)   bands (ev):

   -45.1695 -21.8480 -21.8271 -21.7850  -6.5727  -5.8726  -5.7151  -4.4681
    -4.4169  -4.3761  -4.2103  -4.1256   3.5080   6.4293   6.9735   7.2724
     7.6541   8.2411   8.5480   9.2205   9.4095  10.2944

          k = 0.1667 0.3333 0.2379 (  2428 PWs)   bands (ev):

   -45.1692 -21.8707 -21.8260 -21.7840  -6.4438  -5.8634  -5.6326  -4.4434
    -4.4176  -4.3527  -4.1892  -4.0839   3.3636   6.2502   6.3807   6.9365
     7.3885   8.0796   8.9014   9.1793   9.5163  10.0041

          k = 0.1667 0.3333-0.4759 (  2422 PWs)   bands (ev):

   -45.1689 -21.8933 -21.8248 -21.7830  -6.3536  -5.8399  -5.5100  -4.4411
    -4.3918  -4.3113  -4.2017  -4.0292   3.1744   5.8954   6.3121   6.6357
     6.8796   7.9384   9.0061   9.2248   9.5088   9.9531

          k = 0.1667-0.5000 0.0000 (  2428 PWs)   bands (ev):

   -45.1691 -21.8474 -21.8467 -21.7841  -6.4051  -5.8189  -5.7410  -4.4711
    -4.4089  -4.3544  -4.1911  -4.1597   3.3084   6.0668   7.0905   7.3178
     7.6188   7.9638   8.4093   9.2539   9.4072  10.6270

          k = 0.1667-0.5000 0.2379 (  2426 PWs)   bands (ev):

   -45.1688 -21.8694 -21.8461 -21.7831  -6.3346  -5.7840  -5.6554  -4.4416
    -4.4040  -4.3310  -4.1657  -4.0780   3.2454   6.0241   6.2755   6.6836
     7.3487   8.2226   8.6687   9.1898   9.5257   9.9665

          k = 0.1667-0.5000-0.4759 (  2416 PWs)   bands (ev):

   -45.1685 -21.8920 -21.8447 -21.7821  -6.3190  -5.7504  -5.4933  -4.4357
    -4.3598  -4.3084  -4.1844  -3.9680   3.1346   5.7896   6.1444   6.2959
     6.7307   8.0515   8.8753   9.1370   9.1665  10.1705

          k = 0.3333 0.3333 0.0000 (  2438 PWs)   bands (ev):

   -45.1687 -21.8462 -21.8249 -21.8248  -6.3078  -5.8056  -5.7658  -4.4479
    -4.3973  -4.3039  -4.1287  -4.1283   3.1017   6.4135   6.5092   7.3795
     7.5328   7.6776   8.3457   9.0680   9.8848  10.0263

          k = 0.3333 0.3333 0.2379 (  2424 PWs)   bands (ev):

   -45.1684 -21.8687 -21.8240 -21.8239  -6.1693  -5.8541  -5.7214  -4.4057
    -4.3903  -4.2433  -4.0807  -4.0473   3.2916   5.9589   6.0299   6.4095
     7.0534   7.5544   8.9671   9.4793   9.5217   9.9008

          k = 0.3333 0.3333-0.4759 (  2428 PWs)   bands (ev):

   -45.1681 -21.8911 -21.8229 -21.8228  -6.0987  -5.8991  -5.5964  -4.3833
    -4.3638  -4.1776  -4.0305  -3.9688   3.4578   5.5539   5.5750   6.1539
     6.8069   6.9698   8.2138   9.8553   9.8710  10.0347

          k = 0.3333-0.5000 0.0000 (  2454 PWs)   bands (ev):

   -45.1684 -21.8451 -21.8449 -21.8238  -6.1880  -5.7812  -5.7623  -4.4395
    -4.3733  -4.2386  -4.1628  -4.0935   2.9149   6.0597   6.5552   7.1906
     7.7212   7.8430   7.9651   9.0362   9.7089  10.0907

          k = 0.3333-0.5000 0.2379 (  2430 PWs)   bands (ev):

   -45.1680 -21.8674 -21.8439 -21.8229  -6.0511  -5.8090  -5.7800  -4.3964
    -4.3616  -4.1488  -4.0789  -4.0172   3.2175   5.8511   6.0033   6.0717
     6.8354   7.6251   8.4928   9.4780   9.5063  10.0601

          k = 0.3333-0.5000-0.4759 (  2420 PWs)   bands (ev):

   -45.1677 -21.8899 -21.8427 -21.8219  -6.0403  -5.8525  -5.6348  -4.3658
    -4.3390  -4.0859  -3.9939  -3.9121   3.5983   5.2859   5.4815   5.9112
     6.5674   6.9828   7.4279   9.9567  10.0323  10.1947

          k =-0.5000-0.5000 0.0000 (  2480 PWs)   bands (ev):

   -45.1680 -21.8439 -21.8439 -21.8436  -6.1322  -5.7370  -5.7370  -4.4285
    -4.3253  -4.1843  -4.1843  -4.0428   2.7217   5.9082   6.3874   7.4031
     7.4031   7.9608   7.9608   8.8033   9.2332  10.3511

          k =-0.5000-0.5000 0.2379 (  2432 PWs)   bands (ev):

   -45.1677 -21.8662 -21.8428 -21.8428  -5.9165  -5.8231  -5.8231  -4.3840
    -4.3231  -4.0375  -4.0375  -4.0082   3.1391   5.8649   5.9745   5.9745
     6.3941   7.5661   7.8374   9.5080   9.5080  10.3335

          k =-0.5000-0.5000-0.4759 (  2400 PWs)   bands (ev):

   -45.1673 -21.8887 -21.8417 -21.8417  -5.8983  -5.8983  -5.6941  -4.3395
    -4.3209  -3.9620  -3.8991  -3.8991   3.8156   5.3137   5.3137   5.7458
     6.4008   6.4178   6.6700  10.2063  10.2063  10.3160

     highest occupied level (ev):    11.0174

!    total energy              =    -380.57404668 Ry
     estimated scf accuracy    <          1.3E-09 Ry

     The total energy is the sum of the following terms:
     one-electron contribution =     -79.70681875 Ry
     hartree contribution      =      69.93128914 Ry
     xc contribution           =    -102.67701899 Ry
     ewald contribution        =    -268.12149809 Ry

     convergence has been achieved in  14 iterations

     negative rho (up, down):  1.531E-02 0.000E+00

     Forces acting on atoms (cartesian axes, Ry/au):

     atom    1 type  1   force =     0.00000000    0.00000000    0.00014077
     atom    2 type  2   force =     0.00000000    0.00000000    0.00009719
     atom    3 type  3   force =     0.00000000    0.00000000    0.00001515
     atom    4 type  3   force =     0.00000000    0.00000000   -0.00012655
     atom    5 type  3   force =     0.00000000    0.00000000   -0.00012655

     Total force =     0.000248     Total SCF correction =     0.000116
     SCF correction compared to forces is large: reduce conv_thr to get better values


     Computing stress (Cartesian axis) and pressure


     negative rho (up, down):  1.531E-02 0.000E+00
          total   stress  (Ry/bohr**3)                   (kbar)     P=       -0.03
   0.00000061   0.00000000   0.00000000            0.09        0.00        0.00
   0.00000000   0.00000061   0.00000000            0.00        0.09        0.00
   0.00000000   0.00000000  -0.00000184            0.00        0.00       -0.27


     Writing all to output data dir ./PTO_give.save/
 
     init_run     :     35.04s CPU     35.81s WALL (       2 calls)
     electrons    :    463.87s CPU    492.91s WALL (       2 calls)
     forces       :     16.53s CPU     16.90s WALL (       2 calls)
     stress       :     42.99s CPU     43.67s WALL (       2 calls)

     Called by init_run:
     wfcinit      :      5.83s CPU      6.08s WALL (       2 calls)
     potinit      :      3.08s CPU      3.16s WALL (       2 calls)
     hinit0       :     24.34s CPU     24.48s WALL (       2 calls)

     Called by electrons:
     c_bands      :    383.70s CPU    406.29s WALL (      29 calls)
     sum_band     :     55.47s CPU     58.98s WALL (      29 calls)
     v_of_rho     :      1.30s CPU      1.36s WALL (      31 calls)
     newd         :     24.32s CPU     27.21s WALL (      31 calls)
     mix_rho      :      0.46s CPU      0.48s WALL (      29 calls)

     Called by c_bands:
     init_us_2    :      8.30s CPU      8.53s WALL (    1920 calls)
     init_us_2:cp :      8.23s CPU      8.49s WALL (    1920 calls)
     ccgdiagg     :    333.31s CPU    352.93s WALL (     870 calls)
     wfcrot       :     50.72s CPU     52.29s WALL (     870 calls)

     Called by *cgdiagg:
     h_psi        :    265.24s CPU    277.23s WALL (   71927 calls)
     s_psi        :     57.80s CPU     64.19s WALL (  142984 calls)

     Called by h_psi:
     h_psi:calbec :     31.73s CPU     33.13s WALL (   71927 calls)
     vloc_psi     :    198.35s CPU    206.50s WALL (   71927 calls)
     add_vuspsi   :     29.61s CPU     32.70s WALL (   71927 calls)
     hs_1psi      :    253.33s CPU    266.06s WALL (   71057 calls)
     s_1psi       :     59.74s CPU     64.37s WALL (   71057 calls)

     General routines
     calbec       :     57.42s CPU     62.93s WALL (  144154 calls)
     fft          :      0.79s CPU      0.82s WALL (     198 calls)
     ffts         :      0.06s CPU      0.06s WALL (      60 calls)
     fftw         :    183.54s CPU    191.18s WALL (  200614 calls)
     interpolate  :      0.19s CPU      0.20s WALL (      31 calls)
 
     Parallel routines
 
     PWSCF        :   9m19.75s CPU   9m52.29s WALL

 
   This run was terminated on:  13:29:29   8Apr2022            

=------------------------------------------------------------------------------=
   JOB DONE.
=------------------------------------------------------------------------------=
