TACC:  Starting up job 9581711 
TACC:  Starting parallel tasks... 

     Program PWSCF v.6.4.1 starts on  4May2022 at 13:56:38 

     This program is part of the open-source Quantum ESPRESSO suite
     for quantum simulation of materials; please cite
         "P. Giannozzi et al., J. Phys.:Condens. Matter 21 395502 (2009);
         "P. Giannozzi et al., J. Phys.:Condens. Matter 29 465901 (2017);
          URL http://www.quantum-espresso.org", 
     in publications or presentations arising from this work. More details at
     http://www.quantum-espresso.org/quote

     Parallel version (MPI & OpenMP), running on     120 processor cores
     Number of MPI processes:               120
     Threads/MPI process:                     1

     MPI processes distributed on     2 nodes
     R & G space division:  proc/nbgrp/npool/nimage =     120
     Waiting for input...
     Reading input from standard input
Warning: card &CELL ignored
Warning: card  CELL_DYNAMICS = 'BFGS', ignored
Warning: card  PRESS=0.1D0, ignored
Warning: card / ignored

     Current dimensions of program PWSCF are:
     Max number of different atomic species (ntypx) = 10
     Max number of k-points (npk) =  40000
     Max angular momentum in pseudopotentials (lmaxx) =  3

     Subspace diagonalization in iterative solution of the eigenvalue problem:
     one sub-group per band group will be used
     scalapack distributed-memory algorithm (size of sub-group:  7*  7 procs)

 
     Parallelization info
     --------------------
     sticks:   dense  smooth     PW     G-vecs:    dense   smooth      PW
     Min          19      19      5                  560      560      83
     Max          20      20      6                  567      567      90
     Sum        2345    2345    659                67537    67537   10337
 


     bravais-lattice index     =            5
     lattice parameter (alat)  =      11.8795  a.u.
     unit-cell volume          =     852.6628 (a.u.)^3
     number of atoms/cell      =           10
     number of atomic types    =            3
     number of electrons       =        64.00
     number of Kohn-Sham states=           32
     kinetic-energy cutoff     =      70.0000  Ry
     charge density cutoff     =     280.0000  Ry
     convergence threshold     =      1.0E-08
     mixing beta               =       0.7000
     number of iterations used =            8  plain     mixing
     Exchange-correlation      = SLA  PW   PBE  PBE ( 1  4  3  4 0 0)
     nstep                     =           50


     celldm(1)=  11.879500  celldm(2)=   0.000000  celldm(3)=   0.000000
     celldm(4)=   0.667100  celldm(5)=   0.000000  celldm(6)=   0.000000

     crystal axes: (cart. coord. in units of alat)
               a(1) = (   0.407983  -0.235549   0.882081 )  
               a(2) = (   0.000000   0.471098   0.882081 )  
               a(3) = (  -0.407983  -0.235549   0.882081 )  

     reciprocal axes: (cart. coord. in units 2 pi/alat)
               b(1) = (  1.225542 -0.707567  0.377894 )  
               b(2) = (  0.000000  1.415134  0.377894 )  
               b(3) = ( -1.225542 -0.707567  0.377894 )  


     PseudoPot. # 1 for Ca read from file:
     ./Ca_PBE.UPF
     MD5 check sum: 403a4c14b9e4d4dfdc3024c9a3812218
     Pseudo is Ultrasoft + core correction, Zval = 10.0
     Generated by new atomic code, or converted to UPF format
     Using radial grid of  845 points,  6 beta functions with: 
                l(1) =   0
                l(2) =   0
                l(3) =   1
                l(4) =   1
                l(5) =   2
                l(6) =   2
     Q(r) pseudized with  8 coefficients,  rinner =    1.500   1.500   1.500
                                                       1.500   1.500

     PseudoPot. # 2 for C  read from file:
     ./C_PBE.UPF
     MD5 check sum: d1aef80898a10debaa0f26306b886e00
     Pseudo is Ultrasoft + core correction, Zval =  4.0
     Generated by new atomic code, or converted to UPF format
     Using radial grid of  721 points,  4 beta functions with: 
                l(1) =   0
                l(2) =   0
                l(3) =   1
                l(4) =   1
     Q(r) pseudized with  8 coefficients,  rinner =    1.100   1.100   1.100


     PseudoPot. # 3 for O  read from file:
     ./O_PBE.UPF
     MD5 check sum: 734c27235a0248c51dbae37a1fbe46ec
     Pseudo is Ultrasoft + core correction, Zval =  6.0
     Generated by new atomic code, or converted to UPF format
     Using radial grid of  737 points,  5 beta functions with: 
                l(1) =   0
                l(2) =   0
                l(3) =   1
                l(4) =   1
                l(5) =   2
     Q(r) pseudized with  8 coefficients,  rinner =    0.900   0.900   0.900
                                                       0.900   0.900

     atomic species   valence    mass     pseudopotential
        Ca            10.00    40.07800     Ca( 1.00)
        C              4.00    12.01070     C ( 1.00)
        O              6.00    16.00000     O ( 1.00)

     12 Sym. Ops., with inversion, found ( 6 have fractional translation)



   Cartesian axes

     site n.     atom                  positions (alat units)
         1           Ca  tau(   1) = (   0.0000000  -0.0000000   1.3231213  )
         2           Ca  tau(   2) = (   0.0000000   0.0000000   0.0000000  )
         3           C   tau(   3) = (   0.0000000  -0.0000000   0.6615607  )
         4           C   tau(   4) = (  -0.0000000  -0.0000000   1.9846820  )
         5           O   tau(   5) = (   0.1048585   0.2894777   1.5436415  )
         6           O   tau(   6) = (   0.1982658  -0.2355490   1.5436415  )
         7           O   tau(   7) = (  -0.3031243  -0.0539287   1.5436415  )
         8           O   tau(   8) = (  -0.1982658   0.2355490   1.1026011  )
         9           O   tau(   9) = (   0.3031243   0.0539287   1.1026011  )
        10           O   tau(  10) = (  -0.1048585  -0.2894777   1.1026011  )

     number of k points=    19
                       cart. coord. in units 2pi/alat
        k(    1) = (   0.0000000   0.0000000   0.0000000), wk =   0.0160000
        k(    2) = (  -0.2451083  -0.1415134   0.0755789), wk =   0.0960000
        k(    3) = (  -0.4902167  -0.2830267   0.1511577), wk =   0.0960000
        k(    4) = (  -0.2451083   0.1415134   0.1511577), wk =   0.0960000
        k(    5) = (  -0.4902167   0.0000000   0.2267366), wk =   0.1920000
        k(    6) = (   0.4902167   0.5660535  -0.0755789), wk =   0.1920000
        k(    7) = (   0.2451083   0.4245401   0.0000000), wk =   0.0960000
        k(    8) = (  -0.4902167   0.2830267   0.3023154), wk =   0.0960000
        k(    9) = (   0.4902167   0.8490802   0.0000000), wk =   0.0960000
        k(   10) = (   0.0000000   0.0000000   0.2267366), wk =   0.0320000
        k(   11) = (  -0.2451083  -0.1415134   0.3023154), wk =   0.0960000
        k(   12) = (   0.7353250   0.4245401   0.0000000), wk =   0.0960000
        k(   13) = (   0.4902167   0.2830267   0.0755789), wk =   0.0960000
        k(   14) = (  -0.2451083   0.1415134   0.3778943), wk =   0.0960000
        k(   15) = (   0.7353250   0.7075668   0.0755789), wk =   0.1920000
        k(   16) = (   0.4902167   0.5660535   0.1511577), wk =   0.1920000
        k(   17) = (   0.7353250  -0.4245401  -0.2267366), wk =   0.0960000
        k(   18) = (   0.0000000   0.0000000   0.4534732), wk =   0.0320000
        k(   19) = (   0.9804334   0.5660535   0.1511577), wk =   0.0960000

     Dense  grid:    67537 G-vectors     FFT dimensions: (  64,  64,  64)

     Estimated max dynamical RAM per process >      10.86 MB

     Estimated total dynamical RAM >       1.27 GB
     Message from routine sym_rho_init:
     some processors have no G-vectors for symmetrization
     Message from routine sym_rho_init:
     some processors have no G-vectors for symmetrization

     Check: negative core charge=   -0.000003

     Initial potential from superposition of free atoms

     starting charge   63.98899, renormalised to   64.00000
     Starting wfcs are   52 randomized atomic wfcs

     total cpu time spent up to now is        5.4 secs

     Self-consistent Calculation

     iteration #  1     ecut=    70.00 Ry     beta= 0.70
     CG style diagonalization
     ethr =  1.00E-02,  avg # of iterations =  2.6

     total cpu time spent up to now is       10.7 secs

     total energy              =    -366.64398609 Ry
     Harris-Foulkes estimate   =    -367.87092348 Ry
     estimated scf accuracy    <       1.75573847 Ry

     iteration #  2     ecut=    70.00 Ry     beta= 0.70
     CG style diagonalization
     ethr =  2.74E-03,  avg # of iterations =  4.4

     total cpu time spent up to now is       19.1 secs

     total energy              =    -367.07171765 Ry
     Harris-Foulkes estimate   =    -367.94878339 Ry
     estimated scf accuracy    <       1.83447553 Ry

     iteration #  3     ecut=    70.00 Ry     beta= 0.70
     CG style diagonalization
     ethr =  2.74E-03,  avg # of iterations =  3.8

     total cpu time spent up to now is       26.4 secs

     total energy              =    -367.41308382 Ry
     Harris-Foulkes estimate   =    -367.41564594 Ry
     estimated scf accuracy    <       0.01135356 Ry

     iteration #  4     ecut=    70.00 Ry     beta= 0.70
     CG style diagonalization
     ethr =  1.77E-05,  avg # of iterations =  4.5

     total cpu time spent up to now is       34.9 secs

     total energy              =    -367.42444920 Ry
     Harris-Foulkes estimate   =    -367.42583754 Ry
     estimated scf accuracy    <       0.00348513 Ry

     iteration #  5     ecut=    70.00 Ry     beta= 0.70
     CG style diagonalization
     ethr =  5.45E-06,  avg # of iterations =  3.5

     total cpu time spent up to now is       41.7 secs

     total energy              =    -367.42492424 Ry
     Harris-Foulkes estimate   =    -367.42497212 Ry
     estimated scf accuracy    <       0.00019219 Ry

     iteration #  6     ecut=    70.00 Ry     beta= 0.70
     CG style diagonalization
     ethr =  3.00E-07,  avg # of iterations =  4.1

     total cpu time spent up to now is       49.4 secs

     total energy              =    -367.42497823 Ry
     Harris-Foulkes estimate   =    -367.42499597 Ry
     estimated scf accuracy    <       0.00003038 Ry

     iteration #  7     ecut=    70.00 Ry     beta= 0.70
     CG style diagonalization
     ethr =  4.75E-08,  avg # of iterations =  4.1

     total cpu time spent up to now is       57.1 secs

     total energy              =    -367.42499036 Ry
     Harris-Foulkes estimate   =    -367.42499261 Ry
     estimated scf accuracy    <       0.00000487 Ry

     iteration #  8     ecut=    70.00 Ry     beta= 0.70
     CG style diagonalization
     ethr =  7.62E-09,  avg # of iterations =  4.0

     total cpu time spent up to now is       64.7 secs

     total energy              =    -367.42499163 Ry
     Harris-Foulkes estimate   =    -367.42499167 Ry
     estimated scf accuracy    <       0.00000008 Ry

     iteration #  9     ecut=    70.00 Ry     beta= 0.70
     CG style diagonalization
     ethr =  1.25E-10,  avg # of iterations =  4.6

     total cpu time spent up to now is       73.2 secs

     total energy              =    -367.42499171 Ry
     Harris-Foulkes estimate   =    -367.42499172 Ry
     estimated scf accuracy    <       0.00000001 Ry

     iteration # 10     ecut=    70.00 Ry     beta= 0.70
     CG style diagonalization
     ethr =  2.11E-11,  avg # of iterations =  3.8

     total cpu time spent up to now is       80.5 secs

     End of self-consistent calculation

          k = 0.0000 0.0000 0.0000 (  8385 PWs)   bands (ev):

   -33.6483 -33.6346 -16.7532 -16.7448 -15.0713 -15.0713 -14.7082 -14.7082
   -14.6371 -14.5110 -13.7362 -13.7362 -13.1839 -13.1839  -3.3174  -3.0792
    -1.4999  -1.4383  -1.4383  -1.1923  -1.1923  -0.0920   2.4061   2.4061
     2.7458   2.7458   2.9725   2.9725   3.6723   3.6723   3.7529   4.1990

          k =-0.2451-0.1415 0.0756 (  8437 PWs)   bands (ev):

   -33.6469 -33.6358 -16.7848 -16.7086 -15.0671 -14.9715 -14.8359 -14.7120
   -14.6466 -14.6101 -13.6629 -13.5198 -13.3245 -13.2180  -3.1871  -3.1008
    -1.4251  -1.3821  -1.2980  -1.2115  -1.1840  -0.2580   2.4601   2.5296
     2.6483   2.6762   2.7897   2.8301   3.4764   3.5071   4.0208   4.1860

          k =-0.4902-0.2830 0.1512 (  8435 PWs)   bands (ev):

   -33.6432 -33.6390 -16.7792 -16.7065 -15.0208 -14.9571 -14.9378 -14.8402
   -14.6012 -14.5668 -13.5199 -13.4377 -13.3905 -13.3301  -3.0563  -3.0250
    -1.4444  -1.3506  -1.1802  -1.1575  -0.8767  -0.5261   2.2267   2.3156
     2.5421   2.5878   2.8377   2.9248   3.2381   3.2548   4.2070   4.2490

          k =-0.2451 0.1415 0.1512 (  8406 PWs)   bands (ev):

   -33.6466 -33.6361 -16.7938 -16.7015 -15.0295 -15.0186 -14.7579 -14.7222
   -14.6768 -14.6510 -13.5923 -13.5661 -13.2883 -13.2640  -3.1714  -3.1268
    -1.3841  -1.3651  -1.3513  -1.1884  -1.1621  -0.2918   2.4699   2.4789
     2.6322   2.6697   2.7986   2.9188   3.3762   3.5676   4.0262   4.1616

          k =-0.4902 0.0000 0.2267 (  8438 PWs)   bands (ev):

   -33.6441 -33.6382 -16.8031 -16.6862 -15.0784 -14.9846 -14.8368 -14.7651
   -14.6347 -14.5929 -13.6029 -13.4846 -13.3426 -13.2706  -3.1028  -3.0276
    -1.4159  -1.3252  -1.2668  -1.1366  -0.9342  -0.4771   2.2516   2.4139
     2.5441   2.5922   2.7494   2.9353   3.1759   3.4087   4.1756   4.2483

          k = 0.4902 0.5661-0.0756 (  8454 PWs)   bands (ev):

   -33.6415 -33.6406 -16.7664 -16.7226 -15.0466 -14.9860 -14.9040 -14.7799
   -14.6197 -14.5796 -13.5792 -13.4823 -13.3508 -13.2782  -3.0345  -2.9744
    -1.4527  -1.3352  -1.2107  -1.1210  -0.6940  -0.6234   2.1602   2.2327
     2.4698   2.5441   2.7766   2.8467   3.2555   3.2940   4.2517   4.3103

          k = 0.2451 0.4245 0.0000 (  8413 PWs)   bands (ev):

   -33.6448 -33.6375 -16.8136 -16.6686 -15.0842 -14.9988 -14.8780 -14.7019
   -14.6683 -14.5662 -13.6030 -13.5098 -13.3156 -13.2746  -3.1070  -3.0130
    -1.4616  -1.2775  -1.2275  -1.1536  -1.0364  -0.4324   2.2528   2.5032
     2.5169   2.5692   2.6790   2.9334   3.2707   3.3960   4.1754   4.2607

          k =-0.4902 0.2830 0.3023 (  8432 PWs)   bands (ev):

   -33.6438 -33.6384 -16.8551 -16.6231 -15.1329 -15.1053 -14.7059 -14.6820
   -14.6572 -14.5495 -13.7001 -13.6040 -13.2536 -13.2183  -3.1880  -2.8922
    -1.5031  -1.2916  -1.1734  -1.0927  -0.8593  -0.5675   2.0572   2.3384
     2.5322   2.7495   2.7500   2.8721   3.1484   3.4214   4.0703   4.3642

          k = 0.4902 0.8491 0.0000 (  8453 PWs)   bands (ev):

   -33.6425 -33.6397 -16.8160 -16.6738 -15.1041 -15.0296 -14.7620 -14.7311
   -14.6671 -14.5811 -13.6741 -13.5239 -13.3019 -13.2303  -3.1003  -2.9071
    -1.4416  -1.3635  -1.2106  -1.0873  -0.7096  -0.5892   2.0405   2.2441
     2.5671   2.6211   2.7179   2.7260   3.2503   3.3603   4.1738   4.3784

          k = 0.0000 0.0000 0.2267 (  8425 PWs)   bands (ev):

   -33.6470 -33.6359 -16.7539 -16.7470 -15.0462 -15.0462 -14.7590 -14.7590
   -14.6230 -14.5211 -13.6675 -13.6675 -13.2272 -13.2272  -3.3128  -3.1277
    -1.4134  -1.4134  -1.3461  -1.2148  -1.2148  -0.2119   2.4400   2.4400
     2.7151   2.7151   3.0282   3.0282   3.5926   3.5926   3.7883   4.1427

          k =-0.2451-0.1415 0.3023 (  8432 PWs)   bands (ev):

   -33.6450 -33.6377 -16.7649 -16.7340 -15.0636 -14.9362 -14.9146 -14.6806
   -14.6689 -14.5728 -13.6405 -13.4555 -13.3950 -13.2346  -3.2096  -3.1185
    -1.3743  -1.3607  -1.2614  -1.2329  -1.0731  -0.3951   2.4407   2.5480
     2.6312   2.6577   2.7786   3.0225   3.3295   3.4387   4.0199   4.1503

          k = 0.7353 0.4245 0.0000 (  8430 PWs)   bands (ev):

   -33.6416 -33.6407 -16.7804 -16.7107 -15.0760 -14.9643 -14.8878 -14.7837
   -14.6256 -14.5565 -13.5673 -13.5003 -13.3650 -13.2700  -3.1200  -2.9688
    -1.4592  -1.3077  -1.2267  -1.1386  -0.7440  -0.6193   2.1830   2.3227
     2.5165   2.6434   2.7831   3.0767   3.0773   3.2574   4.1624   4.2821

          k = 0.4902 0.2830 0.0756 (  8431 PWs)   bands (ev):

   -33.6441 -33.6382 -16.8331 -16.6445 -15.0966 -15.0593 -14.8190 -14.7279
   -14.6509 -14.5342 -13.6485 -13.4943 -13.3288 -13.2502  -3.1393  -2.9367
    -1.5000  -1.2704  -1.1726  -1.1408  -0.9351  -0.5119   2.1122   2.4045
     2.4675   2.6914   2.7092   3.0747   3.0976   3.3740   4.1261   4.3246

          k =-0.2451 0.1415 0.3779 (  8440 PWs)   bands (ev):

   -33.6443 -33.6384 -16.7875 -16.7145 -15.0607 -14.9283 -14.8595 -14.7495
   -14.6426 -14.6137 -13.5749 -13.4769 -13.3600 -13.2932  -3.1788  -3.1648
    -1.3913  -1.3243  -1.2830  -1.1886  -1.0015  -0.4842   2.4530   2.4660
     2.6289   2.6460   2.8958   3.0853   3.1781   3.4798   4.0497   4.0955

          k = 0.7353 0.7076 0.0756 (  8424 PWs)   bands (ev):

   -33.6423 -33.6400 -16.7724 -16.7281 -15.0466 -14.9950 -14.7796 -14.7581
   -14.6691 -14.6379 -13.5667 -13.5013 -13.3359 -13.2918  -3.0876  -3.0593
    -1.3746  -1.3702  -1.2420  -1.1538  -0.7632  -0.5983   2.2605   2.3099
     2.6064   2.6683   2.7638   2.8672   3.1804   3.3304   4.1882   4.2182

          k = 0.4902 0.5661 0.1512 (  8437 PWs)   bands (ev):

   -33.6422 -33.6399 -16.8022 -16.6873 -15.0831 -15.0149 -14.8539 -14.6857
   -14.6654 -14.5877 -13.6523 -13.4847 -13.3419 -13.2360  -3.0823  -2.9256
    -1.4719  -1.3179  -1.1734  -1.1458  -0.7181  -0.5883   2.0763   2.2488
     2.4922   2.6171   2.7278   2.8074   3.2585   3.3173   4.1984   4.3593

          k = 0.7353-0.4245-0.2267 (  8442 PWs)   bands (ev):

   -33.6425 -33.6397 -16.8362 -16.6504 -15.1384 -15.0531 -14.7407 -14.6966
   -14.6663 -14.5418 -13.6360 -13.6356 -13.2595 -13.2326  -3.1819  -2.9063
    -1.5020  -1.2782  -1.1506  -1.1469  -0.7455  -0.6423   2.0841   2.3110
     2.6009   2.7075   2.7373   2.8747   3.1650   3.3416   4.0882   4.3450

          k = 0.0000 0.0000 0.4535 (  8428 PWs)   bands (ev):

   -33.6436 -33.6394 -16.7542 -16.7515 -14.9743 -14.9743 -14.8681 -14.8681
   -14.5882 -14.5493 -13.5115 -13.5115 -13.3467 -13.3467  -3.2862  -3.2195
    -1.3501  -1.3501  -1.2744  -1.2744  -0.9706  -0.5396   2.5278   2.5278
     2.6332   2.6332   3.1835   3.1835   3.3980   3.3980   3.8840   4.0154

          k = 0.9804 0.5661 0.1512 (  8406 PWs)   bands (ev):

   -33.6418 -33.6409 -16.7652 -16.7391 -15.0542 -14.9501 -14.8730 -14.7582
   -14.6312 -14.5767 -13.5713 -13.4409 -13.4109 -13.2901  -3.2125  -3.1489
    -1.3750  -1.2856  -1.2673  -1.2595  -0.7822  -0.6762   2.4396   2.5024
     2.6252   2.6268   2.9368   3.1105   3.2353   3.3169   4.0395   4.0941

     highest occupied level (ev):     4.3784

!    total energy              =    -367.42499171 Ry
     Harris-Foulkes estimate   =    -367.42499171 Ry
     estimated scf accuracy    <          3.3E-09 Ry

     The total energy is the sum of the following terms:

     one-electron contribution =    -143.49927574 Ry
     hartree contribution      =     101.23268214 Ry
     xc contribution           =     -75.10309850 Ry
     ewald contribution        =    -250.05529961 Ry

     convergence has been achieved in  10 iterations

     Forces acting on atoms (cartesian axes, Ry/au):

     atom    1 type  1   force =     0.00000000    0.00000000    0.00000000
     atom    2 type  1   force =     0.00000000   -0.00000000    0.00000000
     atom    3 type  2   force =     0.00000000   -0.00000000   -0.00000000
     atom    4 type  2   force =     0.00000000   -0.00000000   -0.00000000
     atom    5 type  3   force =    -0.02453426    0.04249458    0.00000000
     atom    6 type  3   force =     0.04906852    0.00000000   -0.00000000
     atom    7 type  3   force =    -0.02453426   -0.04249458   -0.00000000
     atom    8 type  3   force =    -0.04906852   -0.00000000    0.00000000
     atom    9 type  3   force =     0.02453426    0.04249458    0.00000000
     atom   10 type  3   force =     0.02453426   -0.04249458   -0.00000000

     Total force =     0.120193     Total SCF correction =     0.000038


     Computing stress (Cartesian axis) and pressure

          total   stress  (Ry/bohr**3)                   (kbar)     P=  -39.11
  -0.00046142  -0.00000000   0.00000000        -67.88     -0.00      0.00
   0.00000000  -0.00046142  -0.00000000          0.00    -67.88     -0.00
  -0.00000000  -0.00000000   0.00012532         -0.00     -0.00     18.44


     BFGS Geometry Optimization

     number of scf cycles    =   1
     number of bfgs steps    =   0

     energy   new            =    -367.4249917115 Ry

     new trust radius        =       0.0490685195 bohr
     new conv_thr            =       0.0000000100 Ry


ATOMIC_POSITIONS (crystal)
Ca       0.500000000   0.500000000   0.500000000
Ca       0.000000000  -0.000000000  -0.000000000
C        0.250000000   0.250000000   0.250000000
C        0.750000000   0.750000000   0.750000000
O        0.501954830   0.998045170   0.250000000
O        0.998045170   0.250000000   0.501954830
O        0.250000000   0.501954830   0.998045170
O        0.001954830   0.750000000   0.498045170
O        0.750000000   0.498045170   0.001954830
O        0.498045170   0.001954830   0.750000000



     Writing output data file CCOrand3.save/
     NEW-OLD atomic charge density approx. for the potential

     Check: negative core charge=   -0.000003

     total cpu time spent up to now is       81.8 secs

     Self-consistent Calculation

     iteration #  1     ecut=    70.00 Ry     beta= 0.70
     CG style diagonalization
     c_bands:  2 eigenvalues not converged
     c_bands:  5 eigenvalues not converged
     c_bands:  1 eigenvalues not converged
     c_bands:  4 eigenvalues not converged
     c_bands:  2 eigenvalues not converged
     c_bands:  2 eigenvalues not converged
     c_bands:  2 eigenvalues not converged
     c_bands:  2 eigenvalues not converged
     c_bands:  3 eigenvalues not converged
     c_bands:  2 eigenvalues not converged
     c_bands:  1 eigenvalues not converged
     c_bands:  4 eigenvalues not converged
     c_bands:  5 eigenvalues not converged
     c_bands:  5 eigenvalues not converged
     c_bands:  4 eigenvalues not converged
     c_bands:  5 eigenvalues not converged
     ethr =  1.00E-06,  avg # of iterations = 10.6

     total cpu time spent up to now is      101.2 secs

     total energy              =    -367.42690356 Ry
     Harris-Foulkes estimate   =    -367.43328536 Ry
     estimated scf accuracy    <       0.00867247 Ry

     iteration #  2     ecut=    70.00 Ry     beta= 0.70
     CG style diagonalization
     ethr =  1.36E-05,  avg # of iterations =  4.0

     total cpu time spent up to now is      108.8 secs

     total energy              =    -367.42932581 Ry
     Harris-Foulkes estimate   =    -367.43158619 Ry
     estimated scf accuracy    <       0.00407139 Ry

     iteration #  3     ecut=    70.00 Ry     beta= 0.70
     CG style diagonalization
     ethr =  6.36E-06,  avg # of iterations =  3.6

     total cpu time spent up to now is      115.6 secs

     total energy              =    -367.43030247 Ry
     Harris-Foulkes estimate   =    -367.43034202 Ry
     estimated scf accuracy    <       0.00008507 Ry

     iteration #  4     ecut=    70.00 Ry     beta= 0.70
     CG style diagonalization
     ethr =  1.33E-07,  avg # of iterations =  4.2

     total cpu time spent up to now is      123.6 secs

     total energy              =    -367.43036305 Ry
     Harris-Foulkes estimate   =    -367.43037829 Ry
     estimated scf accuracy    <       0.00003923 Ry

     iteration #  5     ecut=    70.00 Ry     beta= 0.70
     CG style diagonalization
     ethr =  6.13E-08,  avg # of iterations =  3.5

     total cpu time spent up to now is      130.2 secs

     total energy              =    -367.43036790 Ry
     Harris-Foulkes estimate   =    -367.43036883 Ry
     estimated scf accuracy    <       0.00000161 Ry

     iteration #  6     ecut=    70.00 Ry     beta= 0.70
     CG style diagonalization
     ethr =  2.52E-09,  avg # of iterations =  4.1

     total cpu time spent up to now is      138.0 secs

     total energy              =    -367.43036850 Ry
     Harris-Foulkes estimate   =    -367.43036859 Ry
     estimated scf accuracy    <       0.00000019 Ry

     iteration #  7     ecut=    70.00 Ry     beta= 0.70
     CG style diagonalization
     ethr =  3.01E-10,  avg # of iterations =  4.1

     total cpu time spent up to now is      145.7 secs

     total energy              =    -367.43036857 Ry
     Harris-Foulkes estimate   =    -367.43036859 Ry
     estimated scf accuracy    <       0.00000003 Ry

     iteration #  8     ecut=    70.00 Ry     beta= 0.70
     CG style diagonalization
     ethr =  4.14E-11,  avg # of iterations =  3.9

     total cpu time spent up to now is      153.1 secs

     End of self-consistent calculation

          k = 0.0000 0.0000 0.0000 (  8385 PWs)   bands (ev):

   -33.7300 -33.7168 -17.0758 -17.0407 -15.1309 -15.1309 -14.7808 -14.7808
   -14.7125 -14.6301 -13.8881 -13.8881 -13.3604 -13.3604  -3.2440  -2.9715
    -1.6628  -1.4907  -1.4907  -1.2532  -1.2532  -0.3260   2.4312   2.4312
     2.7326   2.7326   2.9654   2.9654   3.6763   3.6763   3.8879   4.3172

          k =-0.2451-0.1415 0.0756 (  8437 PWs)   bands (ev):

   -33.7286 -33.7179 -17.0979 -17.0141 -15.1280 -15.0370 -14.9130 -14.7868
   -14.7263 -14.7078 -13.8172 -13.6796 -13.4957 -13.3915  -3.1094  -2.9927
    -1.5575  -1.4396  -1.3781  -1.2874  -1.2486  -0.4762   2.4740   2.5364
     2.6495   2.6746   2.7858   2.8326   3.4943   3.5186   4.1309   4.3005

          k =-0.4902-0.2830 0.1512 (  8435 PWs)   bands (ev):

   -33.7251 -33.7210 -17.0867 -17.0201 -15.0843 -15.0240 -15.0039 -14.9075
   -14.6959 -14.6646 -13.6806 -13.6002 -13.5556 -13.4956  -2.9509  -2.9329
    -1.5284  -1.4226  -1.2535  -1.2317  -1.0359  -0.7162   2.2299   2.3158
     2.5451   2.5837   2.8578   2.9355   3.2557   3.2744   4.3173   4.3560

          k =-0.2451 0.1415 0.1512 (  8406 PWs)   bands (ev):

   -33.7283 -33.7182 -17.1044 -17.0088 -15.0932 -15.0814 -14.8416 -14.8093
   -14.7605 -14.7258 -13.7474 -13.7249 -13.4605 -13.4369  -3.0939  -3.0204
    -1.5011  -1.4403  -1.4244  -1.2702  -1.2258  -0.5077   2.4866   2.4874
     2.6289   2.6690   2.8006   2.9173   3.3898   3.5781   4.1401   4.2765

          k =-0.4902 0.0000 0.2267 (  8438 PWs)   bands (ev):

   -33.7260 -33.7202 -17.1074 -17.0017 -15.1396 -15.0534 -14.9134 -14.8366
   -14.7192 -14.6865 -13.7584 -13.6468 -13.5086 -13.4425  -2.9967  -2.9404
    -1.4921  -1.3963  -1.3607  -1.2045  -1.0758  -0.6741   2.2574   2.4252
     2.5414   2.5909   2.7610   2.9482   3.1908   3.4263   4.2866   4.3551

          k = 0.4902 0.5661-0.0756 (  8454 PWs)   bands (ev):

   -33.7234 -33.7226 -17.0728 -17.0361 -15.1106 -15.0513 -14.9722 -14.8555
   -14.7080 -14.6772 -13.7347 -13.6416 -13.5174 -13.4484  -2.9323  -2.8753
    -1.5322  -1.4149  -1.2913  -1.1943  -0.8724  -0.7968   2.1639   2.2385
     2.4733   2.5443   2.7939   2.8636   3.2732   3.3121   4.3580   4.4163

          k = 0.2451 0.4245 0.0000 (  8413 PWs)   bands (ev):

   -33.7266 -33.7196 -17.1175 -16.9866 -15.1466 -15.0627 -14.9466 -14.7887
   -14.7416 -14.6643 -13.7613 -13.6698 -13.4825 -13.4458  -2.9980  -2.9272
    -1.5472  -1.3497  -1.2981  -1.2210  -1.1871  -0.6324   2.2553   2.5024
     2.5294   2.5602   2.6984   2.9409   3.2848   3.4141   4.2863   4.3673

          k =-0.4902 0.2830 0.3023 (  8432 PWs)   bands (ev):

   -33.7256 -33.7204 -17.1490 -16.9533 -15.1938 -15.1663 -14.7796 -14.7548
   -14.7320 -14.6608 -13.8508 -13.7588 -13.4251 -13.3941  -3.0803  -2.8041
    -1.5600  -1.3733  -1.2928  -1.1582  -1.0026  -0.7579   2.0676   2.3623
     2.5334   2.7390   2.7584   2.8850   3.1630   3.4373   4.1835   4.4712

          k = 0.4902 0.8491 0.0000 (  8453 PWs)   bands (ev):

   -33.7243 -33.7216 -17.1144 -16.9952 -15.1626 -15.1013 -14.8336 -14.8193
   -14.7404 -14.6777 -13.8236 -13.6801 -13.4729 -13.4047  -2.9945  -2.8117
    -1.5016  -1.4504  -1.3203  -1.1555  -0.8711  -0.7728   2.0507   2.2613
     2.5653   2.6185   2.7331   2.7431   3.2675   3.3783   4.2821   4.4828

          k = 0.0000 0.0000 0.2267 (  8425 PWs)   bands (ev):

   -33.7287 -33.7181 -17.0737 -17.0452 -15.1070 -15.1070 -14.8305 -14.8305
   -14.7029 -14.6363 -13.8216 -13.8216 -13.4014 -13.4014  -3.2385  -3.0291
    -1.5080  -1.4668  -1.4668  -1.2750  -1.2750  -0.4349   2.4611   2.4611
     2.7044   2.7044   3.0235   3.0235   3.5965   3.5965   3.9213   4.2630

          k =-0.2451-0.1415 0.3023 (  8432 PWs)   bands (ev):

   -33.7268 -33.7197 -17.0784 -17.0384 -15.1271 -15.0049 -14.9786 -14.7574
   -14.7497 -14.6767 -13.7978 -13.6164 -13.5624 -13.4063  -3.1290  -3.0198
    -1.4615  -1.4307  -1.3229  -1.2992  -1.2038  -0.6014   2.4543   2.5531
     2.6296   2.6561   2.7801   3.0299   3.3409   3.4547   4.1320   4.2668

          k = 0.7353 0.4245 0.0000 (  8430 PWs)   bands (ev):

   -33.7235 -33.7226 -17.0824 -17.0286 -15.1395 -15.0285 -14.9569 -14.8553
   -14.7101 -14.6627 -13.7247 -13.6576 -13.5329 -13.4395  -3.0225  -2.8701
    -1.5280  -1.3942  -1.3050  -1.2153  -0.9034  -0.8050   2.1890   2.3315
     2.5167   2.6396   2.7948   3.0931   3.0935   3.2803   4.2694   4.3922

          k = 0.4902 0.2830 0.0756 (  8431 PWs)   bands (ev):

   -33.7259 -33.7202 -17.1318 -16.9695 -15.1566 -15.1221 -14.8904 -14.8010
   -14.7322 -14.6391 -13.8027 -13.6533 -13.4968 -13.4230  -3.0306  -2.8481
    -1.5722  -1.3493  -1.2407  -1.2355  -1.0838  -0.7032   2.1196   2.4061
     2.4801   2.6821   2.7238   3.0834   3.1119   3.3939   4.2375   4.4320

          k =-0.2451 0.1415 0.3779 (  8440 PWs)   bands (ev):

   -33.7261 -33.7204 -17.0948 -17.0240 -15.1229 -14.9966 -14.9377 -14.8218
   -14.7330 -14.7006 -13.7329 -13.6360 -13.5301 -13.4636  -3.0846  -3.0825
    -1.4547  -1.3851  -1.3661  -1.2540  -1.1492  -0.6836   2.4597   2.4814
     2.6229   2.6489   2.9041   3.0902   3.1860   3.4894   4.1665   4.2118

          k = 0.7353 0.7076 0.0756 (  8424 PWs)   bands (ev):

   -33.7242 -33.7220 -17.0787 -17.0385 -15.1094 -15.0647 -14.8572 -14.8484
   -14.7435 -14.7236 -13.7215 -13.6601 -13.5048 -13.4635  -2.9885  -2.9676
    -1.4427  -1.4391  -1.3369  -1.2281  -0.9227  -0.7821   2.2707   2.3225
     2.6061   2.6614   2.7775   2.8801   3.1998   3.3489   4.2979   4.3259

          k = 0.4902 0.5661 0.1512 (  8437 PWs)   bands (ev):

   -33.7241 -33.7219 -17.1028 -17.0065 -15.1459 -15.0803 -14.9284 -14.7682
   -14.7402 -14.6872 -13.8037 -13.6419 -13.5112 -13.4094  -2.9776  -2.8291
    -1.5451  -1.4027  -1.2517  -1.2314  -0.8872  -0.7653   2.0842   2.2628
     2.4942   2.6124   2.7429   2.8244   3.2742   3.3385   4.3055   4.4642

          k = 0.7353-0.4245-0.2267 (  8442 PWs)   bands (ev):

   -33.7244 -33.7217 -17.1310 -16.9772 -15.1994 -15.1166 -14.8155 -14.7704
   -14.7400 -14.6530 -13.7903 -13.7867 -13.4334 -13.4047  -3.0785  -2.8145
    -1.5637  -1.3614  -1.2443  -1.2247  -0.9124  -0.8173   2.0936   2.3328
     2.5992   2.7188   2.7274   2.8887   3.1870   3.3574   4.1985   4.4532

          k = 0.0000 0.0000 0.4535 (  8428 PWs)   bands (ev):

   -33.7254 -33.7213 -17.0668 -17.0559 -15.0382 -15.0382 -14.9361 -14.9361
   -14.6795 -14.6541 -13.6719 -13.6719 -13.5148 -13.5148  -3.2084  -3.1339
    -1.4057  -1.4057  -1.3326  -1.3326  -1.1424  -0.7363   2.5383   2.5383
     2.6312   2.6312   3.1831   3.1831   3.4009   3.4009   4.0125   4.1396

          k = 0.9804 0.5661 0.1512 (  8406 PWs)   bands (ev):

   -33.7237 -33.7228 -17.0700 -17.0510 -15.1184 -15.0194 -14.9399 -14.8305
   -14.7185 -14.6763 -13.7307 -13.6069 -13.5729 -13.4592  -3.1258  -3.0615
    -1.4336  -1.3512  -1.3355  -1.3293  -0.9536  -0.8598   2.4490   2.5090
     2.6271   2.6291   2.9401   3.1205   3.2445   3.3272   4.1553   4.2116

     highest occupied level (ev):     4.4828

!    total energy              =    -367.43036858 Ry
     Harris-Foulkes estimate   =    -367.43036858 Ry
     estimated scf accuracy    <          1.1E-09 Ry

     The total energy is the sum of the following terms:

     one-electron contribution =    -147.12368849 Ry
     hartree contribution      =     103.01362803 Ry
     xc contribution           =     -75.28718888 Ry
     ewald contribution        =    -248.03311925 Ry

     convergence has been achieved in   8 iterations

     Forces acting on atoms (cartesian axes, Ry/au):

     atom    1 type  1   force =     0.00000000   -0.00000000   -0.00000000
     atom    2 type  1   force =     0.00000000    0.00000000    0.00000000
     atom    3 type  2   force =    -0.00000000   -0.00000000   -0.00000000
     atom    4 type  2   force =     0.00000000   -0.00000000   -0.00000000
     atom    5 type  3   force =     0.00716114   -0.01240346   -0.00000000
     atom    6 type  3   force =    -0.01432229    0.00000000   -0.00000000
     atom    7 type  3   force =     0.00716114    0.01240346    0.00000000
     atom    8 type  3   force =     0.01432229   -0.00000000    0.00000000
     atom    9 type  3   force =    -0.00716114   -0.01240346   -0.00000000
     atom   10 type  3   force =    -0.00716114    0.01240346    0.00000000

     Total force =     0.035082     Total SCF correction =     0.000098


     Computing stress (Cartesian axis) and pressure

          total   stress  (Ry/bohr**3)                   (kbar)     P=    4.36
   0.00000773   0.00000000   0.00000000          1.14      0.00      0.00
   0.00000000   0.00000773   0.00000000          0.00      1.14      0.00
  -0.00000000   0.00000000   0.00007337         -0.00      0.00     10.79


     number of scf cycles    =   2
     number of bfgs steps    =   1

     energy   old            =    -367.4249917115 Ry
     energy   new            =    -367.4303685792 Ry

     CASE: energy  _new < energy  _old

     new trust radius        =       0.0110863607 bohr
     new conv_thr            =       0.0000000014 Ry


ATOMIC_POSITIONS (crystal)
Ca       0.500000000   0.500000000   0.500000000
Ca       0.000000000  -0.000000000  -0.000000000
C        0.250000000   0.250000000   0.250000000
C        0.750000000   0.750000000   0.750000000
O        0.503098548   0.996901452   0.250000000
O        0.996901452   0.250000000   0.503098548
O        0.250000000   0.503098548   0.996901452
O        0.003098548   0.750000000   0.496901452
O        0.750000000   0.496901452   0.003098548
O        0.496901452   0.003098548   0.750000000



     Writing output data file CCOrand3.save/
     NEW-OLD atomic charge density approx. for the potential

     Check: negative core charge=   -0.000003

     total cpu time spent up to now is      154.0 secs

     Self-consistent Calculation

     iteration #  1     ecut=    70.00 Ry     beta= 0.70
     CG style diagonalization
     c_bands:  1 eigenvalues not converged
     ethr =  1.00E-06,  avg # of iterations =  5.4

     total cpu time spent up to now is      164.0 secs

     total energy              =    -367.43062446 Ry
     Harris-Foulkes estimate   =    -367.43095601 Ry
     estimated scf accuracy    <       0.00044842 Ry

     iteration #  2     ecut=    70.00 Ry     beta= 0.70
     CG style diagonalization
     ethr =  7.01E-07,  avg # of iterations =  4.0

     total cpu time spent up to now is      171.5 secs

     total energy              =    -367.43076013 Ry
     Harris-Foulkes estimate   =    -367.43087186 Ry
     estimated scf accuracy    <       0.00019939 Ry

     iteration #  3     ecut=    70.00 Ry     beta= 0.70
     CG style diagonalization
     ethr =  3.12E-07,  avg # of iterations =  3.6

     total cpu time spent up to now is      178.2 secs

     total energy              =    -367.43080831 Ry
     Harris-Foulkes estimate   =    -367.43080940 Ry
     estimated scf accuracy    <       0.00000272 Ry

     iteration #  4     ecut=    70.00 Ry     beta= 0.70
     CG style diagonalization
     ethr =  4.24E-09,  avg # of iterations =  4.5

     total cpu time spent up to now is      186.5 secs

     total energy              =    -367.43081090 Ry
     Harris-Foulkes estimate   =    -367.43081207 Ry
     estimated scf accuracy    <       0.00000310 Ry

     iteration #  5     ecut=    70.00 Ry     beta= 0.70
     CG style diagonalization
     ethr =  4.24E-09,  avg # of iterations =  3.6

     total cpu time spent up to now is      193.2 secs

     total energy              =    -367.43081115 Ry
     Harris-Foulkes estimate   =    -367.43081125 Ry
     estimated scf accuracy    <       0.00000022 Ry

     iteration #  6     ecut=    70.00 Ry     beta= 0.70
     CG style diagonalization
     ethr =  3.41E-10,  avg # of iterations =  3.7

     total cpu time spent up to now is      200.1 secs

     total energy              =    -367.43081119 Ry
     Harris-Foulkes estimate   =    -367.43081120 Ry
     estimated scf accuracy    <       0.00000002 Ry

     iteration #  7     ecut=    70.00 Ry     beta= 0.70
     CG style diagonalization
     ethr =  2.67E-11,  avg # of iterations =  3.9

     total cpu time spent up to now is      207.3 secs

     total energy              =    -367.43081120 Ry
     Harris-Foulkes estimate   =    -367.43081120 Ry
     estimated scf accuracy    <          4.9E-09 Ry

     iteration #  8     ecut=    70.00 Ry     beta= 0.70
     CG style diagonalization
     ethr =  7.66E-12,  avg # of iterations =  3.9

     total cpu time spent up to now is      214.6 secs

     End of self-consistent calculation

          k = 0.0000 0.0000 0.0000 (  8385 PWs)   bands (ev):

   -33.7115 -33.6982 -17.0016 -16.9718 -15.1171 -15.1171 -14.7644 -14.7644
   -14.6955 -14.6040 -13.8529 -13.8529 -13.3199 -13.3199  -3.2607  -2.9960
    -1.6249  -1.4789  -1.4789  -1.2396  -1.2396  -0.2720   2.4256   2.4256
     2.7353   2.7353   2.9668   2.9668   3.6753   3.6753   3.8567   4.2897

          k =-0.2451-0.1415 0.0756 (  8437 PWs)   bands (ev):

   -33.7101 -33.6994 -17.0257 -16.9431 -15.1140 -15.0220 -14.8954 -14.7697
   -14.7085 -14.6862 -13.7815 -13.6428 -13.4563 -13.3516  -3.1270  -3.0172
    -1.5244  -1.4266  -1.3609  -1.2715  -1.2342  -0.4258   2.4710   2.5349
     2.6489   2.6748   2.7863   2.8318   3.4906   3.5160   4.1049   4.2738

          k =-0.4902-0.2830 0.1512 (  8435 PWs)   bands (ev):

   -33.7066 -33.7025 -17.0155 -16.9475 -15.0697 -15.0087 -14.9887 -14.8921
   -14.6749 -14.6429 -13.6435 -13.5628 -13.5176 -13.4575  -2.9747  -2.9537
    -1.5084  -1.4059  -1.2371  -1.2150  -1.0001  -0.6726   2.2290   2.3156
     2.5443   2.5845   2.8531   2.9328   3.2517   3.2699   4.2915   4.3309

          k =-0.2451 0.1415 0.1512 (  8406 PWs)   bands (ev):

   -33.7099 -33.6996 -17.0326 -16.9375 -15.0786 -15.0670 -14.8227 -14.7893
   -14.7424 -14.7088 -13.7116 -13.6883 -13.4209 -13.3972  -3.1114  -3.0445
    -1.4658  -1.4267  -1.4110  -1.2532  -1.2116  -0.4578   2.4836   2.4849
     2.6293   2.6690   2.8000   2.9173   3.3869   3.5757   4.1133   4.2497

          k =-0.4902 0.0000 0.2267 (  8438 PWs)   bands (ev):

   -33.7075 -33.7017 -17.0369 -16.9287 -15.1255 -15.0377 -14.8960 -14.8203
   -14.7003 -14.6657 -13.7224 -13.6094 -13.4704 -13.4031  -3.0207  -2.9600
    -1.4736  -1.3801  -1.3389  -1.1893  -1.0447  -0.6288   2.2560   2.4226
     2.5419   2.5911   2.7582   2.9451   3.1874   3.4224   4.2607   4.3300

          k = 0.4902 0.5661-0.0756 (  8454 PWs)   bands (ev):

   -33.7049 -33.7041 -17.0018 -16.9636 -15.0959 -15.0363 -14.9566 -14.8383
   -14.6884 -14.6557 -13.6988 -13.6049 -13.4791 -13.4093  -2.9554  -2.8977
    -1.5137  -1.3962  -1.2731  -1.1778  -0.8317  -0.7575   2.1629   2.2371
     2.4724   2.5441   2.7898   2.8596   3.2692   3.3079   4.3331   4.3914

          k = 0.2451 0.4245 0.0000 (  8413 PWs)   bands (ev):

   -33.7081 -33.7010 -17.0471 -16.9131 -15.1323 -15.0480 -14.9309 -14.7693
   -14.7250 -14.6426 -13.7247 -13.6329 -13.4441 -13.4065  -3.0226  -2.9466
    -1.5265  -1.3329  -1.2823  -1.2060  -1.1537  -0.5864   2.2546   2.5025
     2.5266   2.5621   2.6938   2.9389   3.2816   3.4100   4.2604   4.3423

          k =-0.4902 0.2830 0.3023 (  8432 PWs)   bands (ev):

   -33.7071 -33.7019 -17.0807 -16.8773 -15.1797 -15.1522 -14.7629 -14.7383
   -14.7150 -14.6363 -13.8159 -13.7229 -13.3858 -13.3538  -3.1046  -2.8240
    -1.5473  -1.3546  -1.2636  -1.1435  -0.9716  -0.7141   2.0652   2.3568
     2.5330   2.7414   2.7562   2.8820   3.1596   3.4337   4.1571   4.4462

          k = 0.4902 0.8491 0.0000 (  8453 PWs)   bands (ev):

   -33.7058 -33.7031 -17.0451 -16.9210 -15.1491 -15.0850 -14.8173 -14.7993
   -14.7238 -14.6565 -13.7889 -13.6440 -13.4336 -13.3647  -3.0184  -2.8332
    -1.4882  -1.4303  -1.2941  -1.1401  -0.8350  -0.7309   2.0483   2.2574
     2.5656   2.6191   2.7294   2.7391   3.2636   3.3742   4.2567   4.4583

          k = 0.0000 0.0000 0.2267 (  8425 PWs)   bands (ev):

   -33.7103 -33.6995 -17.0000 -16.9758 -15.0930 -15.0930 -14.8142 -14.8142
   -14.6849 -14.6110 -13.7860 -13.7860 -13.3614 -13.3614  -3.2553  -3.0513
    -1.4705  -1.4548  -1.4548  -1.2615  -1.2615  -0.3835   2.4563   2.4563
     2.7066   2.7066   3.0244   3.0244   3.5956   3.5956   3.8905   4.2351

          k =-0.2451-0.1415 0.3023 (  8432 PWs)   bands (ev):

   -33.7083 -33.7012 -17.0060 -16.9678 -15.1125 -14.9891 -14.9640 -14.7396
   -14.7320 -14.6538 -13.7614 -13.5794 -13.5239 -13.3669  -3.1472  -3.0421
    -1.4366  -1.4180  -1.3090  -1.2843  -1.1757  -0.5539   2.4513   2.5520
     2.6298   2.6562   2.7795   3.0280   3.3382   3.4513   4.1056   4.2397

          k = 0.7353 0.4245 0.0000 (  8430 PWs)   bands (ev):

   -33.7050 -33.7041 -17.0123 -16.9552 -15.1249 -15.0138 -14.9410 -14.8390
   -14.6912 -14.6393 -13.6883 -13.6213 -13.4943 -13.4006  -3.0445  -2.8924
    -1.5121  -1.3732  -1.2877  -1.1980  -0.8676  -0.7626   2.1876   2.3294
     2.5165   2.6404   2.7919   3.0893   3.0897   3.2752   4.2443   4.3665

          k = 0.4902 0.2830 0.0756 (  8431 PWs)   bands (ev):

   -33.7074 -33.7017 -17.0625 -16.8946 -15.1428 -15.1076 -14.8741 -14.7843
   -14.7140 -14.6160 -13.7670 -13.6166 -13.4582 -13.3833  -3.0552  -2.8680
    -1.5552  -1.3311  -1.2253  -1.2124  -1.0518  -0.6593   2.1178   2.4056
     2.4771   2.6841   2.7203   3.0813   3.1086   3.3894   4.2115   4.4069

          k =-0.2451 0.1415 0.3779 (  8440 PWs)   bands (ev):

   -33.7076 -33.7019 -17.0236 -16.9523 -15.1086 -14.9810 -14.9199 -14.8054
   -14.7130 -14.6812 -13.6964 -13.5994 -13.4910 -13.4245  -3.1042  -3.1026
    -1.4399  -1.3714  -1.3460  -1.2392  -1.1169  -0.6377   2.4582   2.4779
     2.6241   2.6482   2.9021   3.0888   3.1841   3.4872   4.1392   4.1847

          k = 0.7353 0.7076 0.0756 (  8424 PWs)   bands (ev):

   -33.7057 -33.7035 -17.0077 -16.9666 -15.0949 -15.0487 -14.8392 -14.8287
   -14.7267 -14.7046 -13.6857 -13.6235 -13.4660 -13.4241  -3.0109  -2.9882
    -1.4264  -1.4239  -1.3147  -1.2112  -0.8870  -0.7402   2.2683   2.3196
     2.6061   2.6628   2.7742   2.8769   3.1953   3.3447   4.2722   4.3007

          k = 0.4902 0.5661 0.1512 (  8437 PWs)   bands (ev):

   -33.7056 -33.7034 -17.0330 -16.9328 -15.1314 -15.0653 -14.9114 -14.7494
   -14.7234 -14.6654 -13.7686 -13.6056 -13.4723 -13.3696  -3.0012  -2.8509
    -1.5281  -1.3830  -1.2335  -1.2119  -0.8492  -0.7251   2.0823   2.2596
     2.4936   2.6133   2.7393   2.8204   3.2706   3.3337   4.2804   4.4396

          k = 0.7353-0.4245-0.2267 (  8442 PWs)   bands (ev):

   -33.7059 -33.7032 -17.0625 -16.9019 -15.1853 -15.1020 -14.7984 -14.7537
   -14.7233 -14.6286 -13.7545 -13.7517 -13.3935 -13.3652  -3.1019  -2.8352
    -1.5496  -1.3421  -1.2212  -1.2077  -0.8752  -0.7776   2.0914   2.3278
     2.5995   2.7160   2.7295   2.8854   3.1820   3.3537   4.1727   4.4279

          k = 0.0000 0.0000 0.4535 (  8428 PWs)   bands (ev):

   -33.7069 -33.7028 -16.9946 -16.9853 -15.0235 -15.0235 -14.9205 -14.9205
   -14.6592 -14.6310 -13.6349 -13.6349 -13.4762 -13.4762  -3.2259  -3.1531
    -1.3931  -1.3931  -1.3195  -1.3195  -1.1028  -0.6909   2.5359   2.5359
     2.6315   2.6315   3.1830   3.1830   3.4001   3.4001   3.9828   4.1108

          k = 0.9804 0.5661 0.1512 (  8406 PWs)   bands (ev):

   -33.7052 -33.7043 -16.9993 -16.9789 -15.1036 -15.0035 -14.9246 -14.8141
   -14.6991 -14.6543 -13.6938 -13.5687 -13.5356 -13.4204  -3.1453  -3.0812
    -1.4204  -1.3358  -1.3199  -1.3136  -0.9146  -0.8177   2.4468   2.5075
     2.6266   2.6286   2.9391   3.1181   3.2423   3.3248   4.1283   4.1842

     highest occupied level (ev):     4.4583

!    total energy              =    -367.43081120 Ry
     Harris-Foulkes estimate   =    -367.43081120 Ry
     estimated scf accuracy    <          1.9E-10 Ry

     The total energy is the sum of the following terms:

     one-electron contribution =    -146.27540767 Ry
     hartree contribution      =     102.59643228 Ry
     xc contribution           =     -75.24456203 Ry
     ewald contribution        =    -248.50727377 Ry

     convergence has been achieved in   8 iterations

     Forces acting on atoms (cartesian axes, Ry/au):

     atom    1 type  1   force =     0.00000000    0.00000000    0.00000000
     atom    2 type  1   force =     0.00000000   -0.00000000    0.00000000
     atom    3 type  2   force =     0.00000000    0.00000000   -0.00000000
     atom    4 type  2   force =    -0.00000000   -0.00000000   -0.00000000
     atom    5 type  3   force =    -0.00046513    0.00080563    0.00000000
     atom    6 type  3   force =     0.00093026    0.00000000   -0.00000000
     atom    7 type  3   force =    -0.00046513   -0.00080563   -0.00000000
     atom    8 type  3   force =    -0.00093026   -0.00000000    0.00000000
     atom    9 type  3   force =     0.00046513    0.00080563    0.00000000
     atom   10 type  3   force =     0.00046513   -0.00080563   -0.00000000

     Total force =     0.002279     Total SCF correction =     0.000005


     Computing stress (Cartesian axis) and pressure

          total   stress  (Ry/bohr**3)                   (kbar)     P=   -6.09
  -0.00010465   0.00000000   0.00000000        -15.39      0.00      0.00
  -0.00000000  -0.00010465  -0.00000000         -0.00    -15.39     -0.00
   0.00000000  -0.00000000   0.00008505          0.00     -0.00     12.51


     number of scf cycles    =   3
     number of bfgs steps    =   2

     energy   old            =    -367.4303685792 Ry
     energy   new            =    -367.4308111964 Ry

     CASE: energy  _new < energy  _old

     new trust radius        =       0.0006761644 bohr
     new conv_thr            =            1.0E-10 Ry


ATOMIC_POSITIONS (crystal)
Ca       0.500000000   0.500000000   0.500000000
Ca       0.000000000  -0.000000000  -0.000000000
C        0.250000000   0.250000000   0.250000000
C        0.750000000   0.750000000   0.750000000
O        0.503028791   0.996971209   0.250000000
O        0.996971209   0.250000000   0.503028791
O        0.250000000   0.503028791   0.996971209
O        0.003028791   0.750000000   0.496971209
O        0.750000000   0.496971209   0.003028791
O        0.496971209   0.003028791   0.750000000



     Writing output data file CCOrand3.save/
     NEW-OLD atomic charge density approx. for the potential

     Check: negative core charge=   -0.000003

     total cpu time spent up to now is      215.5 secs

     Self-consistent Calculation

     iteration #  1     ecut=    70.00 Ry     beta= 0.70
     CG style diagonalization
     ethr =  1.00E-06,  avg # of iterations =  2.3

     Threshold (ethr) on eigenvalues was too large:
     Diagonalizing with lowered threshold

     CG style diagonalization
     c_bands:  1 eigenvalues not converged
     c_bands:  1 eigenvalues not converged
     ethr =  1.78E-09,  avg # of iterations =  5.3

     total cpu time spent up to now is      229.6 secs

     total energy              =    -367.43081250 Ry
     Harris-Foulkes estimate   =    -367.43081371 Ry
     estimated scf accuracy    <       0.00000163 Ry

     iteration #  2     ecut=    70.00 Ry     beta= 0.70
     CG style diagonalization
     ethr =  2.55E-09,  avg # of iterations =  4.0

     total cpu time spent up to now is      237.1 secs

     total energy              =    -367.43081296 Ry
     Harris-Foulkes estimate   =    -367.43081337 Ry
     estimated scf accuracy    <       0.00000073 Ry

     iteration #  3     ecut=    70.00 Ry     beta= 0.70
     CG style diagonalization
     ethr =  1.14E-09,  avg # of iterations =  3.6

     total cpu time spent up to now is      243.9 secs

     total energy              =    -367.43081314 Ry
     Harris-Foulkes estimate   =    -367.43081314 Ry
     estimated scf accuracy    <       0.00000001 Ry

     iteration #  4     ecut=    70.00 Ry     beta= 0.70
     CG style diagonalization
     ethr =  2.02E-11,  avg # of iterations =  4.3

     total cpu time spent up to now is      252.0 secs

     total energy              =    -367.43081315 Ry
     Harris-Foulkes estimate   =    -367.43081315 Ry
     estimated scf accuracy    <       0.00000001 Ry

     iteration #  5     ecut=    70.00 Ry     beta= 0.70
     CG style diagonalization
     ethr =  1.71E-11,  avg # of iterations =  3.5

     total cpu time spent up to now is      258.6 secs

     total energy              =    -367.43081315 Ry
     Harris-Foulkes estimate   =    -367.43081315 Ry
     estimated scf accuracy    <          6.9E-10 Ry

     iteration #  6     ecut=    70.00 Ry     beta= 0.70
     CG style diagonalization
     ethr =  1.08E-12,  avg # of iterations =  3.9

     total cpu time spent up to now is      266.0 secs

     End of self-consistent calculation

          k = 0.0000 0.0000 0.0000 (  8385 PWs)   bands (ev):

   -33.7127 -33.6994 -17.0061 -16.9759 -15.1179 -15.1179 -14.7654 -14.7654
   -14.6965 -14.6057 -13.8550 -13.8550 -13.3223 -13.3223  -3.2596  -2.9945
    -1.6272  -1.4796  -1.4796  -1.2404  -1.2404  -0.2753   2.4259   2.4259
     2.7351   2.7351   2.9667   2.9667   3.6754   3.6754   3.8586   4.2914

          k =-0.2451-0.1415 0.0756 (  8437 PWs)   bands (ev):

   -33.7113 -33.7005 -17.0300 -16.9474 -15.1148 -15.0229 -14.8965 -14.7708
   -14.7096 -14.6876 -13.7837 -13.6450 -13.4587 -13.3540  -3.1259  -3.0157
    -1.5264  -1.4273  -1.3620  -1.2725  -1.2350  -0.4289   2.4712   2.5351
     2.6489   2.6748   2.7863   2.8319   3.4908   3.5161   4.1064   4.2754

          k =-0.4902-0.2830 0.1512 (  8435 PWs)   bands (ev):

   -33.7077 -33.7036 -17.0199 -16.9519 -15.0706 -15.0096 -14.9896 -14.8930
   -14.6762 -14.6443 -13.6457 -13.5650 -13.5199 -13.4598  -2.9733  -2.9524
    -1.5096  -1.4069  -1.2381  -1.2160  -1.0023  -0.6753   2.2291   2.3156
     2.5444   2.5845   2.8534   2.9330   3.2520   3.2702   4.2931   4.3324

          k =-0.2451 0.1415 0.1512 (  8406 PWs)   bands (ev):

   -33.7110 -33.7008 -17.0370 -16.9418 -15.0794 -15.0678 -14.8239 -14.7905
   -14.7435 -14.7099 -13.7137 -13.6905 -13.4233 -13.3996  -3.1104  -3.0430
    -1.4679  -1.4275  -1.4118  -1.2543  -1.2124  -0.4608   2.4839   2.4850
     2.6293   2.6690   2.8000   2.9173   3.3871   3.5758   4.1150   4.2514

          k =-0.4902 0.0000 0.2267 (  8438 PWs)   bands (ev):

   -33.7086 -33.7028 -17.0411 -16.9332 -15.1263 -15.0386 -14.8970 -14.8213
   -14.7015 -14.6670 -13.7246 -13.6117 -13.4727 -13.4055  -3.0192  -2.9588
    -1.4747  -1.3811  -1.3403  -1.1902  -1.0466  -0.6315   2.2561   2.4228
     2.5419   2.5911   2.7583   2.9453   3.1876   3.4226   4.2622   4.3315

          k = 0.4902 0.5661-0.0756 (  8454 PWs)   bands (ev):

   -33.7060 -33.7052 -17.0061 -16.9680 -15.0968 -15.0372 -14.9575 -14.8393
   -14.6896 -14.6570 -13.7009 -13.6071 -13.4814 -13.4117  -2.9540  -2.8963
    -1.5148  -1.3973  -1.2742  -1.1788  -0.8341  -0.7599   2.1630   2.2372
     2.4725   2.5442   2.7901   2.8599   3.2694   3.3082   4.3346   4.3930

          k = 0.2451 0.4245 0.0000 (  8413 PWs)   bands (ev):

   -33.7093 -33.7021 -17.0513 -16.9175 -15.1331 -15.0489 -14.9318 -14.7705
   -14.7260 -14.6439 -13.7269 -13.6352 -13.4464 -13.4089  -3.0211  -2.9454
    -1.5277  -1.3339  -1.2833  -1.2069  -1.1557  -0.5891   2.2547   2.5025
     2.5268   2.5620   2.6941   2.9391   3.2818   3.4103   4.2620   4.3438

          k =-0.4902 0.2830 0.3023 (  8432 PWs)   bands (ev):

   -33.7083 -33.7031 -17.0848 -16.8819 -15.1805 -15.1531 -14.7639 -14.7393
   -14.7161 -14.6378 -13.8180 -13.7250 -13.3882 -13.3562  -3.1032  -2.8227
    -1.5480  -1.3557  -1.2653  -1.1444  -0.9735  -0.7168   2.0654   2.3571
     2.5330   2.7412   2.7564   2.8822   3.1598   3.4339   4.1587   4.4477

          k = 0.4902 0.8491 0.0000 (  8453 PWs)   bands (ev):

   -33.7070 -33.7043 -17.0493 -16.9255 -15.1499 -15.0860 -14.8183 -14.8006
   -14.7248 -14.6578 -13.7910 -13.6461 -13.4360 -13.3671  -3.0170  -2.8319
    -1.4890  -1.4315  -1.2957  -1.1411  -0.8372  -0.7334   2.0485   2.2577
     2.5656   2.6191   2.7296   2.7393   3.2638   3.3744   4.2583   4.4598

          k = 0.0000 0.0000 0.2267 (  8425 PWs)   bands (ev):

   -33.7114 -33.7006 -17.0045 -16.9800 -15.0938 -15.0938 -14.8152 -14.8152
   -14.6860 -14.6126 -13.7881 -13.7881 -13.3638 -13.3638  -3.2543  -3.0500
    -1.4728  -1.4555  -1.4555  -1.2623  -1.2623  -0.3866   2.4566   2.4566
     2.7065   2.7065   3.0243   3.0243   3.5956   3.5956   3.8924   4.2368

          k =-0.2451-0.1415 0.3023 (  8432 PWs)   bands (ev):

   -33.7095 -33.7023 -17.0104 -16.9720 -15.1134 -14.9901 -14.9649 -14.7407
   -14.7331 -14.6552 -13.7636 -13.5816 -13.5262 -13.3692  -3.1461  -3.0407
    -1.4380  -1.4188  -1.3099  -1.2852  -1.1774  -0.5568   2.4515   2.5521
     2.6298   2.6563   2.7795   3.0281   3.3384   3.4515   4.1072   4.2414

          k = 0.7353 0.4245 0.0000 (  8430 PWs)   bands (ev):

   -33.7061 -33.7052 -17.0165 -16.9597 -15.1257 -15.0147 -14.9420 -14.8400
   -14.6924 -14.6407 -13.6905 -13.6235 -13.4966 -13.4030  -3.0432  -2.8910
    -1.5131  -1.3745  -1.2887  -1.1991  -0.8698  -0.7652   2.1877   2.3296
     2.5165   2.6403   2.7921   3.0896   3.0900   3.2755   4.2458   4.3681

          k = 0.4902 0.2830 0.0756 (  8431 PWs)   bands (ev):

   -33.7086 -33.7028 -17.0667 -16.8991 -15.1436 -15.1085 -14.8751 -14.7853
   -14.7151 -14.6174 -13.7692 -13.6188 -13.4606 -13.3857  -3.0537  -2.8668
    -1.5562  -1.3322  -1.2263  -1.2138  -1.0538  -0.6620   2.1179   2.4057
     2.4773   2.6840   2.7205   3.0814   3.1088   3.3897   4.2131   4.4084

          k =-0.2451 0.1415 0.3779 (  8440 PWs)   bands (ev):

   -33.7088 -33.7030 -17.0279 -16.9566 -15.1094 -14.9819 -14.9210 -14.8064
   -14.7142 -14.6824 -13.6986 -13.6016 -13.4933 -13.4269  -3.1028  -3.1015
    -1.4408  -1.3722  -1.3472  -1.2401  -1.1189  -0.6404   2.4583   2.4781
     2.6240   2.6482   2.9022   3.0889   3.1842   3.4873   4.1409   4.1864

          k = 0.7353 0.7076 0.0756 (  8424 PWs)   bands (ev):

   -33.7068 -33.7046 -17.0120 -16.9709 -15.0958 -15.0497 -14.8403 -14.8299
   -14.7277 -14.7057 -13.6879 -13.6257 -13.4684 -13.4265  -3.0095  -2.9870
    -1.4274  -1.4249  -1.3160  -1.2122  -0.8892  -0.7427   2.2685   2.3198
     2.6062   2.6627   2.7744   2.8771   3.1956   3.3450   4.2738   4.3022

          k = 0.4902 0.5661 0.1512 (  8437 PWs)   bands (ev):

   -33.7067 -33.7045 -17.0372 -16.9373 -15.1323 -15.0662 -14.9124 -14.7506
   -14.7244 -14.6668 -13.7708 -13.6078 -13.4747 -13.3721  -2.9998  -2.8495
    -1.5292  -1.3842  -1.2346  -1.2131  -0.8515  -0.7276   2.0824   2.2598
     2.4937   2.6133   2.7395   2.8207   3.2708   3.3340   4.2820   4.4411

          k = 0.7353-0.4245-0.2267 (  8442 PWs)   bands (ev):

   -33.7070 -33.7043 -17.0666 -16.9065 -15.1862 -15.1029 -14.7995 -14.7547
   -14.7243 -14.6301 -13.7567 -13.7538 -13.3959 -13.3676  -3.1005  -2.8339
    -1.5505  -1.3433  -1.2226  -1.2087  -0.8775  -0.7800   2.0916   2.3281
     2.5995   2.7162   2.7294   2.8856   3.1823   3.3540   4.1743   4.4294

          k = 0.0000 0.0000 0.4535 (  8428 PWs)   bands (ev):

   -33.7081 -33.7040 -16.9989 -16.9896 -15.0244 -15.0244 -14.9215 -14.9215
   -14.6604 -14.6324 -13.6371 -13.6371 -13.4785 -13.4785  -3.2248  -3.1519
    -1.3939  -1.3939  -1.3203  -1.3203  -1.1052  -0.6937   2.5361   2.5361
     2.6315   2.6315   3.1830   3.1830   3.4002   3.4002   3.9846   4.1126

          k = 0.9804 0.5661 0.1512 (  8406 PWs)   bands (ev):

   -33.7063 -33.7055 -17.0036 -16.9832 -15.1045 -15.0044 -14.9256 -14.8151
   -14.7003 -14.6556 -13.6960 -13.5710 -13.5379 -13.4227  -3.1441  -3.0800
    -1.4212  -1.3367  -1.3209  -1.3146  -0.9170  -0.8203   2.4470   2.5076
     2.6266   2.6286   2.9392   3.1183   3.2424   3.3249   4.1299   4.1859

     highest occupied level (ev):     4.4598

!    total energy              =    -367.43081315 Ry
     Harris-Foulkes estimate   =    -367.43081315 Ry
     estimated scf accuracy    <          3.9E-11 Ry

     The total energy is the sum of the following terms:

     one-electron contribution =    -146.32661281 Ry
     hartree contribution      =     102.62157754 Ry
     xc contribution           =     -75.24712987 Ry
     ewald contribution        =    -248.47864801 Ry

     convergence has been achieved in   6 iterations

     Forces acting on atoms (cartesian axes, Ry/au):

     atom    1 type  1   force =     0.00000000    0.00000000    0.00000000
     atom    2 type  1   force =    -0.00000000    0.00000000    0.00000000
     atom    3 type  2   force =    -0.00000000    0.00000000   -0.00000000
     atom    4 type  2   force =     0.00000000   -0.00000000    0.00000000
     atom    5 type  3   force =    -0.00001216    0.00002105    0.00000000
     atom    6 type  3   force =     0.00002431    0.00000000   -0.00000000
     atom    7 type  3   force =    -0.00001216   -0.00002105   -0.00000000
     atom    8 type  3   force =    -0.00002431   -0.00000000    0.00000000
     atom    9 type  3   force =     0.00001216    0.00002105    0.00000000
     atom   10 type  3   force =     0.00001216   -0.00002105   -0.00000000

     Total force =     0.000060     Total SCF correction =     0.000015
     SCF correction compared to forces is large: reduce conv_thr to get better values


     Computing stress (Cartesian axis) and pressure

          total   stress  (Ry/bohr**3)                   (kbar)     P=   -5.47
  -0.00009795   0.00000000  -0.00000000        -14.41      0.00     -0.00
   0.00000000  -0.00009795  -0.00000000          0.00    -14.41     -0.00
   0.00000000  -0.00000000   0.00008430          0.00     -0.00     12.40


     bfgs converged in   4 scf cycles and   3 bfgs steps
     (criteria: energy <  1.0E-04 Ry, force <  1.0E-03 Ry/Bohr)

     End of BFGS Geometry Optimization

     Final energy   =    -367.4308131510 Ry
Begin final coordinates

ATOMIC_POSITIONS (crystal)
Ca       0.500000000   0.500000000   0.500000000
Ca       0.000000000  -0.000000000  -0.000000000
C        0.250000000   0.250000000   0.250000000
C        0.750000000   0.750000000   0.750000000
O        0.503028791   0.996971209   0.250000000
O        0.996971209   0.250000000   0.503028791
O        0.250000000   0.503028791   0.996971209
O        0.003028791   0.750000000   0.496971209
O        0.750000000   0.496971209   0.003028791
O        0.496971209   0.003028791   0.750000000
End final coordinates



     Writing output data file CCOrand3.save/
 
     init_run     :      2.74s CPU      4.16s WALL (       1 calls)
     electrons    :    233.80s CPU    257.76s WALL (       4 calls)
     update_pot   :      0.21s CPU      0.24s WALL (       3 calls)
     forces       :      0.92s CPU      1.02s WALL (       4 calls)
     stress       :      1.59s CPU      1.74s WALL (       4 calls)

     Called by init_run:
     wfcinit      :      2.40s CPU      3.20s WALL (       1 calls)
     potinit      :      0.05s CPU      0.14s WALL (       1 calls)
     hinit0       :      0.19s CPU      0.45s WALL (       1 calls)

     Called by electrons:
     c_bands      :    218.20s CPU    240.75s WALL (      33 calls)
     sum_band     :     14.56s CPU     15.53s WALL (      33 calls)
     v_of_rho     :      0.66s CPU      0.75s WALL (      36 calls)
     newd         :      0.29s CPU      0.42s WALL (      36 calls)
     mix_rho      :      0.08s CPU      0.14s WALL (      33 calls)

     Called by c_bands:
     init_us_2    :      0.34s CPU      0.40s WALL (    1425 calls)
     ccgdiagg     :    175.42s CPU    189.15s WALL (     628 calls)
     wfcrot       :     44.74s CPU     53.69s WALL (     552 calls)

     Called by sum_band:
     sum_band:bec :      0.17s CPU      0.19s WALL (     627 calls)
     addusdens    :      0.22s CPU      0.26s WALL (      33 calls)

     Called by *cgdiagg:
     h_psi        :    147.56s CPU    156.88s WALL (   66709 calls)
     s_psi        :      8.00s CPU      8.96s WALL (  132866 calls)
     cdiaghg      :     16.02s CPU     23.20s WALL (     552 calls)

     Called by h_psi:
     h_psi:pot    :    145.69s CPU    154.77s WALL (   66709 calls)
     h_psi:calbec :     16.94s CPU     18.39s WALL (   66709 calls)
     vloc_psi     :    120.68s CPU    127.70s WALL (   66709 calls)
     add_vuspsi   :      5.77s CPU      6.37s WALL (   66709 calls)
     hs_1psi      :    131.45s CPU    140.08s WALL (   66157 calls)
     s_1psi       :     16.04s CPU     17.85s WALL (   66157 calls)

     General routines
     calbec       :     25.44s CPU     28.26s WALL (  133873 calls)
     fft          :      0.79s CPU      0.92s WALL (     500 calls)
     ffts         :      0.05s CPU      0.05s WALL (      33 calls)
     fftw         :    127.25s CPU    134.51s WALL (  188466 calls)
 
     Parallel routines
     fft_scatt_xy :      6.28s CPU      6.65s WALL (  188999 calls)
     fft_scatt_yz :    100.94s CPU    107.09s WALL (  188999 calls)
 
     PWSCF        :   4m 2.49s CPU   4m31.45s WALL

 
   This run was terminated on:  14: 1: 9   4May2022            

=------------------------------------------------------------------------------=
   JOB DONE.
=------------------------------------------------------------------------------=
TACC:  Shutdown complete. Exiting. 
