[Molden Format]
[FREQ]
    8.47
    8.75
    8.75
  110.03
  128.96
  140.30
  159.84
  159.84
  188.24
  205.79
  216.21
  262.84
  263.26
  265.89
  267.97
  267.97
  295.08
  363.45
  681.14
  681.14
  681.51
  682.64
  828.20
  831.88
 1057.30
 1058.08
 1365.34
 1398.66
 1398.66
 1510.28
[FR-COORD]
   Ca          0.00000        0.00000       15.71802
   Ca          0.00000        0.00000        0.00000
   C           0.00000        0.00000        7.85901
   C           0.00000        0.00000       23.57703
   O           1.22634        3.47233       18.33769
   O           2.39396       -2.79820       18.33769
   O          -3.62029       -0.67413       18.33769
   O          -2.39396        2.79820       13.09835
   O           3.62029        0.67413       13.09835
   O          -1.22634       -3.47233       13.09835
[FR-NORM-COORD]
 vibration     1
  -0.00000  -0.00026   0.31691
   0.00000  -0.00026   0.31691
  -0.00000  -0.00026   0.31610
  -0.00000  -0.00026   0.31610
   0.00056   0.00007   0.31604
  -0.00000  -0.00090   0.31604
  -0.00056   0.00007   0.31604
  -0.00000  -0.00090   0.31604
  -0.00056   0.00007   0.31604
   0.00056   0.00007   0.31604
 vibration     2
   0.00000  -0.31708  -0.00026
  -0.00000  -0.31708  -0.00026
  -0.00000  -0.31612  -0.00026
  -0.00000  -0.31612  -0.00026
   0.00013  -0.31605  -0.00105
  -0.00000  -0.31583   0.00133
  -0.00013  -0.31605  -0.00105
  -0.00000  -0.31583   0.00133
  -0.00013  -0.31605  -0.00105
   0.00013  -0.31605  -0.00105
 vibration     3
  -0.31664   0.00001  -0.00000
  -0.31664  -0.00001   0.00000
  -0.31617   0.00000  -0.00000
  -0.31617   0.00000  -0.00000
  -0.31604   0.00011  -0.00113
  -0.31624   0.00000  -0.00000
  -0.31604  -0.00011   0.00113
  -0.31624   0.00000  -0.00000
  -0.31604  -0.00011   0.00113
  -0.31604   0.00011  -0.00113
 vibration     4
   0.00000  -0.00000  -0.21506
  -0.00000  -0.00000  -0.21506
  -0.00000   0.00000   0.12120
  -0.00000   0.00000   0.12120
  -0.30461  -0.17587   0.15046
   0.00000   0.35173   0.15046
   0.30461  -0.17587   0.15046
  -0.00000   0.35173   0.15046
   0.30461  -0.17587   0.15046
  -0.30461  -0.17587   0.15046
 vibration     5
   0.18648  -0.17314   0.00000
  -0.18648  -0.17314   0.00000
   0.00000   0.09587   0.00000
   0.00000   0.09587   0.00000
   0.01940   0.11115  -0.25154
   0.00000   0.14476   0.50308
  -0.01940   0.11115  -0.25154
   0.00000   0.14476   0.50308
  -0.01940   0.11115  -0.25154
   0.01940   0.11115  -0.25154
 vibration     6
  -0.10081  -0.24422   0.00000
  -0.10081   0.24422  -0.00000
   0.06384  -0.00000   0.00000
   0.06384  -0.00000  -0.00000
   0.08007   0.01845  -0.45293
   0.04812  -0.00000  -0.00000
   0.08007  -0.01845   0.45293
   0.04812   0.00000  -0.00000
   0.08007  -0.01845   0.45293
   0.08007   0.01845  -0.45293
 vibration     7
  -0.00000  -0.00000   0.00000
  -0.00000   0.00000   0.00000
   0.32319  -0.00000  -0.00000
  -0.32319   0.00000   0.00000
   0.34668   0.00470  -0.14234
   0.33854  -0.00000  -0.00000
   0.34668  -0.00470   0.14234
  -0.33854   0.00000   0.00000
  -0.34668   0.00470  -0.14234
  -0.34668  -0.00470   0.14234
 vibration     8
   0.00000   0.00000   0.00000
   0.00000  -0.00000   0.00000
  -0.00000  -0.32319   0.00000
   0.00000   0.32319  -0.00000
  -0.00470  -0.34125   0.08218
  -0.00000  -0.34939  -0.16436
   0.00470  -0.34125   0.08218
   0.00000   0.34939   0.16436
  -0.00470   0.34125  -0.08218
   0.00470   0.34125  -0.08218
 vibration     9
  -0.00000   0.00000   0.00000
   0.00000  -0.00000   0.00000
  -0.00000  -0.00000  -0.20614
   0.00000   0.00000   0.20614
   0.28311   0.16345  -0.21363
  -0.00000  -0.32690  -0.21363
  -0.28311   0.16345  -0.21363
   0.00000   0.32690   0.21363
   0.28311  -0.16345   0.21363
  -0.28311  -0.16345   0.21363
 vibration    10
  -0.59349  -0.18075   0.00000
   0.59349  -0.18075   0.00000
   0.00000   0.07094  -0.00000
  -0.00000   0.07094  -0.00000
   0.02518   0.11964  -0.09445
   0.00000   0.16325   0.18889
  -0.02518   0.11964  -0.09445
  -0.00000   0.16325   0.18889
  -0.02518   0.11964  -0.09445
   0.02518   0.11964  -0.09445
 vibration    11
   0.04267  -0.52217  -0.00000
   0.04267   0.52217   0.00000
   0.00143  -0.00000  -0.00000
   0.00143  -0.00000   0.00000
  -0.05481  -0.03108   0.32983
  -0.00097  -0.00000  -0.00000
  -0.05481   0.03108  -0.32983
  -0.00097   0.00000   0.00000
  -0.05481   0.03108  -0.32983
  -0.05481  -0.03108   0.32983
 vibration    12
  -0.00000   0.00000  -0.70560
  -0.00000  -0.00000   0.70560
   0.00000  -0.00000   0.00000
   0.00000  -0.00000   0.00000
   0.01334  -0.02310  -0.00000
  -0.02668  -0.00000   0.00000
   0.01334   0.02310   0.00000
  -0.02668  -0.00000   0.00000
   0.01334   0.02310   0.00000
   0.01334  -0.02310  -0.00000
 vibration    13
   0.09343  -0.32230   0.00000
  -0.09343  -0.32230   0.00000
   0.00000   0.20599  -0.00000
  -0.00000   0.20599  -0.00000
  -0.01615   0.22689   0.18345
  -0.00000   0.19892  -0.36689
   0.01615   0.22689   0.18345
  -0.00000   0.19892  -0.36689
   0.01615   0.22689   0.18345
  -0.01615   0.22689   0.18345
 vibration    14
  -0.00000   0.00000   0.31620
   0.00000   0.00000   0.31620
  -0.00000  -0.00000  -0.23692
   0.00000  -0.00000  -0.23692
  -0.23341  -0.13476  -0.20491
  -0.00000   0.26952  -0.20490
   0.23341  -0.13476  -0.20491
   0.00000   0.26952  -0.20490
   0.23341  -0.13476  -0.20491
  -0.23341  -0.13476  -0.20491
 vibration    15
   0.00000   0.00000   0.00000
   0.00000   0.00000   0.00000
   0.00000  -0.11337  -0.00000
  -0.00000   0.11337   0.00000
   0.01278  -0.11232  -0.27491
   0.00000  -0.09019   0.54982
  -0.01278  -0.11232  -0.27491
  -0.00000   0.09019  -0.54982
   0.01278   0.11232   0.27491
  -0.01278   0.11232   0.27491
 vibration    16
  -0.00000  -0.00000  -0.00000
  -0.00000  -0.00000  -0.00000
  -0.11337  -0.00000   0.00000
   0.11337   0.00000   0.00000
  -0.09757   0.01278  -0.47616
  -0.11969  -0.00000   0.00000
  -0.09757  -0.01278   0.47616
   0.11969   0.00000  -0.00000
   0.09757   0.01278  -0.47616
   0.09757  -0.01278   0.47616
 vibration    17
  -0.00000   0.00000   0.00000
   0.00000  -0.00000   0.00000
  -0.00000   0.00000   0.32388
  -0.00000  -0.00000  -0.32388
   0.20174   0.11648   0.27827
  -0.00000  -0.23295   0.27827
  -0.20174   0.11648   0.27827
   0.00000   0.23295  -0.27827
   0.20174  -0.11648  -0.27827
  -0.20174  -0.11648  -0.27827
 vibration    18
  -0.39529   0.02990   0.00000
  -0.39529  -0.02990  -0.00000
   0.31532  -0.00000  -0.00000
   0.31532  -0.00000   0.00000
   0.24867  -0.00459   0.16409
   0.25662  -0.00000  -0.00000
   0.24867   0.00459  -0.16409
   0.25662   0.00000  -0.00000
   0.24867   0.00459  -0.16409
   0.24867  -0.00459   0.16409
 vibration    19
  -0.00000   0.00000   0.00000
   0.00000  -0.00000   0.00000
   0.22292   0.00000   0.00000
  -0.22292  -0.00000   0.00000
  -0.24381  -0.33217  -0.02054
   0.33152  -0.00000   0.00000
  -0.24381   0.33217   0.02054
  -0.33152   0.00000  -0.00000
   0.24381  -0.33217  -0.02054
   0.24381   0.33217   0.02054
 vibration    20
   0.00000   0.00000   0.00000
  -0.00000   0.00000   0.00000
  -0.00000   0.22292  -0.00000
   0.00000  -0.22292   0.00000
  -0.33217   0.13974  -0.01186
  -0.00000  -0.43559   0.02372
   0.33217   0.13974  -0.01186
   0.00000   0.43559  -0.02372
  -0.33217  -0.13974   0.01186
   0.33217  -0.13974   0.01186
 vibration    21
  -0.01765  -0.00681   0.00000
   0.01765  -0.00681   0.00000
  -0.00000   0.22898  -0.00000
   0.00000   0.22898  -0.00000
  -0.33025   0.13898  -0.02214
  -0.00000  -0.43302   0.04428
   0.33025   0.13898  -0.02214
   0.00000  -0.43302   0.04428
   0.33025   0.13898  -0.02214
  -0.33025   0.13898  -0.02214
 vibration    22
  -0.00260  -0.01632  -0.00000
  -0.00260   0.01632   0.00000
  -0.21199   0.00000  -0.00000
  -0.21199   0.00000   0.00000
   0.24730   0.33255   0.04034
  -0.32870  -0.00000   0.00000
   0.24730  -0.33255  -0.04034
  -0.32870  -0.00000   0.00000
   0.24730  -0.33255  -0.04034
   0.24730   0.33255   0.04034
 vibration    23
   0.00000  -0.00000  -0.00232
  -0.00000  -0.00000  -0.00232
   0.00000  -0.00000  -0.64708
  -0.00000  -0.00000  -0.64708
   0.01341   0.00774   0.16387
   0.00000  -0.01548   0.16387
  -0.01341   0.00774   0.16387
  -0.00000  -0.01548   0.16387
  -0.01341   0.00774   0.16387
   0.01341   0.00774   0.16387
 vibration    24
   0.00000   0.00000   0.00000
   0.00000   0.00000   0.00000
  -0.00000  -0.00000  -0.63862
   0.00000   0.00000   0.63862
   0.01163   0.00671   0.17476
   0.00000  -0.01343   0.17476
  -0.01163   0.00671   0.17476
  -0.00000   0.01343  -0.17476
   0.01163  -0.00671  -0.17476
  -0.01163  -0.00671  -0.17476
 vibration    25
  -0.00000  -0.00000  -0.01848
  -0.00000   0.00000   0.01848
   0.00000   0.00000  -0.00000
   0.00000   0.00000  -0.00000
  -0.20405   0.35343   0.00000
   0.40811  -0.00000   0.00000
  -0.20405  -0.35343  -0.00000
   0.40811  -0.00000   0.00000
  -0.20405  -0.35343  -0.00000
  -0.20405   0.35343   0.00000
 vibration    26
  -0.00000   0.00000  -0.00000
  -0.00000   0.00000  -0.00000
  -0.00000  -0.00000   0.00000
   0.00000  -0.00000   0.00000
  -0.20412   0.35355  -0.00000
   0.40825   0.00000   0.00000
  -0.20412  -0.35355   0.00000
  -0.40825   0.00000  -0.00000
   0.20412   0.35355  -0.00000
   0.20412  -0.35355   0.00000
 vibration    27
  -0.00762  -0.01042  -0.00000
   0.00762  -0.01042  -0.00000
   0.00000   0.62781  -0.00000
  -0.00000   0.62781  -0.00000
   0.09954  -0.20586  -0.00039
  -0.00000  -0.03344   0.00079
  -0.09954  -0.20586  -0.00039
   0.00000  -0.03344   0.00079
  -0.09954  -0.20586  -0.00039
   0.09954  -0.20586  -0.00039
 vibration    28
   0.00000   0.00000  -0.00000
  -0.00000   0.00000  -0.00000
   0.62853   0.00000  -0.00000
  -0.62853  -0.00000  -0.00000
  -0.09404   0.09682  -0.00141
  -0.26174  -0.00000   0.00000
  -0.09404  -0.09682   0.00141
   0.26174   0.00000  -0.00000
   0.09404   0.09682  -0.00141
   0.09404  -0.09682   0.00141
 vibration    29
   0.00000  -0.00000   0.00000
   0.00000   0.00000   0.00000
   0.00000  -0.62853   0.00000
  -0.00000   0.62853  -0.00000
  -0.09682   0.20584   0.00081
  -0.00000   0.03813  -0.00163
   0.09682   0.20584   0.00081
   0.00000  -0.03813   0.00163
  -0.09682  -0.20584  -0.00081
   0.09682  -0.20584  -0.00081
 vibration    30
  -0.01625  -0.00416   0.00000
  -0.01625   0.00416  -0.00000
  -0.61575  -0.00000   0.00000
  -0.61575   0.00000  -0.00000
   0.11273  -0.09512   0.00556
   0.27749   0.00000  -0.00000
   0.11273   0.09512  -0.00556
   0.27749  -0.00000  -0.00000
   0.11273   0.09512  -0.00556
   0.11273  -0.09512   0.00556
