ANIMSTEPS   30
CRYSTAL
PRIMVEC
    2.564727300   -1.480745997    5.545078514
    0.000000000    2.961491994    5.545078514
   -2.564727300   -1.480745997    5.545078514
PRIMCOORD    1
     10   1
   Ca     0.00000   0.00000   8.31762  -0.00000  -0.00003   0.03169
   Ca     0.00000   0.00000   0.00000   0.00000  -0.00003   0.03169
   C      0.00000   0.00000   4.15881  -0.00000  -0.00003   0.03161
   C      0.00000   0.00000  12.47643  -0.00000  -0.00003   0.03161
   O      0.64895   1.83748   9.70389   0.00006   0.00001   0.03160
   O      1.26683  -1.48075   9.70389  -0.00000  -0.00009   0.03160
   O     -1.91578  -0.35673   9.70389  -0.00006   0.00001   0.03160
   O     -1.26683   1.48075   6.93135  -0.00000  -0.00009   0.03160
   O      1.91578   0.35673   6.93135  -0.00006   0.00001   0.03160
   O     -0.64895  -1.83748   6.93135   0.00006   0.00001   0.03160
PRIMCOORD    2
     10   1
   Ca     0.00000   0.00000   8.31762   0.00000  -0.03171  -0.00003
   Ca     0.00000   0.00000   0.00000  -0.00000  -0.03171  -0.00003
   C      0.00000   0.00000   4.15881  -0.00000  -0.03161  -0.00003
   C      0.00000   0.00000  12.47643  -0.00000  -0.03161  -0.00003
   O      0.64895   1.83748   9.70389   0.00001  -0.03160  -0.00011
   O      1.26683  -1.48075   9.70389  -0.00000  -0.03158   0.00013
   O     -1.91578  -0.35673   9.70389  -0.00001  -0.03160  -0.00011
   O     -1.26683   1.48075   6.93135  -0.00000  -0.03158   0.00013
   O      1.91578   0.35673   6.93135  -0.00001  -0.03160  -0.00011
   O     -0.64895  -1.83748   6.93135   0.00001  -0.03160  -0.00011
PRIMCOORD    3
     10   1
   Ca     0.00000   0.00000   8.31762  -0.03166   0.00000  -0.00000
   Ca     0.00000   0.00000   0.00000  -0.03166  -0.00000   0.00000
   C      0.00000   0.00000   4.15881  -0.03162   0.00000  -0.00000
   C      0.00000   0.00000  12.47643  -0.03162   0.00000  -0.00000
   O      0.64895   1.83748   9.70389  -0.03160   0.00001  -0.00011
   O      1.26683  -1.48075   9.70389  -0.03162   0.00000  -0.00000
   O     -1.91578  -0.35673   9.70389  -0.03160  -0.00001   0.00011
   O     -1.26683   1.48075   6.93135  -0.03162   0.00000  -0.00000
   O      1.91578   0.35673   6.93135  -0.03160  -0.00001   0.00011
   O     -0.64895  -1.83748   6.93135  -0.03160   0.00001  -0.00011
PRIMCOORD    4
     10   1
   Ca     0.00000   0.00000   8.31762   0.00000  -0.00000  -0.02151
   Ca     0.00000   0.00000   0.00000  -0.00000  -0.00000  -0.02151
   C      0.00000   0.00000   4.15881  -0.00000   0.00000   0.01212
   C      0.00000   0.00000  12.47643  -0.00000   0.00000   0.01212
   O      0.64895   1.83748   9.70389  -0.03046  -0.01759   0.01505
   O      1.26683  -1.48075   9.70389   0.00000   0.03517   0.01505
   O     -1.91578  -0.35673   9.70389   0.03046  -0.01759   0.01505
   O     -1.26683   1.48075   6.93135  -0.00000   0.03517   0.01505
   O      1.91578   0.35673   6.93135   0.03046  -0.01759   0.01505
   O     -0.64895  -1.83748   6.93135  -0.03046  -0.01759   0.01505
PRIMCOORD    5
     10   1
   Ca     0.00000   0.00000   8.31762   0.01865  -0.01731   0.00000
   Ca     0.00000   0.00000   0.00000  -0.01865  -0.01731   0.00000
   C      0.00000   0.00000   4.15881   0.00000   0.00959   0.00000
   C      0.00000   0.00000  12.47643   0.00000   0.00959   0.00000
   O      0.64895   1.83748   9.70389   0.00194   0.01112  -0.02515
   O      1.26683  -1.48075   9.70389   0.00000   0.01448   0.05031
   O     -1.91578  -0.35673   9.70389  -0.00194   0.01112  -0.02515
   O     -1.26683   1.48075   6.93135   0.00000   0.01448   0.05031
   O      1.91578   0.35673   6.93135  -0.00194   0.01112  -0.02515
   O     -0.64895  -1.83748   6.93135   0.00194   0.01112  -0.02515
PRIMCOORD    6
     10   1
   Ca     0.00000   0.00000   8.31762  -0.01008  -0.02442   0.00000
   Ca     0.00000   0.00000   0.00000  -0.01008   0.02442  -0.00000
   C      0.00000   0.00000   4.15881   0.00638  -0.00000   0.00000
   C      0.00000   0.00000  12.47643   0.00638  -0.00000  -0.00000
   O      0.64895   1.83748   9.70389   0.00801   0.00184  -0.04529
   O      1.26683  -1.48075   9.70389   0.00481  -0.00000  -0.00000
   O     -1.91578  -0.35673   9.70389   0.00801  -0.00184   0.04529
   O     -1.26683   1.48075   6.93135   0.00481   0.00000  -0.00000
   O      1.91578   0.35673   6.93135   0.00801  -0.00184   0.04529
   O     -0.64895  -1.83748   6.93135   0.00801   0.00184  -0.04529
PRIMCOORD    7
     10   1
   Ca     0.00000   0.00000   8.31762  -0.00000  -0.00000   0.00000
   Ca     0.00000   0.00000   0.00000  -0.00000   0.00000   0.00000
   C      0.00000   0.00000   4.15881   0.03232  -0.00000  -0.00000
   C      0.00000   0.00000  12.47643  -0.03232   0.00000   0.00000
   O      0.64895   1.83748   9.70389   0.03467   0.00047  -0.01423
   O      1.26683  -1.48075   9.70389   0.03385  -0.00000  -0.00000
   O     -1.91578  -0.35673   9.70389   0.03467  -0.00047   0.01423
   O     -1.26683   1.48075   6.93135  -0.03385   0.00000   0.00000
   O      1.91578   0.35673   6.93135  -0.03467   0.00047  -0.01423
   O     -0.64895  -1.83748   6.93135  -0.03467  -0.00047   0.01423
PRIMCOORD    8
     10   1
   Ca     0.00000   0.00000   8.31762   0.00000   0.00000   0.00000
   Ca     0.00000   0.00000   0.00000   0.00000  -0.00000   0.00000
   C      0.00000   0.00000   4.15881  -0.00000  -0.03232   0.00000
   C      0.00000   0.00000  12.47643   0.00000   0.03232  -0.00000
   O      0.64895   1.83748   9.70389  -0.00047  -0.03413   0.00822
   O      1.26683  -1.48075   9.70389  -0.00000  -0.03494  -0.01644
   O     -1.91578  -0.35673   9.70389   0.00047  -0.03413   0.00822
   O     -1.26683   1.48075   6.93135   0.00000   0.03494   0.01644
   O      1.91578   0.35673   6.93135  -0.00047   0.03413  -0.00822
   O     -0.64895  -1.83748   6.93135   0.00047   0.03413  -0.00822
PRIMCOORD    9
     10   1
   Ca     0.00000   0.00000   8.31762  -0.00000   0.00000   0.00000
   Ca     0.00000   0.00000   0.00000   0.00000  -0.00000   0.00000
   C      0.00000   0.00000   4.15881  -0.00000  -0.00000  -0.02061
   C      0.00000   0.00000  12.47643   0.00000   0.00000   0.02061
   O      0.64895   1.83748   9.70389   0.02831   0.01635  -0.02136
   O      1.26683  -1.48075   9.70389  -0.00000  -0.03269  -0.02136
   O     -1.91578  -0.35673   9.70389  -0.02831   0.01635  -0.02136
   O     -1.26683   1.48075   6.93135   0.00000   0.03269   0.02136
   O      1.91578   0.35673   6.93135   0.02831  -0.01635   0.02136
   O     -0.64895  -1.83748   6.93135  -0.02831  -0.01635   0.02136
PRIMCOORD   10
     10   1
   Ca     0.00000   0.00000   8.31762  -0.05935  -0.01807   0.00000
   Ca     0.00000   0.00000   0.00000   0.05935  -0.01807   0.00000
   C      0.00000   0.00000   4.15881   0.00000   0.00709  -0.00000
   C      0.00000   0.00000  12.47643  -0.00000   0.00709  -0.00000
   O      0.64895   1.83748   9.70389   0.00252   0.01196  -0.00944
   O      1.26683  -1.48075   9.70389   0.00000   0.01633   0.01889
   O     -1.91578  -0.35673   9.70389  -0.00252   0.01196  -0.00944
   O     -1.26683   1.48075   6.93135  -0.00000   0.01633   0.01889
   O      1.91578   0.35673   6.93135  -0.00252   0.01196  -0.00944
   O     -0.64895  -1.83748   6.93135   0.00252   0.01196  -0.00944
PRIMCOORD   11
     10   1
   Ca     0.00000   0.00000   8.31762   0.00427  -0.05222  -0.00000
   Ca     0.00000   0.00000   0.00000   0.00427   0.05222   0.00000
   C      0.00000   0.00000   4.15881   0.00014  -0.00000  -0.00000
   C      0.00000   0.00000  12.47643   0.00014  -0.00000   0.00000
   O      0.64895   1.83748   9.70389  -0.00548  -0.00311   0.03298
   O      1.26683  -1.48075   9.70389  -0.00010  -0.00000  -0.00000
   O     -1.91578  -0.35673   9.70389  -0.00548   0.00311  -0.03298
   O     -1.26683   1.48075   6.93135  -0.00010   0.00000   0.00000
   O      1.91578   0.35673   6.93135  -0.00548   0.00311  -0.03298
   O     -0.64895  -1.83748   6.93135  -0.00548  -0.00311   0.03298
PRIMCOORD   12
     10   1
   Ca     0.00000   0.00000   8.31762  -0.00000   0.00000  -0.07056
   Ca     0.00000   0.00000   0.00000  -0.00000  -0.00000   0.07056
   C      0.00000   0.00000   4.15881   0.00000  -0.00000   0.00000
   C      0.00000   0.00000  12.47643   0.00000  -0.00000   0.00000
   O      0.64895   1.83748   9.70389   0.00133  -0.00231  -0.00000
   O      1.26683  -1.48075   9.70389  -0.00267  -0.00000   0.00000
   O     -1.91578  -0.35673   9.70389   0.00133   0.00231   0.00000
   O     -1.26683   1.48075   6.93135  -0.00267  -0.00000   0.00000
   O      1.91578   0.35673   6.93135   0.00133   0.00231   0.00000
   O     -0.64895  -1.83748   6.93135   0.00133  -0.00231  -0.00000
PRIMCOORD   13
     10   1
   Ca     0.00000   0.00000   8.31762   0.00934  -0.03223   0.00000
   Ca     0.00000   0.00000   0.00000  -0.00934  -0.03223   0.00000
   C      0.00000   0.00000   4.15881   0.00000   0.02060  -0.00000
   C      0.00000   0.00000  12.47643  -0.00000   0.02060  -0.00000
   O      0.64895   1.83748   9.70389  -0.00162   0.02269   0.01834
   O      1.26683  -1.48075   9.70389  -0.00000   0.01989  -0.03669
   O     -1.91578  -0.35673   9.70389   0.00162   0.02269   0.01834
   O     -1.26683   1.48075   6.93135  -0.00000   0.01989  -0.03669
   O      1.91578   0.35673   6.93135   0.00162   0.02269   0.01834
   O     -0.64895  -1.83748   6.93135  -0.00162   0.02269   0.01834
PRIMCOORD   14
     10   1
   Ca     0.00000   0.00000   8.31762  -0.00000   0.00000   0.03162
   Ca     0.00000   0.00000   0.00000   0.00000   0.00000   0.03162
   C      0.00000   0.00000   4.15881  -0.00000  -0.00000  -0.02369
   C      0.00000   0.00000  12.47643   0.00000  -0.00000  -0.02369
   O      0.64895   1.83748   9.70389  -0.02334  -0.01348  -0.02049
   O      1.26683  -1.48075   9.70389  -0.00000   0.02695  -0.02049
   O     -1.91578  -0.35673   9.70389   0.02334  -0.01348  -0.02049
   O     -1.26683   1.48075   6.93135   0.00000   0.02695  -0.02049
   O      1.91578   0.35673   6.93135   0.02334  -0.01348  -0.02049
   O     -0.64895  -1.83748   6.93135  -0.02334  -0.01348  -0.02049
PRIMCOORD   15
     10   1
   Ca     0.00000   0.00000   8.31762   0.00000   0.00000   0.00000
   Ca     0.00000   0.00000   0.00000   0.00000   0.00000   0.00000
   C      0.00000   0.00000   4.15881   0.00000  -0.01134  -0.00000
   C      0.00000   0.00000  12.47643  -0.00000   0.01134   0.00000
   O      0.64895   1.83748   9.70389   0.00128  -0.01123  -0.02749
   O      1.26683  -1.48075   9.70389   0.00000  -0.00902   0.05498
   O     -1.91578  -0.35673   9.70389  -0.00128  -0.01123  -0.02749
   O     -1.26683   1.48075   6.93135  -0.00000   0.00902  -0.05498
   O      1.91578   0.35673   6.93135   0.00128   0.01123   0.02749
   O     -0.64895  -1.83748   6.93135  -0.00128   0.01123   0.02749
PRIMCOORD   16
     10   1
   Ca     0.00000   0.00000   8.31762  -0.00000  -0.00000  -0.00000
   Ca     0.00000   0.00000   0.00000  -0.00000  -0.00000  -0.00000
   C      0.00000   0.00000   4.15881  -0.01134  -0.00000   0.00000
   C      0.00000   0.00000  12.47643   0.01134   0.00000   0.00000
   O      0.64895   1.83748   9.70389  -0.00976   0.00128  -0.04762
   O      1.26683  -1.48075   9.70389  -0.01197  -0.00000   0.00000
   O     -1.91578  -0.35673   9.70389  -0.00976  -0.00128   0.04762
   O     -1.26683   1.48075   6.93135   0.01197   0.00000  -0.00000
   O      1.91578   0.35673   6.93135   0.00976   0.00128  -0.04762
   O     -0.64895  -1.83748   6.93135   0.00976  -0.00128   0.04762
PRIMCOORD   17
     10   1
   Ca     0.00000   0.00000   8.31762  -0.00000   0.00000   0.00000
   Ca     0.00000   0.00000   0.00000   0.00000  -0.00000   0.00000
   C      0.00000   0.00000   4.15881  -0.00000   0.00000   0.03239
   C      0.00000   0.00000  12.47643  -0.00000  -0.00000  -0.03239
   O      0.64895   1.83748   9.70389   0.02017   0.01165   0.02783
   O      1.26683  -1.48075   9.70389  -0.00000  -0.02330   0.02783
   O     -1.91578  -0.35673   9.70389  -0.02017   0.01165   0.02783
   O     -1.26683   1.48075   6.93135   0.00000   0.02330  -0.02783
   O      1.91578   0.35673   6.93135   0.02017  -0.01165  -0.02783
   O     -0.64895  -1.83748   6.93135  -0.02017  -0.01165  -0.02783
PRIMCOORD   18
     10   1
   Ca     0.00000   0.00000   8.31762  -0.03953   0.00299   0.00000
   Ca     0.00000   0.00000   0.00000  -0.03953  -0.00299  -0.00000
   C      0.00000   0.00000   4.15881   0.03153  -0.00000  -0.00000
   C      0.00000   0.00000  12.47643   0.03153  -0.00000   0.00000
   O      0.64895   1.83748   9.70389   0.02487  -0.00046   0.01641
   O      1.26683  -1.48075   9.70389   0.02566  -0.00000  -0.00000
   O     -1.91578  -0.35673   9.70389   0.02487   0.00046  -0.01641
   O     -1.26683   1.48075   6.93135   0.02566   0.00000  -0.00000
   O      1.91578   0.35673   6.93135   0.02487   0.00046  -0.01641
   O     -0.64895  -1.83748   6.93135   0.02487  -0.00046   0.01641
PRIMCOORD   19
     10   1
   Ca     0.00000   0.00000   8.31762  -0.00000   0.00000   0.00000
   Ca     0.00000   0.00000   0.00000   0.00000  -0.00000   0.00000
   C      0.00000   0.00000   4.15881   0.02229   0.00000   0.00000
   C      0.00000   0.00000  12.47643  -0.02229  -0.00000   0.00000
   O      0.64895   1.83748   9.70389  -0.02438  -0.03322  -0.00205
   O      1.26683  -1.48075   9.70389   0.03315  -0.00000   0.00000
   O     -1.91578  -0.35673   9.70389  -0.02438   0.03322   0.00205
   O     -1.26683   1.48075   6.93135  -0.03315   0.00000  -0.00000
   O      1.91578   0.35673   6.93135   0.02438  -0.03322  -0.00205
   O     -0.64895  -1.83748   6.93135   0.02438   0.03322   0.00205
PRIMCOORD   20
     10   1
   Ca     0.00000   0.00000   8.31762   0.00000   0.00000   0.00000
   Ca     0.00000   0.00000   0.00000  -0.00000   0.00000   0.00000
   C      0.00000   0.00000   4.15881  -0.00000   0.02229  -0.00000
   C      0.00000   0.00000  12.47643   0.00000  -0.02229   0.00000
   O      0.64895   1.83748   9.70389  -0.03322   0.01397  -0.00119
   O      1.26683  -1.48075   9.70389  -0.00000  -0.04356   0.00237
   O     -1.91578  -0.35673   9.70389   0.03322   0.01397  -0.00119
   O     -1.26683   1.48075   6.93135   0.00000   0.04356  -0.00237
   O      1.91578   0.35673   6.93135  -0.03322  -0.01397   0.00119
   O     -0.64895  -1.83748   6.93135   0.03322  -0.01397   0.00119
PRIMCOORD   21
     10   1
   Ca     0.00000   0.00000   8.31762  -0.00177  -0.00068   0.00000
   Ca     0.00000   0.00000   0.00000   0.00177  -0.00068   0.00000
   C      0.00000   0.00000   4.15881  -0.00000   0.02290  -0.00000
   C      0.00000   0.00000  12.47643   0.00000   0.02290  -0.00000
   O      0.64895   1.83748   9.70389  -0.03302   0.01390  -0.00221
   O      1.26683  -1.48075   9.70389  -0.00000  -0.04330   0.00443
   O     -1.91578  -0.35673   9.70389   0.03302   0.01390  -0.00221
   O     -1.26683   1.48075   6.93135   0.00000  -0.04330   0.00443
   O      1.91578   0.35673   6.93135   0.03302   0.01390  -0.00221
   O     -0.64895  -1.83748   6.93135  -0.03302   0.01390  -0.00221
PRIMCOORD   22
     10   1
   Ca     0.00000   0.00000   8.31762  -0.00026  -0.00163  -0.00000
   Ca     0.00000   0.00000   0.00000  -0.00026   0.00163   0.00000
   C      0.00000   0.00000   4.15881  -0.02120   0.00000  -0.00000
   C      0.00000   0.00000  12.47643  -0.02120   0.00000   0.00000
   O      0.64895   1.83748   9.70389   0.02473   0.03325   0.00403
   O      1.26683  -1.48075   9.70389  -0.03287  -0.00000   0.00000
   O     -1.91578  -0.35673   9.70389   0.02473  -0.03325  -0.00403
   O     -1.26683   1.48075   6.93135  -0.03287  -0.00000   0.00000
   O      1.91578   0.35673   6.93135   0.02473  -0.03325  -0.00403
   O     -0.64895  -1.83748   6.93135   0.02473   0.03325   0.00403
PRIMCOORD   23
     10   1
   Ca     0.00000   0.00000   8.31762   0.00000  -0.00000  -0.00023
   Ca     0.00000   0.00000   0.00000  -0.00000  -0.00000  -0.00023
   C      0.00000   0.00000   4.15881   0.00000  -0.00000  -0.06471
   C      0.00000   0.00000  12.47643  -0.00000  -0.00000  -0.06471
   O      0.64895   1.83748   9.70389   0.00134   0.00077   0.01639
   O      1.26683  -1.48075   9.70389   0.00000  -0.00155   0.01639
   O     -1.91578  -0.35673   9.70389  -0.00134   0.00077   0.01639
   O     -1.26683   1.48075   6.93135  -0.00000  -0.00155   0.01639
   O      1.91578   0.35673   6.93135  -0.00134   0.00077   0.01639
   O     -0.64895  -1.83748   6.93135   0.00134   0.00077   0.01639
PRIMCOORD   24
     10   1
   Ca     0.00000   0.00000   8.31762   0.00000   0.00000   0.00000
   Ca     0.00000   0.00000   0.00000   0.00000   0.00000   0.00000
   C      0.00000   0.00000   4.15881  -0.00000  -0.00000  -0.06386
   C      0.00000   0.00000  12.47643   0.00000   0.00000   0.06386
   O      0.64895   1.83748   9.70389   0.00116   0.00067   0.01748
   O      1.26683  -1.48075   9.70389   0.00000  -0.00134   0.01748
   O     -1.91578  -0.35673   9.70389  -0.00116   0.00067   0.01748
   O     -1.26683   1.48075   6.93135  -0.00000   0.00134  -0.01748
   O      1.91578   0.35673   6.93135   0.00116  -0.00067  -0.01748
   O     -0.64895  -1.83748   6.93135  -0.00116  -0.00067  -0.01748
PRIMCOORD   25
     10   1
   Ca     0.00000   0.00000   8.31762  -0.00000  -0.00000  -0.00185
   Ca     0.00000   0.00000   0.00000  -0.00000   0.00000   0.00185
   C      0.00000   0.00000   4.15881   0.00000   0.00000  -0.00000
   C      0.00000   0.00000  12.47643   0.00000   0.00000  -0.00000
   O      0.64895   1.83748   9.70389  -0.02041   0.03534   0.00000
   O      1.26683  -1.48075   9.70389   0.04081  -0.00000   0.00000
   O     -1.91578  -0.35673   9.70389  -0.02041  -0.03534  -0.00000
   O     -1.26683   1.48075   6.93135   0.04081  -0.00000   0.00000
   O      1.91578   0.35673   6.93135  -0.02041  -0.03534  -0.00000
   O     -0.64895  -1.83748   6.93135  -0.02041   0.03534   0.00000
PRIMCOORD   26
     10   1
   Ca     0.00000   0.00000   8.31762  -0.00000   0.00000  -0.00000
   Ca     0.00000   0.00000   0.00000  -0.00000   0.00000  -0.00000
   C      0.00000   0.00000   4.15881  -0.00000  -0.00000   0.00000
   C      0.00000   0.00000  12.47643   0.00000  -0.00000   0.00000
   O      0.64895   1.83748   9.70389  -0.02041   0.03536  -0.00000
   O      1.26683  -1.48075   9.70389   0.04082   0.00000   0.00000
   O     -1.91578  -0.35673   9.70389  -0.02041  -0.03536   0.00000
   O     -1.26683   1.48075   6.93135  -0.04082   0.00000  -0.00000
   O      1.91578   0.35673   6.93135   0.02041   0.03536  -0.00000
   O     -0.64895  -1.83748   6.93135   0.02041  -0.03536   0.00000
PRIMCOORD   27
     10   1
   Ca     0.00000   0.00000   8.31762  -0.00076  -0.00104  -0.00000
   Ca     0.00000   0.00000   0.00000   0.00076  -0.00104  -0.00000
   C      0.00000   0.00000   4.15881   0.00000   0.06278  -0.00000
   C      0.00000   0.00000  12.47643  -0.00000   0.06278  -0.00000
   O      0.64895   1.83748   9.70389   0.00995  -0.02059  -0.00004
   O      1.26683  -1.48075   9.70389  -0.00000  -0.00334   0.00008
   O     -1.91578  -0.35673   9.70389  -0.00995  -0.02059  -0.00004
   O     -1.26683   1.48075   6.93135   0.00000  -0.00334   0.00008
   O      1.91578   0.35673   6.93135  -0.00995  -0.02059  -0.00004
   O     -0.64895  -1.83748   6.93135   0.00995  -0.02059  -0.00004
PRIMCOORD   28
     10   1
   Ca     0.00000   0.00000   8.31762   0.00000   0.00000  -0.00000
   Ca     0.00000   0.00000   0.00000  -0.00000   0.00000  -0.00000
   C      0.00000   0.00000   4.15881   0.06285   0.00000  -0.00000
   C      0.00000   0.00000  12.47643  -0.06285  -0.00000  -0.00000
   O      0.64895   1.83748   9.70389  -0.00940   0.00968  -0.00014
   O      1.26683  -1.48075   9.70389  -0.02617  -0.00000   0.00000
   O     -1.91578  -0.35673   9.70389  -0.00940  -0.00968   0.00014
   O     -1.26683   1.48075   6.93135   0.02617   0.00000  -0.00000
   O      1.91578   0.35673   6.93135   0.00940   0.00968  -0.00014
   O     -0.64895  -1.83748   6.93135   0.00940  -0.00968   0.00014
PRIMCOORD   29
     10   1
   Ca     0.00000   0.00000   8.31762   0.00000  -0.00000   0.00000
   Ca     0.00000   0.00000   0.00000   0.00000   0.00000   0.00000
   C      0.00000   0.00000   4.15881   0.00000  -0.06285   0.00000
   C      0.00000   0.00000  12.47643  -0.00000   0.06285  -0.00000
   O      0.64895   1.83748   9.70389  -0.00968   0.02058   0.00008
   O      1.26683  -1.48075   9.70389  -0.00000   0.00381  -0.00016
   O     -1.91578  -0.35673   9.70389   0.00968   0.02058   0.00008
   O     -1.26683   1.48075   6.93135   0.00000  -0.00381   0.00016
   O      1.91578   0.35673   6.93135  -0.00968  -0.02058  -0.00008
   O     -0.64895  -1.83748   6.93135   0.00968  -0.02058  -0.00008
PRIMCOORD   30
     10   1
   Ca     0.00000   0.00000   8.31762  -0.00163  -0.00042   0.00000
   Ca     0.00000   0.00000   0.00000  -0.00163   0.00042  -0.00000
   C      0.00000   0.00000   4.15881  -0.06157  -0.00000   0.00000
   C      0.00000   0.00000  12.47643  -0.06157   0.00000  -0.00000
   O      0.64895   1.83748   9.70389   0.01127  -0.00951   0.00056
   O      1.26683  -1.48075   9.70389   0.02775   0.00000  -0.00000
   O     -1.91578  -0.35673   9.70389   0.01127   0.00951  -0.00056
   O     -1.26683   1.48075   6.93135   0.02775  -0.00000  -0.00000
   O      1.91578   0.35673   6.93135   0.01127   0.00951  -0.00056
   O     -0.64895  -1.83748   6.93135   0.01127  -0.00951   0.00056
