TACC:  Starting up job 9095436 
TACC:  Setting up parallel environment for MVAPICH2+mpispawn. 
TACC:  Starting parallel tasks... 

     Program PWSCF v.6.4.1 starts on  3Feb2022 at 13: 1:45 

     This program is part of the open-source Quantum ESPRESSO suite
     for quantum simulation of materials; please cite
         "P. Giannozzi et al., J. Phys.:Condens. Matter 21 395502 (2009);
         "P. Giannozzi et al., J. Phys.:Condens. Matter 29 465901 (2017);
          URL http://www.quantum-espresso.org", 
     in publications or presentations arising from this work. More details at
     http://www.quantum-espresso.org/quote

     Parallel version (MPI & OpenMP), running on      32 processor cores
     Number of MPI processes:                32
     Threads/MPI process:                     1

     MPI processes distributed on     1 nodes
     R & G space division:  proc/nbgrp/npool/nimage =      32
     Waiting for input...
     Reading input from standard input
Warning: card &IONS ignored
Warning: card  ION_DYNAMICS='BFGS', ignored
Warning: card / ignored
Warning: card &CELL ignored
Warning: card  CELL_DYNAMICS = 'BFGS', ignored
Warning: card  PRESS=0.1D0, ignored
Warning: card / ignored
     Message from routine read_cards :
     DEPRECATED: no units specified in ATOMIC_POSITIONS card
     Message from routine read_cards :
     ATOMIC_POSITIONS: units set to alat

     Current dimensions of program PWSCF are:
     Max number of different atomic species (ntypx) = 10
     Max number of k-points (npk) =  40000
     Max angular momentum in pseudopotentials (lmaxx) =  3

     Subspace diagonalization in iterative solution of the eigenvalue problem:
     one sub-group per band group will be used
     scalapack distributed-memory algorithm (size of sub-group:  4*  4 procs)

 
     Parallelization info
     --------------------
     sticks:   dense  smooth     PW     G-vecs:    dense   smooth      PW
     Min          14       3      1                  206       26       4
     Max          15       4      2                  208       29       7
     Sum         463     121     43                 6615      893     181
 


     bravais-lattice index     =            2
     lattice parameter (alat)  =       6.7000  a.u.
     unit-cell volume          =      75.1908 (a.u.)^3
     number of atoms/cell      =            2
     number of atomic types    =            1
     number of electrons       =         8.00
     number of Kohn-Sham states=            4
     kinetic-energy cutoff     =      20.0000  Ry
     charge density cutoff     =     300.0000  Ry
     convergence threshold     =      1.0E-08
     mixing beta               =       0.7000
     number of iterations used =            8  plain     mixing
     Exchange-correlation      = SLA  PZ   NOGX NOGC ( 1  1  0  0 0 0)

     celldm(1)=   6.700000  celldm(2)=   0.000000  celldm(3)=   0.000000
     celldm(4)=   0.000000  celldm(5)=   0.000000  celldm(6)=   0.000000

     crystal axes: (cart. coord. in units of alat)
               a(1) = (  -0.500000   0.000000   0.500000 )  
               a(2) = (   0.000000   0.500000   0.500000 )  
               a(3) = (  -0.500000   0.500000   0.000000 )  

     reciprocal axes: (cart. coord. in units 2 pi/alat)
               b(1) = ( -1.000000 -1.000000  1.000000 )  
               b(2) = (  1.000000  1.000000  1.000000 )  
               b(3) = ( -1.000000  1.000000 -1.000000 )  


     PseudoPot. # 1 for C  read from file:
     /work/03674/benedek/stampede2/pseudos/C_LDA.UPF
     MD5 check sum: 407c1fe918d93b14b177d5600f28733c
     Pseudo is Ultrasoft + core correction, Zval =  4.0
     Generated by new atomic code, or converted to UPF format
     Using radial grid of  721 points,  4 beta functions with: 
                l(1) =   0
                l(2) =   0
                l(3) =   1
                l(4) =   1
     Q(r) pseudized with  8 coefficients,  rinner =    1.100   1.100   1.100


     atomic species   valence    mass     pseudopotential
        C              4.00    12.01100     C ( 1.00)

     48 Sym. Ops., with inversion, found (24 have fractional translation)



   Cartesian axes

     site n.     atom                  positions (alat units)
         1           C   tau(   1) = (   0.0000000   0.0000000   0.0000000  )
         2           C   tau(   2) = (   0.2500000   0.2500000   0.2500000  )

     number of k points=     3
                       cart. coord. in units 2pi/alat
        k(    1) = (   0.0000000   0.0000000   0.0000000), wk =   0.2500000
        k(    2) = (   0.5000000  -0.5000000   0.5000000), wk =   1.0000000
        k(    3) = (   0.0000000  -1.0000000   0.0000000), wk =   0.7500000

     Dense  grid:     6615 G-vectors     FFT dimensions: (  27,  27,  27)

     Smooth grid:      893 G-vectors     FFT dimensions: (  15,  15,  15)

     Estimated max dynamical RAM per process >       0.72 MB

     Estimated total dynamical RAM >      22.96 MB

     Initial potential from superposition of free atoms

     starting charge    7.99993, renormalised to    8.00000
     Starting wfcs are    8 randomized atomic wfcs

     total cpu time spent up to now is        3.5 secs

     Self-consistent Calculation

     iteration #  1     ecut=    20.00 Ry     beta= 0.70
     CG style diagonalization
     ethr =  1.00E-02,  avg # of iterations =  3.0

     total cpu time spent up to now is        3.9 secs

     total energy              =     -22.78023900 Ry
     Harris-Foulkes estimate   =     -22.88258437 Ry
     estimated scf accuracy    <       0.18803541 Ry

     iteration #  2     ecut=    20.00 Ry     beta= 0.70
     CG style diagonalization
     ethr =  2.35E-03,  avg # of iterations =  3.2

     total cpu time spent up to now is        4.0 secs

     total energy              =     -22.79583608 Ry
     Harris-Foulkes estimate   =     -22.79687686 Ry
     estimated scf accuracy    <       0.00316261 Ry

     iteration #  3     ecut=    20.00 Ry     beta= 0.70
     CG style diagonalization
     ethr =  3.95E-05,  avg # of iterations =  3.8

     total cpu time spent up to now is        4.1 secs

     total energy              =     -22.79636863 Ry
     Harris-Foulkes estimate   =     -22.79637173 Ry
     estimated scf accuracy    <       0.00004971 Ry

     iteration #  4     ecut=    20.00 Ry     beta= 0.70
     CG style diagonalization
     ethr =  6.21E-07,  avg # of iterations =  3.5

     total cpu time spent up to now is        4.2 secs

     total energy              =     -22.79637446 Ry
     Harris-Foulkes estimate   =     -22.79637496 Ry
     estimated scf accuracy    <       0.00000154 Ry

     iteration #  5     ecut=    20.00 Ry     beta= 0.70
     CG style diagonalization
     ethr =  1.92E-08,  avg # of iterations =  4.2

     total cpu time spent up to now is        4.3 secs

     total energy              =     -22.79637481 Ry
     Harris-Foulkes estimate   =     -22.79637483 Ry
     estimated scf accuracy    <       0.00000004 Ry

     iteration #  6     ecut=    20.00 Ry     beta= 0.70
     CG style diagonalization
     ethr =  5.03E-10,  avg # of iterations =  3.8

     total cpu time spent up to now is        4.3 secs

     End of self-consistent calculation

          k = 0.0000 0.0000 0.0000 (   113 PWs)   bands (ev):

    -7.9459  13.8020  13.8020  13.8020

          k = 0.5000-0.5000 0.5000 (   108 PWs)   bands (ev):

    -1.9336   0.0647  11.0026  11.0026

          k = 0.0000-1.0000 0.0000 (   116 PWs)   bands (ev):

     0.9441   0.9441   7.3162   7.3162

     highest occupied level (ev):    13.8020

!    total energy              =     -22.79637482 Ry
     Harris-Foulkes estimate   =     -22.79637482 Ry
     estimated scf accuracy    <          1.3E-09 Ry

     The total energy is the sum of the following terms:

     one-electron contribution =       8.29467733 Ry
     hartree contribution      =       2.07087192 Ry
     xc contribution           =      -7.43393342 Ry
     ewald contribution        =     -25.72799066 Ry

     convergence has been achieved in   6 iterations

     Forces acting on atoms (cartesian axes, Ry/au):

     atom    1 type  1   force =     0.00000000    0.00000000   -0.00000000
     atom    2 type  1   force =     0.00000000   -0.00000000    0.00000000

     Total force =     0.000000     Total SCF correction =     0.000000


     Computing stress (Cartesian axis) and pressure

          total   stress  (Ry/bohr**3)                   (kbar)     P=   33.60
   0.00022838   0.00000000  -0.00000000         33.60      0.00     -0.00
   0.00000000   0.00022838  -0.00000000          0.00     33.60     -0.00
  -0.00000000  -0.00000000   0.00022838         -0.00     -0.00     33.60


     Writing output data file diamond.save/
 
     init_run     :      0.27s CPU      1.89s WALL (       1 calls)
     electrons    :      0.48s CPU      0.92s WALL (       1 calls)
     forces       :      0.01s CPU      0.11s WALL (       1 calls)
     stress       :      0.02s CPU      0.08s WALL (       1 calls)

     Called by init_run:
     wfcinit      :      0.21s CPU      0.77s WALL (       1 calls)
     potinit      :      0.02s CPU      0.16s WALL (       1 calls)
     hinit0       :      0.03s CPU      0.60s WALL (       1 calls)

     Called by electrons:
     c_bands      :      0.40s CPU      0.51s WALL (       6 calls)
     sum_band     :      0.05s CPU      0.18s WALL (       6 calls)
     v_of_rho     :      0.01s CPU      0.03s WALL (       7 calls)
     newd         :      0.01s CPU      0.13s WALL (       7 calls)
     mix_rho      :      0.01s CPU      0.05s WALL (       6 calls)

     Called by c_bands:
     init_us_2    :      0.00s CPU      0.01s WALL (      45 calls)
     ccgdiagg     :      0.22s CPU      0.30s WALL (      18 calls)
     wfcrot       :      0.38s CPU      0.89s WALL (      18 calls)

     Called by sum_band:
     sum_band:bec :      0.00s CPU      0.01s WALL (      18 calls)
     addusdens    :      0.00s CPU      0.06s WALL (       6 calls)

     Called by *cgdiagg:
     h_psi        :      0.21s CPU      0.44s WALL (     216 calls)
     s_psi        :      0.01s CPU      0.01s WALL (     414 calls)
     cdiaghg      :      0.29s CPU      0.56s WALL (      18 calls)

     Called by h_psi:
     h_psi:pot    :      0.20s CPU      0.43s WALL (     216 calls)
     h_psi:calbec :      0.02s CPU      0.19s WALL (     216 calls)
     vloc_psi     :      0.17s CPU      0.21s WALL (     216 calls)
     add_vuspsi   :      0.00s CPU      0.01s WALL (     216 calls)
     hs_1psi      :      0.16s CPU      0.19s WALL (     198 calls)
     s_1psi       :      0.02s CPU      0.03s WALL (     198 calls)

     General routines
     calbec       :      0.03s CPU      0.20s WALL (     447 calls)
     fft          :      0.03s CPU      0.53s WALL (      48 calls)
     ffts         :      0.01s CPU      0.03s WALL (      13 calls)
     fftw         :      0.18s CPU      0.21s WALL (     636 calls)
     interpolate  :      0.01s CPU      0.09s WALL (       7 calls)
 
     Parallel routines
     fft_scatt_xy :      0.01s CPU      0.02s WALL (     697 calls)
     fft_scatt_yz :      0.15s CPU      0.21s WALL (     697 calls)
 
     PWSCF        :      0.98s CPU      5.15s WALL

 
   This run was terminated on:  13: 1:50   3Feb2022            

=------------------------------------------------------------------------------=
   JOB DONE.
=------------------------------------------------------------------------------=
TACC:  Shutdown complete. Exiting. 
